 Gaussian 16, Revision A.03,

 -----------------------------------------------------------
 # opt freq B3LYP/6-31G(d) empiricaldispersion=gd3bj scf=xqc
 -----------------------------------------------------------

 ------------------------------
 CID_130712858_JID_612_neutraal
 ------------------------------
 Symbolic Z-matrix:
 Charge =  0 Multiplicity = 1

 SCF Done:  E(RB3LYP) =  -499.585325742     A.U. after   14 cycles
 SCF Done:  E(RB3LYP) =  -499.596122393     A.U. after   12 cycles
 SCF Done:  E(RB3LYP) =  -499.593338055     A.U. after   14 cycles
 SCF Done:  E(RB3LYP) =  -499.592547960     A.U. after   14 cycles
 SCF Done:  E(RB3LYP) =  -499.585932092     A.U. after   14 cycles
 SCF Done:  E(RB3LYP) =  -499.590016110     A.U. after   13 cycles
 SCF Done:  E(RB3LYP) =  -499.596402664     A.U. after    9 cycles
 SCF Done:  E(RB3LYP) =  -499.599068760     A.U. after   14 cycles
 SCF Done:  E(RB3LYP) =  -499.599359627     A.U. after   14 cycles
 SCF Done:  E(RB3LYP) =  -499.601374646     A.U. after   13 cycles
 SCF Done:  E(RB3LYP) =  -499.602700034     A.U. after    9 cycles
 SCF Done:  E(RB3LYP) =  -499.602702802     A.U. after    9 cycles
 SCF Done:  E(RB3LYP) =  -499.602704696     A.U. after    9 cycles
 SCF Done:  E(RB3LYP) =  -499.602705177     A.U. after    9 cycles
 SCF Done:  E(RB3LYP) =  -499.602705230     A.U. after    8 cycles
 Optimization completed.
    -- Stationary point found.

 1\1\GINC-NODE319\FOpt\RB3LYP\6-31G(d)\C7H12O3\VSC10255\08-Dec-2020\0\\
 # opt freq B3LYP/6-31G(d) empiricaldispersion=gd3bj scf=xqc\\CID_13071
 2858_JID_612_neutraal\\0,1\C,0.1798129435,0.9654382864,-0.0516673981\C
 ,1.1416553356,-0.2471694679,-0.0104155115\C,-0.0994684622,-1.200737960
 4,-0.0286613032\C,-0.9610643168,0.0232288764,0.4028596209\C,0.01995156
 09,-2.3341911224,0.9686718429\O,0.1936245221,-3.5033881667,0.704506897
 3\O,-0.2782662487,-1.6410025883,-1.3592486237\C,-1.5916755311,-1.96827
 60752,-1.7942591865\C,-2.2461916181,-3.1289849884,-1.0665209895\O,-2.6

 Normal termination of Gaussian 16 at Tue Dec  8 12:44:05 2020.

 --------------------------------------------------------------------
 #N Geom=AllCheck Guess=TCheck SCRF=Check GenChk RB3LYP/6-31G(d) Freq
 --------------------------------------------------------------------

 Structure from the checkpoint file:  "JID_612.chk"
 ------------------------------
 CID_130712858_JID_612_neutraal
 ------------------------------
 Charge =  0 Multiplicity = 1

 SCF Done:  E(RB3LYP) =  -499.602705230     A.U. after    1 cycles

  Exact polarizability:  90.645  -0.149  77.549  -5.170   2.741  71.255
 Approx polarizability: 117.082   3.328 110.001 -10.310   0.326 109.218

                      1                      2                      3
                      A                      A                      A
 Frequencies --     43.5632                68.0888               107.5828
 Red. masses --      2.8050                 3.8349                 2.1678
 Frc consts  --      0.0031                 0.0105                 0.0148
 IR Inten    --     51.5169                 2.4534                 5.0157

                      4                      5                      6
                      A                      A                      A
 Frequencies --    151.6625               168.7585               216.9693
 Red. masses --      3.5053                 4.2275                 3.6267
 Frc consts  --      0.0475                 0.0709                 0.1006
 IR Inten    --      2.7592                 8.5869                18.3992

                      7                      8                      9
                      A                      A                      A
 Frequencies --    262.3391               282.1854               299.8588
 Red. masses --      1.8106                 2.6149                 2.1199
 Frc consts  --      0.0734                 0.1227                 0.1123
 IR Inten    --     65.6261                 7.0050                10.7785

                     10                     11                     12
                      A                      A                      A
 Frequencies --    355.1555               391.9152               438.0816
 Red. masses --      2.1861                 2.4623                 3.8461
 Frc consts  --      0.1625                 0.2228                 0.4349
 IR Inten    --     15.0027                 4.7430                 0.7473

                     13                     14                     15
                      A                      A                      A
 Frequencies --    495.8878               548.6669               692.5103
 Red. masses --      3.8018                 2.1322                 1.5278
 Frc consts  --      0.5508                 0.3782                 0.4317
 IR Inten    --      8.5857                 2.7141                 6.8314

                     16                     17                     18
                      A                      A                      A
 Frequencies --    760.3808               774.3114               868.1907
 Red. masses --      2.3615                 1.8764                 2.2601
 Frc consts  --      0.8045                 0.6628                 1.0037
 IR Inten    --     15.6721                16.7823                15.1877

                     19                     20                     21
                      A                      A                      A
 Frequencies --    884.2283               902.5054               935.9996
 Red. masses --      2.2982                 2.3814                 2.0772
 Frc consts  --      1.0587                 1.1428                 1.0722
 IR Inten    --     11.0861                15.9776                18.6759

                     22                     23                     24
                      A                      A                      A
 Frequencies --    950.6270               955.8693               969.1784
 Red. masses --      2.0156                 2.4044                 2.4917
 Frc consts  --      1.0732                 1.2944                 1.3790
 IR Inten    --     17.6182                 0.1201                 2.9131

                     25                     26                     27
                      A                      A                      A
 Frequencies --   1062.0517              1077.4453              1101.1433
 Red. masses --      1.3304                 1.8844                 2.5802
 Frc consts  --      0.8842                 1.2889                 1.8433
 IR Inten    --      0.9355                32.2830                18.4632

                     28                     29                     30
                      A                      A                      A
 Frequencies --   1103.3210              1132.1395              1158.1199
 Red. masses --      3.9914                 2.7623                 4.0826
 Frc consts  --      2.8627                 2.0860                 3.2263
 IR Inten    --      7.4582                 3.6395               103.1679

                     31                     32                     33
                      A                      A                      A
 Frequencies --   1216.8703              1221.1543              1263.5262
 Red. masses --      1.7764                 1.3905                 1.1780
 Frc consts  --      1.5498                 1.2217                 1.1081
 IR Inten    --     11.0306                 2.7808                 6.3806

                     34                     35                     36
                      A                      A                      A
 Frequencies --   1273.8316              1293.2374              1295.6010
 Red. masses --      1.2856                 1.4201                 1.7256
 Frc consts  --      1.2291                 1.3994                 1.7066
 IR Inten    --      1.3899                 5.6320                25.1937

                     37                     38                     39
                      A                      A                      A
 Frequencies --   1314.6565              1322.5179              1354.3679
 Red. masses --      1.1222                 1.7553                 1.1531
 Frc consts  --      1.1428                 1.8088                 1.2462
 IR Inten    --     16.5079                24.5823                34.6402

                     40                     41                     42
                      A                      A                      A
 Frequencies --   1424.5446              1440.6174              1469.2773
 Red. masses --      1.2630                 1.2396                 1.4715
 Frc consts  --      1.5101                 1.5157                 1.8717
 IR Inten    --      7.1217                 3.9830                 8.7932

                     43                     44                     45
                      A                      A                      A
 Frequencies --   1490.4086              1502.6726              1520.7496
 Red. masses --      1.0901                 1.0888                 1.0918
 Frc consts  --      1.4267                 1.4486                 1.4876
 IR Inten    --      2.4453                 4.6755                 2.5662

                     46                     47                     48
                      A                      A                      A
 Frequencies --   1525.9915              1532.8735              1827.8154
 Red. masses --      1.0887                 1.1204                10.7455
 Frc consts  --      1.4937                 1.5511                21.1516
 IR Inten    --      5.5560                 2.4360               173.0999

                     49                     50                     51
                      A                      A                      A
 Frequencies --   2873.5442              3005.7958              3034.5133
 Red. masses --      1.0834                 1.0690                 1.0673
 Frc consts  --      5.2708                 5.6907                 5.7907
 IR Inten    --    113.6739                71.7074                44.9092

                     52                     53                     54
                      A                      A                      A
 Frequencies --   3075.9431              3082.3286              3086.0246
 Red. masses --      1.0618                 1.0663                 1.0608
 Frc consts  --      5.9188                 5.9689                 5.9524
 IR Inten    --     28.2863                18.6380                41.0821

                     55                     56                     57
                      A                      A                      A
 Frequencies --   3103.8853              3112.0163              3131.5459
 Red. masses --      1.0944                 1.0974                 1.1064
 Frc consts  --      6.2123                 6.2616                 6.3928
 IR Inten    --     24.8188                29.6378                11.2234

                     58                     59                     60
                      A                      A                      A
 Frequencies --   3149.2282              3157.3282              3773.8928
 Red. masses --      1.1051                 1.1006                 1.0668
 Frc consts  --      6.4572                 6.4640                 8.9518
 IR Inten    --     22.1810                31.0569                28.2955

 - Thermochemistry -
 -------------------
 Temperature   298.150 Kelvin.  Pressure   1.00000 Atm.
 Atom     1 has atomic number  6 and mass  12.00000

 Molecular mass:   144.07864 amu.
 Principal axes and moments of inertia in atomic units:
                           1         2         3
     Eigenvalues --   901.687191623.511611893.41143
           X            0.99976  -0.01740  -0.01358
           Y            0.01795   0.99898   0.04148
           Z            0.01284  -0.04171   0.99905
 This molecule is an asymmetric top.
 Rotational symmetry number  1.
 Warning -- assumption of classical behavior for rotation
           may cause significant error
 Rotational temperatures (Kelvin)      0.09606     0.05335     0.04574
 Rotational constants (GHZ):           2.00152     1.11163     0.95317
 Zero-point vibrational energy     490681.2 (Joules/Mol)
                                  117.27563 (Kcal/Mol)
 Warning -- explicit consideration of  14 degrees of freedom as
           vibrations may cause significant error
 Vibrational temperatures:     62.68    97.96   154.79   218.21   242.81
          (Kelvin)            312.17   377.45   406.00   431.43   510.99
                              563.88   630.30   713.47   789.41   996.37
                             1094.02  1114.06  1249.13  1272.21  1298.50
                             1346.69  1367.74  1375.28  1394.43  1528.06
                             1550.20  1584.30  1587.43  1628.90  1666.28
                             1750.80  1756.97  1817.93  1832.76  1860.68
                             1864.08  1891.50  1902.81  1948.63  2049.60
                             2072.73  2113.96  2144.37  2162.01  2188.02
                             2195.56  2205.46  2629.82  4134.39  4324.67
                             4365.99  4425.60  4434.78  4440.10  4465.80
                             4477.50  4505.60  4531.04  4542.69  5429.79

 Zero-point correction=                           0.186891 (Hartree/Particle)
 Thermal correction to Energy=                    0.197514
 Thermal correction to Enthalpy=                  0.198458
 Thermal correction to Gibbs Free Energy=         0.150422
 Sum of electronic and zero-point Energies=           -499.415815
 Sum of electronic and thermal Energies=              -499.405192
 Sum of electronic and thermal Enthalpies=            -499.404248
 Sum of electronic and thermal Free Energies=         -499.452283

                     E (Thermal)             CV                S
                      KCal/Mol        Cal/Mol-Kelvin    Cal/Mol-Kelvin
 Total                  123.942             38.690            101.099
 Electronic               0.000              0.000              0.000
 Translational            0.889              2.981             40.807
 Rotational               0.889              2.981             29.407
 Vibrational            122.164             32.728             30.886
 Vibration     1          0.595              1.980              5.090
 Vibration     2          0.598              1.969              4.208
 Vibration     3          0.606              1.943              3.312
 Vibration     4          0.619              1.901              2.651
 Vibration     5          0.625              1.881              2.449
 Vibration     6          0.646              1.815              1.984
 Vibration     7          0.670              1.742              1.646
 Vibration     8          0.681              1.707              1.520
 Vibration     9          0.692              1.674              1.418
 Vibration    10          0.731              1.565              1.143
 Vibration    11          0.759              1.487              0.993
 Vibration    12          0.798              1.387              0.833
 Vibration    13          0.851              1.259              0.668
 Vibration    14          0.904              1.143              0.547

 Optimization completed.
    -- Stationary point found.

 1\1\GINC-NODE319\Freq\RB3LYP\6-31G(d)\C7H12O3\VSC10255\08-Dec-2020\0\\
 #N Geom=AllCheck Guess=TCheck SCRF=Check GenChk RB3LYP/6-31G(d) Freq\\
 CID_130712858_JID_612_neutraal\\0,1\C,0.1798129435,0.9654382864,-0.051
 6673981\C,1.1416553356,-0.2471694679,-0.0104155115\C,-0.0994684622,-1.
 2007379604,-0.0286613032\C,-0.9610643168,0.0232288764,0.4028596209\C,0
 .0199515609,-2.3341911224,0.9686718429\O,0.1936245221,-3.5033881667,0.
 7045068973\O,-0.2782662487,-1.6410025883,-1.3592486237\C,-1.5916755311
 ,-1.9682760752,-1.7942591865\C,-2.2461916181,-3.1289849884,-1.06652098

 Normal termination of Gaussian 16 at Tue Dec  8 13:03:58 2020.

 ----------------------------------------------------------------------
 # B3LYP/6-311++G(d,p) empiricaldispersion=gd3bj scf=xqc pop=npa geom=c
 heck
 ----------------------------------------------------------------------

 --------------------------------------
 CID_130712858_JID_612_Energie_neutraal
 --------------------------------------
 Structure from the checkpoint file:  "JID_612.chk"
 Charge =  0 Multiplicity = 1

 SCF Done:  E(RB3LYP) =  -499.759619836     A.U. after   13 cycles
 Normal termination of Gaussian 16 at Tue Dec  8 13:06:06 2020.

 ----------------------------------------------------------------------
 # B3LYP/6-311++G(d,p) empiricaldispersion=gd3bj scf=xqc pop=npa geom=c
 heck
 ----------------------------------------------------------------------

 ------------------------------------
 CID_130712858_JID_612_Energie_kation
 ------------------------------------
 Structure from the checkpoint file:  "JID_612.chk"
 Charge =  1 Multiplicity = 2

 SCF Done:  E(UB3LYP) =  -499.436953693     A.U. after   21 cycles
 Normal termination of Gaussian 16 at Tue Dec  8 13:16:58 2020.
 Gaussian 16:  ES64L-G16RevA.03 25-Dec-2016

 -----------------------------------
 CID_130712858_JID_612_Energie_anion
 -----------------------------------
 Structure from the checkpoint file:  "JID_612.chk"
 Charge = -1 Multiplicity = 2

                         Standard orientation:
 ---------------------------------------------------------------------
 Center     Atomic      Atomic             Coordinates (Angstroms)
 Number     Number       Type             X           Y           Z
 ---------------------------------------------------------------------
      1          6           0       -2.568329   -0.746434    0.343036
      2          6           0       -2.155033    0.434801   -0.568628
      3          6           0       -0.671692    0.237936   -0.109326
      4          6           0       -1.224352   -0.583393    1.093436
      5          6           0        0.016665    1.546313    0.219255
      6          8           0        0.895929    2.073129   -0.425979
      7          8           0       -0.011149   -0.506999   -1.111832
      8          6           0        1.074868   -1.341913   -0.731210
      9          6           0        2.272242   -0.620007   -0.139275
     10          8           0        1.953056   -0.214951    1.195985
     11          1           0       -2.616019   -1.687180   -0.211761
     12          1           0       -3.486100   -0.631767    0.926450
     13          1           0       -2.290806    0.339822   -1.648165
     14          1           0       -2.571737    1.389785   -0.231272
     15          1           0       -1.320193    0.052926    1.979472
     16          1           0       -0.667134   -1.476557    1.378350
     17          1           0       -0.416906    2.054420    1.113135
     18          1           0        0.745501   -2.121629   -0.029895
     19          1           0        1.378654   -1.834759   -1.660271
     20          1           0        3.131468   -1.309222   -0.129811
     21          1           0        2.513869    0.242438   -0.768167
     22          1           0        2.430507    0.608469    1.372815
 ---------------------------------------------------------------------

 SCF Done:  E(UB3LYP) =  -499.742320206     A.U. after   33 cycles
 SCF Done:  E(UB3LYP) =  -499.742320206     a.u. after    1 cycles

 The electronic state is 2-A.
 Alpha  occ. eigenvalues --  -19.01886 -19.01657 -18.99226 -10.12367 -10.11802
 Alpha  occ. eigenvalues --  -10.10789 -10.10400 -10.06217 -10.05900 -10.05821
 Alpha  occ. eigenvalues --   -0.94059  -0.91690  -0.91319  -0.73636  -0.64004
 Alpha  occ. eigenvalues --   -0.57799  -0.55913  -0.51332  -0.47313  -0.43219
 Alpha  occ. eigenvalues --   -0.41619  -0.38737  -0.38395  -0.36013  -0.33717
 Alpha  occ. eigenvalues --   -0.32788  -0.32262  -0.30399  -0.28948  -0.27391
 Alpha  occ. eigenvalues --   -0.25131  -0.24547  -0.23076  -0.22853  -0.21718
 Alpha  occ. eigenvalues --   -0.19412  -0.17409  -0.16305  -0.12385   0.05185
 Alpha virt. eigenvalues --    0.06945   0.07558   0.08190   0.09784   0.09849
 Alpha virt. eigenvalues --    0.10072   0.10796   0.12085   0.12482   0.12856
 Alpha virt. eigenvalues --    0.14025   0.15148   0.15744   0.17013   0.17620

  Beta  occ. eigenvalues --  -19.01875 -19.01657 -18.99097 -10.12179 -10.11817
  Beta  occ. eigenvalues --  -10.10771 -10.10371 -10.06207 -10.05875 -10.05751
  Beta  occ. eigenvalues --   -0.93984  -0.91522  -0.91259  -0.73581  -0.63961
  Beta  occ. eigenvalues --   -0.57621  -0.55830  -0.51196  -0.47070  -0.43159
  Beta  occ. eigenvalues --   -0.41551  -0.38632  -0.38326  -0.35919  -0.33641
  Beta  occ. eigenvalues --   -0.32720  -0.32087  -0.30362  -0.28603  -0.27227
  Beta  occ. eigenvalues --   -0.24877  -0.24515  -0.22997  -0.22688  -0.21689
  Beta  occ. eigenvalues --   -0.19271  -0.17375  -0.16254  -0.12284
  Beta virt. eigenvalues --    0.07683   0.08404   0.08630   0.08785   0.10406
  Beta virt. eigenvalues --    0.10519   0.10718   0.11544   0.12209   0.12978
  Beta virt. eigenvalues --    0.13114   0.14349   0.15329   0.15841   0.17053

 Mulliken charges and spin densities:
               1          2
     1  C   -0.495975   0.410046
     2  C    1.932334  -2.311314
     3  C   -2.141619   2.445463
     4  C    0.575443  -0.975759
     5  C    1.110182  -1.287620
     6  O   -0.298612   0.053601
     7  O   -0.058322   0.027756
     8  C    0.084838  -0.274041
     9  C    0.503105  -0.871561
    10  O   -0.285700   0.025575
    11  H    0.043912   0.075331
    12  H   -0.539967   0.691613
    13  H   -0.071109   0.232502
    14  H   -0.505520   0.664190
    15  H    0.038241   0.113234
    16  H    0.213090  -0.082882
    17  H   -0.223079   0.295194
    18  H    0.101410   0.038908
    19  H   -0.427728   0.584983
    20  H   -0.924445   1.068460
    21  H    0.256147  -0.059398
    22  H    0.113375   0.135718
 Sum of Mulliken charges =  -1.00000   1.00000

 Dipole moment (field-independent basis, Debye):
    X=              0.4072    Y=             -0.8055    Z=              1.1906  Tot=              1.4941
 Quadrupole moment (field-independent basis, Debye-Ang):
   XX=           -121.5758   YY=            -95.9600   ZZ=            -87.1646
   XY=             12.8905   XZ=              4.3590   YZ=             -2.0639

 Summary of Natural Population Analysis:

                                       Natural Population
                Natural  -----------------------------------------------
    Atom  No    Charge         Core      Valence    Rydberg      Total
 -----------------------------------------------------------------------
      C    1   -0.19224      0.99965     2.18335    0.00925     3.19224
      C    2   -0.17842      0.99960     2.16869    0.01013     3.17842
      C    3    0.08779      0.99947     1.89313    0.01960     2.91221
      C    4   -0.19215      0.99960     2.18416    0.00840     3.19215
      C    5    0.24585      0.99964     1.73213    0.02238     2.75415
      O    6   -0.27699      0.99988     3.26957    0.00754     4.27699
      O    7   -0.30119      0.99986     3.29063    0.01070     4.30119
      C    8   -0.01690      0.99955     2.00354    0.01381     3.01690
      C    9   -0.03142      0.99959     2.01943    0.01240     3.03142
      O   10   -0.37343      0.99990     3.36646    0.00707     4.37343
      H   11    0.09580      0.00000     0.40288    0.00132     0.40420
      H   12    0.09628      0.00000     0.40186    0.00185     0.40372
      H   13    0.10492      0.00000     0.39367    0.00141     0.39508
      H   14    0.10185      0.00000     0.39582    0.00233     0.39815
      H   15    0.10101      0.00000     0.39758    0.00142     0.39899
      H   16    0.10149      0.00000     0.39739    0.00112     0.39851
      H   17    0.04457      0.00000     0.45328    0.00215     0.45543
      H   18    0.08005      0.00000     0.41855    0.00140     0.41995
      H   19    0.09404      0.00000     0.40457    0.00139     0.40596
      H   20    0.08125      0.00000     0.41516    0.00358     0.41875
      H   21    0.09429      0.00000     0.40437    0.00134     0.40571
      H   22    0.23353      0.00000     0.26358    0.00289     0.26647
 =======================================================================
   * Total *   -0.00000      9.99673    28.85982    0.14346    39.00000

 Normal termination of Gaussian 16 at Tue Dec  8 13:23:56 2020.
