 Gaussian 16, Revision A.03,

 -----------------------------------------------------------
 # opt freq B3LYP/6-31G(d) empiricaldispersion=gd3bj scf=xqc
 -----------------------------------------------------------

 ------------------------------
 CID_80683093_JID_9812_neutraal
 ------------------------------
 Symbolic Z-matrix:
 Charge =  0 Multiplicity = 1

 SCF Done:  E(RB3LYP) =  -1274.05098773     A.U. after   15 cycles
 SCF Done:  E(RB3LYP) =  -1274.05263657     A.U. after   14 cycles
 SCF Done:  E(RB3LYP) =  -1274.05616529     A.U. after   14 cycles
 SCF Done:  E(RB3LYP) =  -1274.05898619     A.U. after   14 cycles
 SCF Done:  E(RB3LYP) =  -1274.06020621     A.U. after   13 cycles
 SCF Done:  E(RB3LYP) =  -1274.06264847     A.U. after   14 cycles
 SCF Done:  E(RB3LYP) =  -1274.06105971     A.U. after   12 cycles
 SCF Done:  E(RB3LYP) =  -1274.06489454     A.U. after   13 cycles
 SCF Done:  E(RB3LYP) =  -1274.07161868     A.U. after   15 cycles
 SCF Done:  E(RB3LYP) =  -1274.00685709     A.U. after   15 cycles
 SCF Done:  E(RB3LYP) =  -1274.08984968     A.U. after    7 cycles
 SCF Done:  E(RB3LYP) =  -1274.08984975     A.U. after    7 cycles
 SCF Done:  E(RB3LYP) =  -1274.08984983     A.U. after    7 cycles
 SCF Done:  E(RB3LYP) =  -1274.08984990     A.U. after    7 cycles
 SCF Done:  E(RB3LYP) =  -1274.08984992     A.U. after    6 cycles
 Optimization completed.
    -- Stationary point found.
 Normal termination of Gaussian 16 at Sat Dec 12 10:44:28 2020.

 --------------------------------------------------------------------
 #N Geom=AllCheck Guess=TCheck SCRF=Check GenChk RB3LYP/6-31G(d) Freq
 --------------------------------------------------------------------

 Structure from the checkpoint file:  "JID_9812.chk"
 ------------------------------
 CID_80683093_JID_9812_neutraal
 ------------------------------
 Charge =  0 Multiplicity = 1

 SCF Done:  E(RB3LYP) =  -1274.08984992     A.U. after    1 cycles

  Exact polarizability: 201.059  -0.564 154.554   0.764  15.298 134.250
 Approx polarizability: 272.670   2.133 223.826   0.319  33.477 223.195

                      1                      2                      3
                      A                      A                      A
 Frequencies --     14.9214                28.0953                29.4919
 Red. masses --      4.9260                 4.7770                 4.8683
 Frc consts  --      0.0006                 0.0022                 0.0025
 IR Inten    --      1.9315                 1.3758                 0.2382

                      4                      5                      6
                      A                      A                      A
 Frequencies --     45.6588                51.5904                55.4306
 Red. masses --      3.0811                 1.2522                 5.7828
 Frc consts  --      0.0038                 0.0020                 0.0105
 IR Inten    --      2.0673                 1.3874                 5.4125

                      7                      8                      9
                      A                      A                      A
 Frequencies --     62.0210               104.1507               115.3697
 Red. masses --      6.7983                 4.3983                 4.5749
 Frc consts  --      0.0154                 0.0281                 0.0359
 IR Inten    --      0.8398                 3.0606                 0.6602

                     10                     11                     12
                      A                      A                      A
 Frequencies --    164.9911               176.5656               186.6715
 Red. masses --      4.0781                 3.6892                 2.8585
 Frc consts  --      0.0654                 0.0678                 0.0587
 IR Inten    --      3.2352                 3.4008                 2.9166

                     13                     14                     15
                      A                      A                      A
 Frequencies --    193.5036               201.5095               261.5191
 Red. masses --      3.6912                 1.2058                 3.0438
 Frc consts  --      0.0814                 0.0288                 0.1227
 IR Inten    --      7.9793                 0.7511                 1.7627

                     16                     17                     18
                      A                      A                      A
 Frequencies --    264.2888               284.6627               299.0363
 Red. masses --      3.0829                 3.4126                 3.5148
 Frc consts  --      0.1269                 0.1629                 0.1852
 IR Inten    --      5.3862                 1.2451                 8.5066

                     19                     20                     21
                      A                      A                      A
 Frequencies --    313.6266               344.3944               359.7294
 Red. masses --      3.2702                 2.7812                 3.2956
 Frc consts  --      0.1895                 0.1944                 0.2513
 IR Inten    --      4.0677                 1.9142                 0.7788

                     22                     23                     24
                      A                      A                      A
 Frequencies --    372.6071               393.9147               410.3493
 Red. masses --      2.4431                 1.4178                 2.6071
 Frc consts  --      0.1998                 0.1296                 0.2587
 IR Inten    --      0.6501                67.8497                 2.3029

                     25                     26                     27
                      A                      A                      A
 Frequencies --    460.8222               467.8896               478.8846
 Red. masses --      5.5973                 3.5373                 3.3311
 Frc consts  --      0.7003                 0.4563                 0.4501
 IR Inten    --     34.9040                 8.9089                16.0606

                     28                     29                     30
                      A                      A                      A
 Frequencies --    505.6936               546.9981               592.2742
 Red. masses --      3.1819                 3.4299                 2.8617
 Frc consts  --      0.4794                 0.6046                 0.5915
 IR Inten    --      8.7597                18.2392                 0.6074

                     31                     32                     33
                      A                      A                      A
 Frequencies --    610.5903               638.9428               644.7126
 Red. masses --      3.6210                 2.6067                 2.8377
 Frc consts  --      0.7954                 0.6270                 0.6950
 IR Inten    --      2.6032                48.6653                21.7680

                     34                     35                     36
                      A                      A                      A
 Frequencies --    653.8903               692.3530               698.7106
 Red. masses --      3.5828                 2.5619                 2.6654
 Frc consts  --      0.9026                 0.7235                 0.7667
 IR Inten    --     10.6763                48.2937                10.5288

                     37                     38                     39
                      A                      A                      A
 Frequencies --    741.8214               750.4442               782.0564
 Red. masses --      4.5406                 3.6177                 1.4203
 Frc consts  --      1.4722                 1.2004                 0.5118
 IR Inten    --     90.5727                 7.2189                16.4091

                     40                     41                     42
                      A                      A                      A
 Frequencies --    810.6751               847.7415               890.7577
 Red. masses --      2.8374                 2.3845                 2.1546
 Frc consts  --      1.0987                 1.0097                 1.0072
 IR Inten    --     16.0403                13.7216                28.8207

                     43                     44                     45
                      A                      A                      A
 Frequencies --    896.8123               912.6618               953.8350
 Red. masses --      1.6127                 1.6344                 2.6472
 Frc consts  --      0.7642                 0.8021                 1.4190
 IR Inten    --      4.9878                17.8297                13.8833

                     46                     47                     48
                      A                      A                      A
 Frequencies --    975.3603               989.5092               997.7848
 Red. masses --      1.3829                 1.6572                 1.5408
 Frc consts  --      0.7752                 0.9560                 0.9038
 IR Inten    --     32.9850               133.4516                24.0677

                     49                     50                     51
                      A                      A                      A
 Frequencies --   1010.3196              1024.9459              1025.4533
 Red. masses --      3.9890                 1.9883                 2.0837
 Frc consts  --      2.3990                 1.2307                 1.2910
 IR Inten    --     23.8557                17.3870                 9.3503

                     52                     53                     54
                      A                      A                      A
 Frequencies --   1058.1604              1080.1033              1091.1294
 Red. masses --      3.2464                 1.5542                 1.7304
 Frc consts  --      2.1417                 1.0683                 1.2138
 IR Inten    --      9.0535                 7.9877                46.7531

                     55                     56                     57
                      A                      A                      A
 Frequencies --   1113.4252              1132.7315              1146.2995
 Red. masses --      7.5241                 2.1216                 2.4953
 Frc consts  --      5.4957                 1.6039                 1.9318
 IR Inten    --    156.0707                10.7819                10.1537

                     58                     59                     60
                      A                      A                      A
 Frequencies --   1158.4011              1180.1944              1190.5170
 Red. masses --      1.3262                 1.2648                 1.6304
 Frc consts  --      1.0485                 1.0379                 1.3615
 IR Inten    --     11.7215                49.9846                 8.5023

                     61                     62                     63
                      A                      A                      A
 Frequencies --   1205.8138              1220.1474              1258.9616
 Red. masses --      1.4695                 1.2874                 1.3889
 Frc consts  --      1.2588                 1.1293                 1.2970
 IR Inten    --      4.8555                 4.9830                 4.2507

                     64                     65                     66
                      A                      A                      A
 Frequencies --   1282.6236              1285.9628              1297.2756
 Red. masses --      1.4959                 4.2204                 1.4883
 Frc consts  --      1.4499                 4.1121                 1.4757
 IR Inten    --     16.0123               130.4004                66.7037

                     67                     68                     69
                      A                      A                      A
 Frequencies --   1333.6238              1345.7425              1356.2046
 Red. masses --      1.4235                 3.1672                 1.3589
 Frc consts  --      1.4917                 3.3795                 1.4726
 IR Inten    --     27.9291                14.6679                61.7517

                     70                     71                     72
                      A                      A                      A
 Frequencies --   1367.1127              1375.6138              1382.2872
 Red. masses --      1.5457                 1.2331                 1.5177
 Frc consts  --      1.7021                 1.3749                 1.7085
 IR Inten    --      2.7608                13.5814                93.6749

                     73                     74                     75
                      A                      A                      A
 Frequencies --   1408.7050              1410.6348              1425.6283
 Red. masses --      1.8543                 1.3035                 2.0617
 Frc consts  --      2.1681                 1.5283                 2.4689
 IR Inten    --      2.2392                10.5056                 2.3936

                     76                     77                     78
                      A                      A                      A
 Frequencies --   1436.4197              1459.3739              1469.8553
 Red. masses --      3.2684                 1.6106                 1.6719
 Frc consts  --      3.9732                 2.0210                 2.1282
 IR Inten    --     38.9879                31.5974                25.8553

                     79                     80                     81
                      A                      A                      A
 Frequencies --   1480.0456              1484.2288              1486.6957
 Red. masses --      1.0831                 1.0510                 1.0693
 Frc consts  --      1.3979                 1.3642                 1.3925
 IR Inten    --     15.5229                 6.6512                14.1941

                     82                     83                     84
                      A                      A                      A
 Frequencies --   1492.5050              1498.7621              1502.4597
 Red. masses --      1.9704                 1.0940                 1.1484
 Frc consts  --      2.5860                 1.4478                 1.5274
 IR Inten    --     19.9392                 9.7400                12.0963

                     85                     86                     87
                      A                      A                      A
 Frequencies --   1509.4922              1516.4589              1526.2894
 Red. masses --      1.0623                 1.1990                 1.8352
 Frc consts  --      1.4262                 1.6245                 2.5189
 IR Inten    --      8.8931                12.5651                69.0035

                     88                     89                     90
                      A                      A                      A
 Frequencies --   1546.9264              1621.4983              1713.6166
 Red. masses --      1.1828                 5.0130                 1.0896
 Frc consts  --      1.6677                 7.7657                 1.8852
 IR Inten    --      5.1480                10.6199                30.1732

                     91                     92                     93
                      A                      A                      A
 Frequencies --   1747.6844              3008.4789              3048.0193
 Red. masses --      6.6749                 1.0824                 1.0728
 Frc consts  --     12.0121                 5.7721                 5.8720
 IR Inten    --    338.0566                27.4241                34.3035

                     94                     95                     96
                      A                      A                      A
 Frequencies --   3056.8440              3061.8536              3068.2014
 Red. masses --      1.0671                 1.0382                 1.0609
 Frc consts  --      5.8749                 5.7348                 5.8843
 IR Inten    --     51.9515                60.4489                19.9154

                     97                     98                     99
                      A                      A                      A
 Frequencies --   3082.2608              3086.9098              3111.8166
 Red. masses --      1.0506                 1.0415                 1.1038
 Frc consts  --      5.8807                 5.8474                 6.2973
 IR Inten    --     10.8959                 8.6616                11.1017

                    100                    101                    102
                      A                      A                      A
 Frequencies --   3123.7827              3133.5911              3167.1144
 Red. masses --      1.0952                 1.0984                 1.1054
 Frc consts  --      6.2965                 6.3550                 6.5330
 IR Inten    --     20.7767                17.9920                 8.6417

                    103                    104                    105
                      A                      A                      A
 Frequencies --   3170.7083              3178.1105              3187.6668
 Red. masses --      1.1015                 1.0931                 1.1063
 Frc consts  --      6.5246                 6.5050                 6.6232
 IR Inten    --      5.2193                 5.9535                 0.3936

                    106                    107                    108
                      A                      A                      A
 Frequencies --   3190.8108              3254.9286              3262.9020
 Red. masses --      1.1082                 1.0970                 1.0973
 Frc consts  --      6.6477                 6.8477                 6.8833
 IR Inten    --      1.1766                 0.9502                 2.2978

                    109                    110                    111
                      A                      A                      A
 Frequencies --   3479.2155              3561.2846              3585.4846
 Red. masses --      1.0500                 1.0929                 1.0749
 Frc consts  --      7.4884                 8.1663                 8.1418
 IR Inten    --     29.6464                36.5630                20.4306

 - Thermochemistry -
 -------------------
 Temperature   298.150 Kelvin.  Pressure   1.00000 Atm.
 Atom     1 has atomic number  6 and mass  12.00000

 Molecular mass:   288.12561 amu.
 Principal axes and moments of inertia in atomic units:
                           1         2         3
     Eigenvalues --  3255.051299316.46766**********
           X            0.99998   0.00044   0.00562
           Y           -0.00069   0.99899   0.04492
           Z           -0.00560  -0.04492   0.99897
 This molecule is an asymmetric top.
 Rotational symmetry number  1.
 Warning -- assumption of classical behavior for rotation
           may cause significant error
 Rotational temperatures (Kelvin)      0.02661     0.00930     0.00811
 Rotational constants (GHZ):           0.55444     0.19372     0.16903
 Zero-point vibrational energy     859849.6 (Joules/Mol)
                                  205.50900 (Kcal/Mol)
 Warning -- explicit consideration of  31 degrees of freedom as
           vibrations may cause significant error
 Vibrational temperatures:     21.47    40.42    42.43    65.69    74.23
          (Kelvin)             79.75    89.23   149.85   165.99   237.39
                              254.04   268.58   278.41   289.93   376.27
                              380.25   409.57   430.25   451.24   495.51
                              517.57   536.10   566.76   590.40   663.02
                              673.19   689.01   727.58   787.01   852.15
                              878.50   919.30   927.60   940.80   996.14
                             1005.29  1067.32  1079.72  1125.20  1166.38
                             1219.71  1281.60  1290.31  1313.12  1372.36
                             1403.33  1423.68  1435.59  1453.62  1474.67
                             1475.40  1522.46  1554.03  1569.89  1601.97
                             1629.75  1649.27  1666.68  1698.04  1712.89
                             1734.90  1755.52  1811.36  1845.41  1850.21
                             1866.49  1918.79  1936.22  1951.28  1966.97
                             1979.20  1988.80  2026.81  2029.59  2051.16
                             2066.69  2099.71  2114.79  2129.46  2135.47
                             2139.02  2147.38  2156.38  2161.70  2171.82
                             2181.85  2195.99  2225.68  2332.97  2465.51
                             2514.53  4328.53  4385.42  4398.12  4405.32
                             4414.46  4434.69  4441.37  4477.21  4494.43
                             4508.54  4556.77  4561.94  4572.59  4586.34
                             4590.87  4683.12  4694.59  5005.82  5123.89
                             5158.71

 Zero-point correction=                           0.327499 (Hartree/Particle)
 Thermal correction to Energy=                    0.347926
 Thermal correction to Enthalpy=                  0.348870
 Thermal correction to Gibbs Free Energy=         0.275248
 Sum of electronic and zero-point Energies=          -1273.762350
 Sum of electronic and thermal Energies=             -1273.741924
 Sum of electronic and thermal Enthalpies=           -1273.740980
 Sum of electronic and thermal Free Energies=        -1273.814602

                     E (Thermal)             CV                S
                      KCal/Mol        Cal/Mol-Kelvin    Cal/Mol-Kelvin
 Total                  218.327             75.043            154.951
 Electronic               0.000              0.000              0.000
 Translational            0.889              2.981             42.872
 Rotational               0.889              2.981             34.137
 Vibrational            216.549             69.082             77.942
 Vibration     1          0.593              1.986              7.216
 Vibration     2          0.593              1.984              5.960
 Vibration     3          0.593              1.984              5.863
 Vibration     4          0.595              1.979              4.997
 Vibration     5          0.596              1.977              4.755
 Vibration     6          0.596              1.975              4.614
 Vibration     7          0.597              1.972              4.392
 Vibration     8          0.605              1.946              3.375
 Vibration     9          0.608              1.937              3.176
 Vibration    10          0.623              1.885              2.492
 Vibration    11          0.628              1.871              2.364
 Vibration    12          0.632              1.858              2.261
 Vibration    13          0.635              1.849              2.194
 Vibration    14          0.638              1.838              2.119
 Vibration    15          0.669              1.743              1.652
 Vibration    16          0.671              1.738              1.633
 Vibration    17          0.683              1.702              1.505
 Vibration    18          0.692              1.675              1.422
 Vibration    19          0.701              1.648              1.343
 Vibration    20          0.723              1.587              1.192
 Vibration    21          0.734              1.555              1.123
 Vibration    22          0.744              1.528              1.069
 Vibration    23          0.761              1.483              0.985
 Vibration    24          0.775              1.448              0.925
 Vibration    25          0.819              1.337              0.764
 Vibration    26          0.825              1.321              0.743
 Vibration    27          0.835              1.297              0.713
 Vibration    28          0.861              1.237              0.644
 Vibration    29          0.902              1.146              0.550
 Vibration    30          0.950              1.048              0.463
 Vibration    31          0.970              1.009              0.432

                           ! Non-Optimized Parameters !
 Normal termination of Gaussian 16 at Sat Dec 12 11:02:53 2020.

 ----------------------------------------------------------------------
 # B3LYP/6-311++G(d,p) empiricaldispersion=gd3bj scf=xqc pop=npa geom=c
 heck
 ----------------------------------------------------------------------

 --------------------------------------
 CID_80683093_JID_9812_Energie_neutraal
 --------------------------------------
 Structure from the checkpoint file:  "JID_9812.chk"
 Charge =  0 Multiplicity = 1

 SCF Done:  E(RB3LYP) =  -1274.37493068     A.U. after   16 cycles
 Normal termination of Gaussian 16 at Sat Dec 12 11:12:09 2020.

 ----------------------------------------------------------------------
 # B3LYP/6-311++G(d,p) empiricaldispersion=gd3bj scf=xqc pop=npa geom=c
 heck
 ----------------------------------------------------------------------

 ------------------------------------
 CID_80683093_JID_9812_Energie_kation
 ------------------------------------
 Structure from the checkpoint file:  "JID_9812.chk"
 Charge =  1 Multiplicity = 2

 SCF Done:  E(UB3LYP) =  -1274.08009735     A.U. after   32 cycles
 Normal termination of Gaussian 16 at Sat Dec 12 11:38:04 2020.
 Gaussian 16:  ES64L-G16RevA.03 25-Dec-2016

 ----------------------------------------------------------------------
 # B3LYP/6-311++G(d,p) empiricaldispersion=gd3bj scf=xqc pop=npa geom=c
 heck
 ----------------------------------------------------------------------

 -----------------------------------
 CID_80683093_JID_9812_Energie_anion
 -----------------------------------
 Structure from the checkpoint file:  "JID_9812.chk"
 Charge = -1 Multiplicity = 2

                         Standard orientation:
 ---------------------------------------------------------------------
 Center     Atomic      Atomic             Coordinates (Angstroms)
 Number     Number       Type             X           Y           Z
 ---------------------------------------------------------------------
      1          6           0        5.615658   -1.420774   -0.683951
      2          7           0        4.335313   -0.987279   -0.166601
      3          6           0        4.062496    0.120152    0.576429
      4          6           0        2.691055    0.152560    0.773008
      5          6           0        2.223888   -0.995756    0.083678
      6          7           0        3.218094   -1.680993   -0.483499
      7          6           0        1.866048    1.175176    1.494707
      8          6           0        1.355979    2.305660    0.575679
      9          7           0        0.770964    1.811548   -0.664591
     10          6           0       -0.510876    1.610602   -1.067741
     11          8           0       -0.738396    1.201517   -2.209050
     12          6           0       -1.679981    1.940768   -0.120376
     13          6           0       -3.003801    1.373410   -0.688473
     14          6           0       -3.043736   -0.113378   -1.060992
     15         16           0       -2.754513   -1.245355    0.322521
     16          8           0       -1.302457   -1.307749    0.612168
     17          8           0       -3.693230   -0.921985    1.412049
     18          6           0       -3.206271   -2.850537   -0.367906
     19          7           0       -1.386604    1.598064    1.271296
     20          1           0        5.680457   -2.507578   -0.602316
     21          1           0        5.733552   -1.135298   -1.735294
     22          1           0        6.413398   -0.962847   -0.094542
     23          1           0        4.849339    0.779638    0.916104
     24          1           0        1.201673   -1.344400    0.003198
     25          1           0        0.997513    0.691492    1.949516
     26          1           0        2.440119    1.633634    2.309845
     27          1           0        0.614849    2.899170    1.107595
     28          1           0        2.194351    2.955360    0.294770
     29          1           0        1.427844    1.465181   -1.354266
     30          1           0       -1.789128    3.035780   -0.158306
     31          1           0       -3.800537    1.589050    0.032305
     32          1           0       -3.243777    1.908817   -1.612832
     33          1           0       -4.037899   -0.373224   -1.439149
     34          1           0       -2.285703   -0.333708   -1.813797
     35          1           0       -4.269004   -2.854542   -0.616596
     36          1           0       -2.589630   -3.047500   -1.247070
     37          1           0       -2.995425   -3.585118    0.412254
     38          1           0       -2.213620    1.755407    1.844034
     39          1           0       -1.170634    0.605399    1.342276
 ---------------------------------------------------------------------

 SCF Done:  E(UB3LYP) =  -1274.36688406     A.U. after   33 cycles
 SCF Done:  E(UB3LYP) =  -1274.36688406     a.u. after    1 cycles

 The electronic state is 2-A.
 Alpha  occ. eigenvalues --  -88.96187 -19.03011 -19.02904 -18.99956 -14.29997
 Alpha  occ. eigenvalues --  -14.24919 -14.23547 -14.20802 -10.18852 -10.13328
 Alpha  occ. eigenvalues --  -10.12611 -10.12470 -10.12131 -10.12100 -10.11358
 Alpha  occ. eigenvalues --  -10.10120 -10.09105 -10.08878 -10.08081  -8.02694
 Alpha  occ. eigenvalues --   -5.98958  -5.98857  -5.98773  -1.02138  -0.95899
 Alpha  occ. eigenvalues --   -0.95235  -0.91736  -0.83825  -0.80907  -0.75316
 Alpha  occ. eigenvalues --   -0.72711  -0.71470  -0.68664  -0.66656  -0.63002
 Alpha  occ. eigenvalues --   -0.61205  -0.57248  -0.55632  -0.51337  -0.49364
 Alpha  occ. eigenvalues --   -0.48314  -0.47037  -0.43838  -0.43116  -0.42681
 Alpha  occ. eigenvalues --   -0.40756  -0.40315  -0.39482  -0.39071  -0.38918
 Alpha  occ. eigenvalues --   -0.36982  -0.36881  -0.36169  -0.35428  -0.34638
 Alpha  occ. eigenvalues --   -0.34177  -0.33916  -0.33530  -0.32337  -0.31288
 Alpha  occ. eigenvalues --   -0.31079  -0.30358  -0.29733  -0.28843  -0.28444
 Alpha  occ. eigenvalues --   -0.27027  -0.26532  -0.24757  -0.23802  -0.21982
 Alpha  occ. eigenvalues --   -0.21249  -0.20171  -0.17302  -0.17214  -0.16414
 Alpha  occ. eigenvalues --   -0.16158  -0.14940   0.03459
 Alpha virt. eigenvalues --    0.04481   0.05725   0.06602   0.07396   0.07506
 Alpha virt. eigenvalues --    0.08440   0.08507   0.09080   0.09717   0.09868
 Alpha virt. eigenvalues --    0.09913   0.10382   0.10585   0.10918   0.11376

  Beta  occ. eigenvalues --  -88.96184 -19.02997 -19.02894 -18.99950 -14.29997
  Beta  occ. eigenvalues --  -14.24916 -14.23542 -14.20794 -10.18849 -10.13322
  Beta  occ. eigenvalues --  -10.12575 -10.12421 -10.12122 -10.12073 -10.11336
  Beta  occ. eigenvalues --  -10.10105 -10.09102 -10.08873 -10.08082  -8.02690
  Beta  occ. eigenvalues --   -5.98956  -5.98855  -5.98769  -1.02104  -0.95894
  Beta  occ. eigenvalues --   -0.95226  -0.91702  -0.83816  -0.80888  -0.75303
  Beta  occ. eigenvalues --   -0.72668  -0.71458  -0.68611  -0.66636  -0.62959
  Beta  occ. eigenvalues --   -0.61168  -0.57215  -0.55604  -0.51300  -0.49346
  Beta  occ. eigenvalues --   -0.48277  -0.47009  -0.43802  -0.43069  -0.42639
  Beta  occ. eigenvalues --   -0.40734  -0.40291  -0.39456  -0.39051  -0.38890
  Beta  occ. eigenvalues --   -0.36949  -0.36855  -0.36140  -0.35392  -0.34607
  Beta  occ. eigenvalues --   -0.34149  -0.33897  -0.33495  -0.32309  -0.31266
  Beta  occ. eigenvalues --   -0.31052  -0.30336  -0.29708  -0.28823  -0.28420
  Beta  occ. eigenvalues --   -0.27000  -0.26522  -0.24734  -0.23790  -0.21964
  Beta  occ. eigenvalues --   -0.21226  -0.20163  -0.17292  -0.17197  -0.16401
  Beta  occ. eigenvalues --   -0.16145  -0.14931
  Beta virt. eigenvalues --    0.05555   0.05841   0.06301   0.07003   0.07647
  Beta virt. eigenvalues --    0.08041   0.08542   0.08949   0.09550   0.09903
  Beta virt. eigenvalues --    0.10028   0.10058   0.10626   0.10755   0.11077

 Mulliken charges and spin densities:
               1          2
     1  C    0.708070  -1.025892
     2  N    0.155599  -0.024571
     3  C    0.076010  -0.129730
     4  C    0.234779  -0.192346
     5  C   -0.079835  -0.202979
     6  N   -0.316930   0.206053
     7  C   -0.667033  -0.039818
     8  C    0.170171  -0.497046
     9  N   -0.128250   0.040061
    10  C   -0.253243  -0.280394
    11  O   -0.282667   0.003265
    12  C    0.263277   0.536103
    13  C    0.012652  -0.958653
    14  C   -0.476136   0.213710
    15  S    0.775642  -0.937308
    16  O   -0.137504   0.036350
    17  O   -0.122261   0.036324
    18  C   -0.080539  -0.519336
    19  N   -0.491385   0.006585
    20  H   -0.017583   0.182862
    21  H   -0.049795   0.229230
    22  H   -0.479009   0.633002
    23  H   -0.758988   0.954935
    24  H    0.396718  -0.097180
    25  H    0.077700   0.124582
    26  H    0.071643   0.092012
    27  H    0.178526   0.021823
    28  H   -0.034019   0.224528
    29  H    0.285143  -0.001499
    30  H   -0.023601   0.252813
    31  H    0.001322   0.210324
    32  H   -0.032449   0.227073
    33  H   -0.492234   0.733574
    34  H    0.333344  -0.071747
    35  H   -0.469012   0.690787
    36  H   -0.055023   0.257759
    37  H    0.047482   0.155337
    38  H    0.220733   0.047566
    39  H    0.438686  -0.138160
 Sum of Mulliken charges =  -1.00000   1.00000

 Dipole moment (field-independent basis, Debye):
    X=             -1.1100    Y=              1.9932    Z=              1.4107  Tot=              2.6824
 Quadrupole moment (field-independent basis, Debye-Ang):
   XX=           -249.3033   YY=           -158.3932   ZZ=           -160.1228
   XY=             -6.9439   XZ=             -8.0307   YZ=              0.2774

 Summary of Natural Population Analysis:

                                       Natural Population
                Natural  -----------------------------------------------
    Atom  No    Charge         Core      Valence    Rydberg      Total
 -----------------------------------------------------------------------
      C    1   -0.17155      0.99964     2.16374    0.00817     3.17155
      N    2   -0.10792      0.99967     2.59570    0.01255     3.60792
      C    3   -0.00766      0.99949     1.99646    0.01171     3.00766
      C    4   -0.07975      0.99953     2.06967    0.01056     3.07975
      C    5   -0.01231      0.99957     1.99907    0.01368     3.01231
      N    6   -0.15378      0.99973     2.64274    0.01130     3.65378
      C    7   -0.20260      0.99959     2.19492    0.00808     3.20260
      C    8   -0.08423      0.99961     2.07414    0.01049     3.08423
      N    9   -0.31087      0.99966     2.80157    0.00964     3.81087
      C   10    0.34493      0.99964     1.63344    0.02199     2.65507
      O   11   -0.33577      0.99988     3.33027    0.00562     4.33577
      C   12   -0.05080      0.99956     2.03892    0.01231     3.05080
      C   13   -0.20309      0.99961     2.19106    0.01242     3.20309
      C   14   -0.29400      0.99956     2.28252    0.01191     3.29400
      S   15    1.01619      4.99929     1.89277    0.09176     6.98381
      O   16   -0.48080      0.99991     3.47495    0.00595     4.48080
      O   17   -0.47090      0.99991     3.46501    0.00599     4.47090
      C   18   -0.38921      0.99961     2.38261    0.00698     3.38921
      N   19   -0.43565      0.99977     2.92492    0.01096     3.93565
      H   20    0.10383      0.00000     0.39490    0.00127     0.39617
      H   21    0.09746      0.00000     0.40146    0.00109     0.40254
      H   22    0.10286      0.00000     0.39524    0.00189     0.39714
      H   23    0.10587      0.00000     0.39227    0.00187     0.39413
      H   24    0.11082      0.00000     0.38765    0.00153     0.38918
      H   25    0.10964      0.00000     0.38891    0.00145     0.39036
      H   26    0.10205      0.00000     0.39700    0.00095     0.39795
      H   27    0.11172      0.00000     0.38706    0.00122     0.38828
      H   28    0.09148      0.00000     0.40737    0.00115     0.40852
      H   29    0.19667      0.00000     0.30070    0.00262     0.30333
      H   30    0.10330      0.00000     0.39541    0.00129     0.39670
      H   31    0.10572      0.00000     0.39310    0.00118     0.39428
      H   32    0.11451      0.00000     0.38428    0.00121     0.38549
      H   33    0.11926      0.00000     0.37810    0.00264     0.38074
      H   34    0.13078      0.00000     0.36758    0.00164     0.36922
      H   35    0.11952      0.00000     0.37771    0.00277     0.38048
      H   36    0.11665      0.00000     0.38224    0.00111     0.38335
      H   37    0.11918      0.00000     0.37997    0.00086     0.38082
      H   38    0.17839      0.00000     0.32006    0.00155     0.32161
      H   39    0.19007      0.00000     0.30746    0.00247     0.30993
 =======================================================================
   * Total *   -0.00000     22.99323    53.69296    0.31381    77.00000

 Normal termination of Gaussian 16 at Sat Dec 12 12:05:00 2020.
