 Gaussian 16, Revision A.03,

 -----------------------------------------------------------
 # opt freq B3LYP/6-31G(d) empiricaldispersion=gd3bj scf=xqc
 -----------------------------------------------------------

 -------------------------------
 CID_130861235_JID_4615_neutraal
 -------------------------------
 Symbolic Z-matrix:
 Charge =  0 Multiplicity = 1

 SCF Done:  E(RB3LYP) =  -1004.49113864     A.U. after   17 cycles
 SCF Done:  E(RB3LYP) =  -1004.49781819     A.U. after   13 cycles
 SCF Done:  E(RB3LYP) =  -1004.49863770     A.U. after   13 cycles
 SCF Done:  E(RB3LYP) =  -1004.49896712     A.U. after   12 cycles
 SCF Done:  E(RB3LYP) =  -1004.49885477     A.U. after   12 cycles
 SCF Done:  E(RB3LYP) =  -1004.49894467     A.U. after   13 cycles
 SCF Done:  E(RB3LYP) =  -1004.49911816     A.U. after    9 cycles
 SCF Done:  E(RB3LYP) =  -1004.49918601     A.U. after   12 cycles
 SCF Done:  E(RB3LYP) =  -1004.49921399     A.U. after   12 cycles
 SCF Done:  E(RB3LYP) =  -1004.49925810     A.U. after   10 cycles
 SCF Done:  E(RB3LYP) =  -1004.49985720     A.U. after   12 cycles
 SCF Done:  E(RB3LYP) =  -1004.49985969     A.U. after   10 cycles
 SCF Done:  E(RB3LYP) =  -1004.49985996     A.U. after    8 cycles
 SCF Done:  E(RB3LYP) =  -1004.49986009     A.U. after    9 cycles
 SCF Done:  E(RB3LYP) =  -1004.49986010     A.U. after    6 cycles
 Optimization completed.
    -- Stationary point found.
 Normal termination of Gaussian 16 at Thu Dec 10 10:25:15 2020.

 --------------------------------------------------------------------
 #N Geom=AllCheck Guess=TCheck SCRF=Check GenChk RB3LYP/6-31G(d) Freq
 --------------------------------------------------------------------

 Structure from the checkpoint file:  "JID_4615.chk"
 -------------------------------
 CID_130861235_JID_4615_neutraal
 -------------------------------
 Charge =  0 Multiplicity = 1

 SCF Done:  E(RB3LYP) =  -1004.49986011     A.U. after    1 cycles

  Exact polarizability: 152.204   2.127 124.178  -4.436  -1.828  96.500
 Approx polarizability: 202.600   7.390 215.452  -7.356  -8.932 156.522

                      1                      2                      3
                      A                      A                      A
 Frequencies --     24.2722                33.8975                81.9539
 Red. masses --      5.2104                 6.5179                 1.1033
 Frc consts  --      0.0018                 0.0044                 0.0044
 IR Inten    --      3.4553                 1.6230                 0.0244

                      4                      5                      6
                      A                      A                      A
 Frequencies --    102.4850               111.9956               141.0346
 Red. masses --      3.0366                 6.3914                 4.8897
 Frc consts  --      0.0188                 0.0472                 0.0573
 IR Inten    --      1.7481                 1.7022                 2.2004

                      7                      8                      9
                      A                      A                      A
 Frequencies --    168.0281               225.2113               260.8135
 Red. masses --      4.6873                 3.4982                 2.0044
 Frc consts  --      0.0780                 0.1045                 0.0803
 IR Inten    --      3.5933                 2.7196                 1.2649

                     10                     11                     12
                      A                      A                      A
 Frequencies --    280.8928               285.0494               295.0316
 Red. masses --      1.9818                 2.1862                 2.4792
 Frc consts  --      0.0921                 0.1047                 0.1271
 IR Inten    --      0.6176                 1.3072                 1.9134

                     13                     14                     15
                      A                      A                      A
 Frequencies --    346.3928               384.0927               400.7149
 Red. masses --      2.9823                 3.4971                 4.9866
 Frc consts  --      0.2108                 0.3040                 0.4718
 IR Inten    --      1.2354                 1.0826                10.5813

                     16                     17                     18
                      A                      A                      A
 Frequencies --    434.6439               524.9382               526.8702
 Red. masses --      4.6130                 2.5981                 4.9131
 Frc consts  --      0.5135                 0.4218                 0.8036
 IR Inten    --      1.9214                 5.6767                 3.8234

                     19                     20                     21
                      A                      A                      A
 Frequencies --    559.2454               677.5704               681.9644
 Red. masses --      8.6239                 7.1131                 3.7132
 Frc consts  --      1.5891                 1.9241                 1.0175
 IR Inten    --      2.9122                 5.9811                 1.8417

                     22                     23                     24
                      A                      A                      A
 Frequencies --    701.6509               720.1357               743.3282
 Red. masses --      7.2140                 5.2067                 4.1839
 Frc consts  --      2.0925                 1.5909                 1.3620
 IR Inten    --      0.7111                 5.9599                 5.0058

                     25                     26                     27
                      A                      A                      A
 Frequencies --    802.1797               865.5779               881.3179
 Red. masses --      6.1524                 1.9270                 1.6342
 Frc consts  --      2.3326                 0.8507                 0.7479
 IR Inten    --      3.4507                35.0152                 2.3167

                     28                     29                     30
                      A                      A                      A
 Frequencies --    905.4343               952.7303               996.4158
 Red. masses --      2.7519                 2.2602                 3.4404
 Frc consts  --      1.3292                 1.2088                 2.0125
 IR Inten    --      0.7460                 3.6081                49.6640

                     31                     32                     33
                      A                      A                      A
 Frequencies --   1028.8300              1040.1612              1058.2281
 Red. masses --      2.0242                 2.5298                 1.8976
 Frc consts  --      1.2624                 1.6126                 1.2520
 IR Inten    --      5.8168                64.9701                 0.9410

                     34                     35                     36
                      A                      A                      A
 Frequencies --   1070.8249              1095.9629              1106.5546
 Red. masses --      4.3864                 1.7585                 1.3687
 Frc consts  --      2.9634                 1.2445                 0.9874
 IR Inten    --     27.3334                 4.5458                 3.5749

                     37                     38                     39
                      A                      A                      A
 Frequencies --   1142.3439              1161.5726              1181.6853
 Red. masses --      3.0814                 1.3194                 3.1275
 Frc consts  --      2.3691                 1.0489                 2.5731
 IR Inten    --     17.5366                 0.0737                 8.0499

                     40                     41                     42
                      A                      A                      A
 Frequencies --   1208.4483              1236.9841              1270.8055
 Red. masses --      1.6028                 1.9496                 5.3916
 Frc consts  --      1.3791                 1.7576                 5.1301
 IR Inten    --      1.6480                20.0075                16.3620

                     43                     44                     45
                      A                      A                      A
 Frequencies --   1296.6641              1300.5396              1315.9552
 Red. masses --      4.6904                 1.5381                 1.2915
 Frc consts  --      4.6464                 1.5328                 1.3177
 IR Inten    --      4.8086                14.2764                 6.8557

                     46                     47                     48
                      A                      A                      A
 Frequencies --   1364.3020              1386.9153              1407.7723
 Red. masses --      1.3820                 1.2919                 7.3103
 Frc consts  --      1.5156                 1.4641                 8.5359
 IR Inten    --      0.4502                 8.2021                46.0441

                     49                     50                     51
                      A                      A                      A
 Frequencies --   1423.4879              1439.8224              1469.3801
 Red. masses --      9.6345                 1.2200                 1.2244
 Frc consts  --     11.5023                 1.4901                 1.5575
 IR Inten    --     11.2951                 5.4554                 0.8309

                     52                     53                     54
                      A                      A                      A
 Frequencies --   1497.9367              1504.7866              1511.3699
 Red. masses --      4.5159                 1.0418                 1.0955
 Frc consts  --      5.9701                 1.3899                 1.4744
 IR Inten    --     16.3568                10.5074                 5.3758

                     55                     56                     57
                      A                      A                      A
 Frequencies --   1513.1471              1515.4856              1521.4278
 Red. masses --      1.0707                 1.0648                 1.0570
 Frc consts  --      1.4443                 1.4409                 1.4415
 IR Inten    --      2.4395                 3.5690                 7.1830

                     58                     59                     60
                      A                      A                      A
 Frequencies --   1531.8689              1535.0046              1778.3773
 Red. masses --      1.1262                 1.1548                12.8509
 Frc consts  --      1.5570                 1.6031                23.9459
 IR Inten    --      5.9358                 8.2208               144.7281

                     61                     62                     63
                      A                      A                      A
 Frequencies --   3056.9656              3061.5504              3068.3409
 Red. masses --      1.0437                 1.0660                 1.0621
 Frc consts  --      5.7466                 5.8868                 5.8917
 IR Inten    --     10.5916                20.9737                26.9661

                     64                     65                     66
                      A                      A                      A
 Frequencies --   3074.6543              3093.5963              3119.4350
 Red. masses --      1.0649                 1.0317                 1.1005
 Frc consts  --      5.9314                 5.8173                 6.3096
 IR Inten    --     64.8566                18.7109                10.9734

                     67                     68                     69
                      A                      A                      A
 Frequencies --   3128.0622              3129.2299              3159.1497
 Red. masses --      1.0986                 1.1031                 1.0962
 Frc consts  --      6.3335                 6.3642                 6.4460
 IR Inten    --     22.1554                 5.1516                 7.3337

                     70                     71                     72
                      A                      A                      A
 Frequencies --   3169.9731              3170.7155              3202.2555
 Red. masses --      1.1070                 1.1009                 1.1058
 Frc consts  --      6.5540                 6.5209                 6.6810
 IR Inten    --      4.3262                 9.2700                 0.6050

 - Thermochemistry -
 -------------------
 Temperature   298.150 Kelvin.  Pressure   1.00000 Atm.
 Atom     1 has atomic number  6 and mass  12.00000

 Molecular mass:   212.07318 amu.
 Principal axes and moments of inertia in atomic units:
                           1         2         3
     Eigenvalues --  1593.181194192.020634889.31906
           X            0.99985   0.00128  -0.01747
           Y           -0.00117   0.99998   0.00584
           Z            0.01748  -0.00582   0.99983
 This molecule is an asymmetric top.
 Rotational symmetry number  1.
 Warning -- assumption of classical behavior for rotation
           may cause significant error
 Rotational temperatures (Kelvin)      0.05437     0.02066     0.01771
 Rotational constants (GHZ):           1.13279     0.43052     0.36912
 Zero-point vibrational energy     547090.8 (Joules/Mol)
                                  130.75784 (Kcal/Mol)
 Warning -- explicit consideration of  19 degrees of freedom as
           vibrations may cause significant error
 Vibrational temperatures:     34.92    48.77   117.91   147.45   161.14
          (Kelvin)            202.92   241.75   324.03   375.25   404.14
                              410.12   424.48   498.38   552.62   576.54
                              625.36   755.27   758.05   804.63   974.87
                              981.19  1009.52  1036.11  1069.48  1154.16
                             1245.37  1268.02  1302.72  1370.77  1433.62
                             1480.26  1496.56  1522.55  1540.68  1576.85
                             1592.09  1643.58  1671.24  1700.18  1738.69
                             1779.74  1828.41  1865.61  1871.19  1893.37
                             1962.93  1995.46  2025.47  2048.08  2071.58
                             2114.11  2155.20  2165.05  2174.52  2177.08
                             2180.45  2189.00  2204.02  2208.53  2558.69
                             4398.29  4404.89  4414.66  4423.74  4451.00
                             4488.17  4500.58  4502.26  4545.31  4560.88
                             4561.95  4607.33

 Zero-point correction=                           0.208376 (Hartree/Particle)
 Thermal correction to Energy=                    0.221900
 Thermal correction to Enthalpy=                  0.222844
 Thermal correction to Gibbs Free Energy=         0.166547
 Sum of electronic and zero-point Energies=          -1004.291484
 Sum of electronic and thermal Energies=             -1004.277960
 Sum of electronic and thermal Enthalpies=           -1004.277016
 Sum of electronic and thermal Free Energies=        -1004.333313

                     E (Thermal)             CV                S
                      KCal/Mol        Cal/Mol-Kelvin    Cal/Mol-Kelvin
 Total                  139.244             49.539            118.487
 Electronic               0.000              0.000              0.000
 Translational            0.889              2.981             41.959
 Rotational               0.889              2.981             31.857
 Vibrational            137.467             43.577             44.671
 Vibration     1          0.593              1.985              6.250
 Vibration     2          0.594              1.983              5.587
 Vibration     3          0.600              1.962              3.844
 Vibration     4          0.605              1.947              3.406
 Vibration     5          0.607              1.940              3.234
 Vibration     6          0.615              1.912              2.790
 Vibration     7          0.625              1.882              2.457
 Vibration     8          0.650              1.803              1.917
 Vibration     9          0.669              1.744              1.656
 Vibration    10          0.681              1.709              1.528
 Vibration    11          0.683              1.701              1.503
 Vibration    12          0.689              1.683              1.445
 Vibration    13          0.724              1.583              1.183
 Vibration    14          0.753              1.504              1.023
 Vibration    15          0.767              1.469              0.960
 Vibration    16          0.795              1.395              0.844
 Vibration    17          0.880              1.195              0.599
 Vibration    18          0.882              1.191              0.594
 Vibration    19          0.915              1.119              0.525

 Optimization completed.
    -- Stationary point found.
 Normal termination of Gaussian 16 at Thu Dec 10 10:33:05 2020.

 ----------------------------------------------------------------------
 # B3LYP/6-311++G(d,p) empiricaldispersion=gd3bj scf=xqc pop=npa geom=c
 heck
 ----------------------------------------------------------------------

 ---------------------------------------
 CID_130861235_JID_4615_Energie_neutraal
 ---------------------------------------
 Structure from the checkpoint file:  "JID_4615.chk"
 Charge =  0 Multiplicity = 1

 SCF Done:  E(RB3LYP) =  -1004.68928981     A.U. after   15 cycles
 Normal termination of Gaussian 16 at Thu Dec 10 10:37:06 2020.

 ----------------------------------------------------------------------
 # B3LYP/6-311++G(d,p) empiricaldispersion=gd3bj scf=xqc pop=npa geom=c
 heck
 ----------------------------------------------------------------------

 -------------------------------------
 CID_130861235_JID_4615_Energie_kation
 -------------------------------------
 Structure from the checkpoint file:  "JID_4615.chk"
 Charge =  1 Multiplicity = 2

 SCF Done:  E(UB3LYP) =  -1004.38470917     A.U. after   22 cycles
 Normal termination of Gaussian 16 at Thu Dec 10 10:44:45 2020.
 Gaussian 16:  ES64L-G16RevA.03 25-Dec-2016

 ----------------------------------------------------------------------
 # B3LYP/6-311++G(d,p) empiricaldispersion=gd3bj scf=xqc pop=npa geom=c
 heck
 ----------------------------------------------------------------------

 ------------------------------------
 CID_130861235_JID_4615_Energie_anion
 ------------------------------------
 Structure from the checkpoint file:  "JID_4615.chk"
 Charge = -1 Multiplicity = 2

                         Standard orientation:
 ---------------------------------------------------------------------
 Center     Atomic      Atomic             Coordinates (Angstroms)
 Number     Number       Type             X           Y           Z
 ---------------------------------------------------------------------
      1          6           0       -2.539807    1.774906    0.447756
      2          6           0       -1.524854    0.643636    0.259444
      3          6           0       -1.706138   -0.457301    1.352615
      4          6           0       -1.801248   -1.853740    0.722283
      5          6           0       -2.519089   -1.706508   -0.617322
      6         16           0       -1.799981   -0.203712   -1.392935
      7          6           0       -0.117567    1.247897    0.167365
      8          8           0        0.047170    2.447159    0.046517
      9          6           0        1.097127    0.369732    0.163943
     10          7           0        2.280994    0.835279   -0.251767
     11          7           0        3.062046   -0.213465   -0.064711
     12          7           0        2.435512   -1.279355    0.445747
     13          7           0        1.187793   -0.916946    0.591525
     14          6           0        4.477230   -0.221029   -0.390492
     15          1           0       -2.389745    2.259643    1.420005
     16          1           0       -3.552581    1.364084    0.411884
     17          1           0       -2.437292    2.535928   -0.326728
     18          1           0       -0.893948   -0.419445    2.083928
     19          1           0       -2.633817   -0.226179    1.887045
     20          1           0       -2.338820   -2.545936    1.381843
     21          1           0       -0.796015   -2.243774    0.558351
     22          1           0       -3.598468   -1.569051   -0.493189
     23          1           0       -2.350149   -2.555344   -1.285214
     24          1           0        4.604961   -0.049384   -1.461325
     25          1           0        4.982500    0.566907    0.171476
     26          1           0        4.867356   -1.199467   -0.112377
 ---------------------------------------------------------------------

 SCF Done:  E(UB3LYP) =  -1004.70067228     A.U. after   33 cycles
 SCF Done:  E(UB3LYP) =  -1004.70067228     a.u. after    1 cycles

 The electronic state is 2-A.
 Alpha  occ. eigenvalues --  -88.69742 -18.91033 -14.27881 -14.23584 -14.19061
 Alpha  occ. eigenvalues --  -14.17822 -10.10706 -10.07478 -10.07269 -10.05998
 Alpha  occ. eigenvalues --  -10.05726 -10.04585 -10.04507 -10.03068  -7.78411
 Alpha  occ. eigenvalues --   -5.74803  -5.74453  -5.73770  -0.99439  -0.85861
 Alpha  occ. eigenvalues --   -0.80398  -0.73850  -0.71593  -0.63433  -0.62101
 Alpha  occ. eigenvalues --   -0.59359  -0.54455  -0.51498  -0.48315  -0.45897
 Alpha  occ. eigenvalues --   -0.45120  -0.40258  -0.37888  -0.36486  -0.34896
 Alpha  occ. eigenvalues --   -0.33946  -0.31631  -0.30601  -0.30386  -0.29336
 Alpha  occ. eigenvalues --   -0.28064  -0.26668  -0.24745  -0.23580  -0.23182
 Alpha  occ. eigenvalues --   -0.22585  -0.21389  -0.20246  -0.19813  -0.17440
 Alpha  occ. eigenvalues --   -0.17261  -0.16182  -0.14516  -0.13593  -0.09593
 Alpha  occ. eigenvalues --   -0.07506   0.05094
 Alpha virt. eigenvalues --    0.07803   0.08053   0.09877   0.10518   0.10715
 Alpha virt. eigenvalues --    0.11496   0.11692   0.12520   0.12708   0.13409
 Alpha virt. eigenvalues --    0.13993   0.14160   0.14873   0.15120   0.16081

  Beta  occ. eigenvalues --  -88.69707 -18.90364 -14.27636 -14.23679 -14.19042
  Beta  occ. eigenvalues --  -14.17264 -10.10719 -10.07473 -10.07301 -10.05927
  Beta  occ. eigenvalues --  -10.05299 -10.04575 -10.04475 -10.03066  -7.78373
  Beta  occ. eigenvalues --   -5.74754  -5.74402  -5.73735  -0.99151  -0.84660
  Beta  occ. eigenvalues --   -0.80070  -0.73311  -0.71495  -0.63305  -0.62033
  Beta  occ. eigenvalues --   -0.59258  -0.54197  -0.51037  -0.48041  -0.45782
  Beta  occ. eigenvalues --   -0.44737  -0.39984  -0.37203  -0.36314  -0.34700
  Beta  occ. eigenvalues --   -0.33785  -0.31572  -0.30378  -0.30075  -0.29213
  Beta  occ. eigenvalues --   -0.27871  -0.26125  -0.24600  -0.23112  -0.22933
  Beta  occ. eigenvalues --   -0.22016  -0.21038  -0.20079  -0.18389  -0.16793
  Beta  occ. eigenvalues --   -0.16149  -0.15743  -0.14301  -0.11749  -0.09364
  Beta  occ. eigenvalues --   -0.06983
  Beta virt. eigenvalues --    0.07760   0.07975   0.09812   0.10458   0.10792
  Beta virt. eigenvalues --    0.11396   0.11648   0.12453   0.12951   0.13226
  Beta virt. eigenvalues --    0.13497   0.13931   0.14185   0.14885   0.15336

 Mulliken charges and spin densities:
               1          2
     1  C   -0.166326  -0.155736
     2  C    0.967731   0.095435
     3  C   -0.530552  -0.032171
     4  C   -0.314436   0.002802
     5  C   -0.669212  -0.050577
     6  S   -0.196922   0.055167
     7  C   -0.446355   0.273251
     8  O   -0.350144   0.235595
     9  C   -0.420749   0.051237
    10  N   -0.175377   0.291565
    11  N    0.066480   0.051709
    12  N    0.432475  -0.039240
    13  N   -0.588306   0.001629
    14  C   -0.223092  -0.045167
    15  H    0.147869  -0.000272
    16  H    0.097531   0.006192
    17  H    0.164481   0.005060
    18  H    0.175834  -0.003370
    19  H    0.068101   0.091301
    20  H    0.078045   0.038288
    21  H    0.172278   0.011095
    22  H    0.133447   0.019468
    23  H    0.185126   0.007912
    24  H    0.136259   0.027289
    25  H    0.107438   0.059791
    26  H    0.148375   0.001746
 Sum of Mulliken charges =  -1.00000   1.00000

 Dipole moment (field-independent basis, Debye):
    X=             -0.5293    Y=             -4.1564    Z=              0.7008  Tot=              4.2482
 Quadrupole moment (field-independent basis, Debye-Ang):
   XX=           -105.5551   YY=           -118.6994   ZZ=           -101.5255
   XY=             -0.5890   XZ=             -4.5768   YZ=              3.4208

 Summary of Natural Population Analysis:

                                       Natural Population
                Natural  -----------------------------------------------
    Atom  No    Charge         Core      Valence    Rydberg      Total
 -----------------------------------------------------------------------
      C    1   -0.28580      0.99962     2.27767    0.00851     3.28580
      C    2   -0.11475      0.99955     2.09889    0.01632     3.11475
      C    3   -0.18891      0.99959     2.17994    0.00938     3.18891
      C    4   -0.20140      0.99962     2.19286    0.00892     3.20140
      C    5   -0.24821      0.99962     2.23919    0.00941     3.24821
      S    6    0.09439      4.99960     2.89015    0.01586     7.90561
      C    7    0.29618      0.99955     1.68010    0.02417     2.70382
      O    8   -0.21926      0.99988     3.21356    0.00582     4.21926
      C    9    0.12797      0.99963     1.85170    0.02070     2.87203
      N   10   -0.05168      0.99969     2.53962    0.01237     3.55168
      N   11    0.00789      0.99972     2.47591    0.01648     3.49211
      N   12   -0.07761      0.99977     2.56270    0.01514     3.57761
      N   13   -0.16196      0.99972     2.64718    0.01506     3.66196
      C   14   -0.17519      0.99965     2.16933    0.00621     3.17519
      H   15    0.09837      0.00000     0.40028    0.00136     0.40163
      H   16    0.08920      0.00000     0.40944    0.00135     0.41080
      H   17    0.11067      0.00000     0.38832    0.00101     0.38933
      H   18    0.11329      0.00000     0.38529    0.00142     0.38671
      H   19    0.09021      0.00000     0.40833    0.00146     0.40979
      H   20    0.08969      0.00000     0.40825    0.00206     0.41031
      H   21    0.11757      0.00000     0.38040    0.00203     0.38243
      H   22    0.08837      0.00000     0.40921    0.00243     0.41163
      H   23    0.10012      0.00000     0.39876    0.00112     0.39988
      H   24    0.09938      0.00000     0.39952    0.00110     0.40062
      H   25    0.10013      0.00000     0.39875    0.00112     0.39987
      H   26    0.10135      0.00000     0.39775    0.00090     0.39865
 =======================================================================
   * Total *    0.00000     17.99520    37.80310    0.20169    56.00000

 Normal termination of Gaussian 16 at Thu Dec 10 10:55:53 2020.
