 Gaussian 16, Revision A.03,

 -----------------------------------------------------------
 # opt freq B3LYP/6-31G(d) empiricaldispersion=gd3bj scf=xqc
 -----------------------------------------------------------

 ------------------------------
 CID_80030715_JID_7710_neutraal
 ------------------------------
 Symbolic Z-matrix:
 Charge =  0 Multiplicity = 1

 SCF Done:  E(RB3LYP) =  -1052.08906857     A.U. after   14 cycles
 SCF Done:  E(RB3LYP) =  -1052.09193355     A.U. after   12 cycles
 SCF Done:  E(RB3LYP) =  -1052.09251640     A.U. after   12 cycles
 SCF Done:  E(RB3LYP) =  -1052.09285815     A.U. after   12 cycles
 SCF Done:  E(RB3LYP) =  -1052.09328407     A.U. after   12 cycles
 SCF Done:  E(RB3LYP) =  -1052.09348448     A.U. after   11 cycles
 SCF Done:  E(RB3LYP) =  -1052.09383649     A.U. after   12 cycles
 SCF Done:  E(RB3LYP) =  -1052.09260822     A.U. after   14 cycles
 SCF Done:  E(RB3LYP) =  -1052.09433612     A.U. after   12 cycles
 SCF Done:  E(RB3LYP) =  -1052.09474761     A.U. after   14 cycles
 SCF Done:  E(RB3LYP) =  -1052.09525700     A.U. after   10 cycles
 SCF Done:  E(RB3LYP) =  -1052.09525841     A.U. after    9 cycles
 SCF Done:  E(RB3LYP) =  -1052.09525896     A.U. after    8 cycles
 SCF Done:  E(RB3LYP) =  -1052.09525904     A.U. after    6 cycles
 Optimization completed.
    -- Stationary point found.
 Normal termination of Gaussian 16 at Fri Dec 11 13:15:48 2020.

 --------------------------------------------------------------------
 #N Geom=AllCheck Guess=TCheck SCRF=Check GenChk RB3LYP/6-31G(d) Freq
 --------------------------------------------------------------------

 Structure from the checkpoint file:  "JID_7710.chk"
 ------------------------------
 CID_80030715_JID_7710_neutraal
 ------------------------------
 Charge =  0 Multiplicity = 1

 SCF Done:  E(RB3LYP) =  -1052.09525904     A.U. after    1 cycles

  Exact polarizability: 211.409  14.301 171.763  13.558 -23.569 113.781
 Approx polarizability: 295.403  20.263 266.995  29.018 -54.862 190.213

                      1                      2                      3
                      A                      A                      A
 Frequencies --     14.8212                32.9528                53.2974
 Red. masses --      4.5145                 4.3581                 2.1078
 Frc consts  --      0.0006                 0.0028                 0.0035
 IR Inten    --      0.5582                 0.0842                 0.3149

                      4                      5                      6
                      A                      A                      A
 Frequencies --     56.6324                71.9842                87.5751
 Red. masses --      5.6098                 4.1955                 5.6367
 Frc consts  --      0.0106                 0.0128                 0.0255
 IR Inten    --      0.2606                 1.9833                 0.8385

                      7                      8                      9
                      A                      A                      A
 Frequencies --    115.6281               148.0928               181.2791
 Red. masses --      4.2352                 4.0140                 1.6832
 Frc consts  --      0.0334                 0.0519                 0.0326
 IR Inten    --      3.0703                 4.6018                 4.8541

                     10                     11                     12
                      A                      A                      A
 Frequencies --    202.3392               220.3497               222.3128
 Red. masses --      2.4193                 2.1025                 1.4833
 Frc consts  --      0.0584                 0.0601                 0.0432
 IR Inten    --      2.9147                 4.9517                 8.9781

                     13                     14                     15
                      A                      A                      A
 Frequencies --    266.3634               276.0403               299.1840
 Red. masses --      2.9847                 3.0735                 2.4532
 Frc consts  --      0.1248                 0.1380                 0.1294
 IR Inten    --      1.2978                 0.4324                 1.1441

                     16                     17                     18
                      A                      A                      A
 Frequencies --    328.7109               353.6959               418.4616
 Red. masses --      2.6866                 3.7994                 2.9835
 Frc consts  --      0.1710                 0.2800                 0.3078
 IR Inten    --      0.1236                 4.2421                 0.0304

                     19                     20                     21
                      A                      A                      A
 Frequencies --    483.9370               527.9472               556.4031
 Red. masses --      2.9074                 3.3630                 3.9390
 Frc consts  --      0.4012                 0.5523                 0.7185
 IR Inten    --      5.8555                 6.4006                 3.0930

                     22                     23                     24
                      A                      A                      A
 Frequencies --    601.4511               637.5912               639.4056
 Red. masses --      3.8868                 4.6086                 5.8954
 Frc consts  --      0.8284                 1.1038                 1.4201
 IR Inten    --      4.7507                 0.3690                 0.4940

                     25                     26                     27
                      A                      A                      A
 Frequencies --    672.8919               682.9698               689.4971
 Red. masses --      3.8343                 4.2037                 3.4751
 Frc consts  --      1.0229                 1.1553                 0.9734
 IR Inten    --      2.0405                 4.0144                17.9672

                     28                     29                     30
                      A                      A                      A
 Frequencies --    716.1093               728.9196               752.5156
 Red. masses --      1.7286                 1.2628                 1.9835
 Frc consts  --      0.5223                 0.3953                 0.6618
 IR Inten    --     24.1704                40.7247                 3.4730

                     31                     32                     33
                      A                      A                      A
 Frequencies --    768.6499               798.2313               817.6694
 Red. masses --      2.1668                 2.7066                 1.2900
 Frc consts  --      0.7543                 1.0161                 0.5081
 IR Inten    --     19.2691                 8.3010                 3.1951

                     34                     35                     36
                      A                      A                      A
 Frequencies --    841.4857               854.0160               859.0856
 Red. masses --      1.3436                 1.7563                 1.2735
 Frc consts  --      0.5606                 0.7547                 0.5538
 IR Inten    --      5.2387                 1.9618                 0.3423

                     37                     38                     39
                      A                      A                      A
 Frequencies --    903.1353               926.9259               936.2955
 Red. masses --      2.4655                 1.4021                 5.1804
 Frc consts  --      1.1848                 0.7098                 2.6757
 IR Inten    --      5.9424                 1.3198                 2.8216

                     40                     41                     42
                      A                      A                      A
 Frequencies --    967.7573               986.3408               996.8430
 Red. masses --      1.3531                 1.7574                 1.2545
 Frc consts  --      0.7466                 1.0073                 0.7345
 IR Inten    --      0.1826                 4.6697                 0.1151

                     43                     44                     45
                      A                      A                      A
 Frequencies --   1010.7549              1022.5596              1048.0941
 Red. masses --      2.1209                 6.0670                 2.1379
 Frc consts  --      1.2766                 3.7377                 1.3837
 IR Inten    --      2.9480                 0.9569                19.1674

                     46                     47                     48
                      A                      A                      A
 Frequencies --   1067.8359              1083.4674              1099.5355
 Red. masses --      1.9631                 1.8802                 2.3436
 Frc consts  --      1.3189                 1.3005                 1.6694
 IR Inten    --      1.3716                12.5130                 1.0390

                     49                     50                     51
                      A                      A                      A
 Frequencies --   1105.2497              1115.6656              1121.7203
 Red. masses --      1.5175                 1.5540                 1.6570
 Frc consts  --      1.0922                 1.1397                 1.2284
 IR Inten    --     11.1467                 2.6252                 6.8637

                     52                     53                     54
                      A                      A                      A
 Frequencies --   1156.1639              1195.4681              1200.3585
 Red. masses --      1.8517                 1.0977                 2.4588
 Frc consts  --      1.4583                 0.9243                 2.0874
 IR Inten    --     11.1299                 0.0219                10.6237

                     55                     56                     57
                      A                      A                      A
 Frequencies --   1217.4287              1221.9142              1238.1328
 Red. masses --      1.7561                 1.2419                 1.7012
 Frc consts  --      1.5335                 1.0925                 1.5366
 IR Inten    --      2.6155                 0.1323                 1.3669

                     58                     59                     60
                      A                      A                      A
 Frequencies --   1257.5875              1299.2715              1308.5799
 Red. masses --      1.2854                 1.5496                 1.2893
 Frc consts  --      1.1977                 1.5413                 1.3008
 IR Inten    --      4.0883                 8.9114                 7.6807

                     61                     62                     63
                      A                      A                      A
 Frequencies --   1314.1330              1334.8057              1367.8680
 Red. masses --      2.4903                 1.7500                 2.3099
 Frc consts  --      2.5338                 1.8371                 2.5464
 IR Inten    --     55.1111                 7.5125                 6.9139

                     64                     65                     66
                      A                      A                      A
 Frequencies --   1372.0190              1374.8754              1386.1674
 Red. masses --      1.4295                 1.4554                 1.4968
 Frc consts  --      1.5855                 1.6209                 1.6945
 IR Inten    --     10.2205                 3.7886                14.2152

                     67                     68                     69
                      A                      A                      A
 Frequencies --   1405.0655              1431.2044              1439.8620
 Red. masses --      1.9850                 1.6653                 1.2482
 Frc consts  --      2.3089                 2.0098                 1.5246
 IR Inten    --      1.8743                11.8507                 6.3280

                     70                     71                     72
                      A                      A                      A
 Frequencies --   1475.7390              1491.9243              1504.9794
 Red. masses --      2.5496                 1.0872                 2.1260
 Frc consts  --      3.2714                 1.4258                 2.8371
 IR Inten    --     51.7703                 8.9997                 7.4452

                     73                     74                     75
                      A                      A                      A
 Frequencies --   1510.4762              1519.4792              1521.5756
 Red. masses --      1.3291                 1.2355                 1.0435
 Frc consts  --      1.7866                 1.6806                 1.4234
 IR Inten    --      1.9298                 5.4656                 7.9200

                     76                     77                     78
                      A                      A                      A
 Frequencies --   1532.9760              1538.7184              1549.9348
 Red. masses --      1.4088                 1.6585                 2.2095
 Frc consts  --      1.9506                 2.3136                 3.1273
 IR Inten    --     12.0055                20.3443                 8.6805

                     79                     80                     81
                      A                      A                      A
 Frequencies --   1573.9063              1645.7553              1668.0078
 Red. masses --      4.8438                 5.3764                 5.5580
 Frc consts  --      7.0696                 8.5798                 9.1109
 IR Inten    --     15.3604                 1.7184                 3.5506

                     82                     83                     84
                      A                      A                      A
 Frequencies --   2689.9908              3014.3802              3050.5433
 Red. masses --      1.0385                 1.0673                 1.0820
 Frc consts  --      4.4274                 5.7137                 5.9322
 IR Inten    --     10.1314                37.0437                 9.4772

                     85                     86                     87
                      A                      A                      A
 Frequencies --   3055.0175              3066.0937              3082.3203
 Red. masses --      1.0927                 1.0374                 1.0649
 Frc consts  --      6.0087                 5.7459                 5.9607
 IR Inten    --     18.0531                33.9474                23.4529

                     88                     89                     90
                      A                      A                      A
 Frequencies --   3100.0492              3132.3208              3143.7041
 Red. masses --      1.0596                 1.1031                 1.1004
 Frc consts  --      5.9998                 6.3765                 6.4073
 IR Inten    --     11.2570                30.1525                 7.8336

                     91                     92                     93
                      A                      A                      A
 Frequencies --   3152.8354              3154.7896              3173.7688
 Red. masses --      1.1077                 1.1017                 1.0872
 Frc consts  --      6.4877                 6.4601                 6.4524
 IR Inten    --      9.2669                15.8925                 9.5100

                     94                     95                     96
                      A                      A                      A
 Frequencies --   3187.3399              3197.6580              3210.0578
 Red. masses --      1.0868                 1.0917                 1.0962
 Frc consts  --      6.5052                 6.5767                 6.6554
 IR Inten    --      0.5001                25.5054                32.9575

                     97                     98                     99
                      A                      A                      A
 Frequencies --   3224.3487              3257.9568              3288.1400
 Red. masses --      1.0930                 1.0917                 1.1032
 Frc consts  --      6.6950                 6.8275                 7.0276
 IR Inten    --      5.7276                 9.3770                 3.7408

 - Thermochemistry -
 -------------------
 Temperature   298.150 Kelvin.  Pressure   1.00000 Atm.
 Atom     1 has atomic number  6 and mass  12.00000

 Molecular mass:   246.11907 amu.
 Principal axes and moments of inertia in atomic units:
                           1         2         3
     Eigenvalues --  2643.533917009.275188731.19931
           X            0.99995  -0.00964   0.00408
           Y            0.00972   0.99971  -0.02184
           Z           -0.00387   0.02187   0.99975
 This molecule is an asymmetric top.
 Rotational symmetry number  1.
 Warning -- assumption of classical behavior for rotation
           may cause significant error
 Rotational temperatures (Kelvin)      0.03276     0.01236     0.00992
 Rotational constants (GHZ):           0.68270     0.25748     0.20670
 Zero-point vibrational energy     775218.3 (Joules/Mol)
                                  185.28161 (Kcal/Mol)
 Warning -- explicit consideration of  22 degrees of freedom as
           vibrations may cause significant error
 Vibrational temperatures:     21.32    47.41    76.68    81.48   103.57
          (Kelvin)            126.00   166.36   213.07   260.82   291.12
                              317.03   319.86   383.24   397.16   430.46
                              472.94   508.89   602.07   696.28   759.60
                              800.54   865.35   917.35   919.96   968.14
                              982.64   992.03  1030.32  1048.75  1082.70
                             1105.92  1148.48  1176.44  1210.71  1228.74
                             1236.03  1299.41  1333.64  1347.12  1392.39
                             1419.12  1434.23  1454.25  1471.24  1507.97
                             1536.38  1558.87  1581.99  1590.21  1605.19
                             1613.91  1663.46  1720.01  1727.05  1751.61
                             1758.06  1781.40  1809.39  1869.36  1882.75
                             1890.74  1920.49  1968.06  1974.03  1978.14
                             1994.39  2021.58  2059.18  2071.64  2123.26
                             2146.55  2165.33  2173.24  2186.19  2189.21
                             2205.61  2213.87  2230.01  2264.50  2367.87
                             2399.89  3870.30  4337.02  4389.05  4395.49
                             4411.42  4434.77  4460.28  4506.71  4523.09
                             4536.23  4539.04  4566.35  4585.87  4600.72
                             4618.56  4639.12  4687.47  4730.90

 Zero-point correction=                           0.295265 (Hartree/Particle)
 Thermal correction to Energy=                    0.311940
 Thermal correction to Enthalpy=                  0.312884
 Thermal correction to Gibbs Free Energy=         0.248348
 Sum of electronic and zero-point Energies=          -1051.799994
 Sum of electronic and thermal Energies=             -1051.783319
 Sum of electronic and thermal Enthalpies=           -1051.782375
 Sum of electronic and thermal Free Energies=        -1051.846911

                     E (Thermal)             CV                S
                      KCal/Mol        Cal/Mol-Kelvin    Cal/Mol-Kelvin
 Total                  195.745             62.649            135.829
 Electronic               0.000              0.000              0.000
 Translational            0.889              2.981             42.403
 Rotational               0.889              2.981             33.447
 Vibrational            193.968             56.688             59.979
 Vibration     1          0.593              1.986              7.229
 Vibration     2          0.594              1.983              5.643
 Vibration     3          0.596              1.976              4.691
 Vibration     4          0.596              1.975              4.571
 Vibration     5          0.598              1.967              4.098
 Vibration     6          0.601              1.958              3.714
 Vibration     7          0.608              1.936              3.172
 Vibration     8          0.617              1.905              2.697
 Vibration     9          0.630              1.865              2.315
 Vibration    10          0.639              1.837              2.112
 Vibration    11          0.647              1.810              1.956
 Vibration    12          0.648              1.807              1.940
 Vibration    13          0.672              1.735              1.620
 Vibration    14          0.678              1.718              1.558
 Vibration    15          0.692              1.675              1.421
 Vibration    16          0.712              1.618              1.266
 Vibration    17          0.730              1.568              1.150
 Vibration    18          0.781              1.430              0.897
 Vibration    19          0.840              1.286              0.700
 Vibration    20          0.883              1.188              0.592
 Vibration    21          0.912              1.126              0.531
 Vibration    22          0.960              1.029              0.447

                           ! Non-Optimized Parameters !
 Normal termination of Gaussian 16 at Fri Dec 11 13:30:45 2020.

 ----------------------------------------------------------------------
 # B3LYP/6-311++G(d,p) empiricaldispersion=gd3bj scf=xqc pop=npa geom=c
 heck
 ----------------------------------------------------------------------

 --------------------------------------
 CID_80030715_JID_7710_Energie_neutraal
 --------------------------------------
 Structure from the checkpoint file:  "JID_7710.chk"
 Charge =  0 Multiplicity = 1

 SCF Done:  E(RB3LYP) =  -1052.29717597     A.U. after   16 cycles
 Normal termination of Gaussian 16 at Fri Dec 11 13:38:50 2020.

 ----------------------------------------------------------------------
 # B3LYP/6-311++G(d,p) empiricaldispersion=gd3bj scf=xqc pop=npa geom=c
 heck
 ----------------------------------------------------------------------

 ------------------------------------
 CID_80030715_JID_7710_Energie_kation
 ------------------------------------
 Structure from the checkpoint file:  "JID_7710.chk"
 Charge =  1 Multiplicity = 2

 SCF Done:  E(UB3LYP) =  -1052.00186539     A.U. after   33 cycles
 SCF Done:  E(UB3LYP) =  -1052.00186539     a.u. after    1 cycles
 Normal termination of Gaussian 16 at Fri Dec 11 14:01:44 2020.
 Gaussian 16:  ES64L-G16RevA.03 25-Dec-2016

 ----------------------------------------------------------------------
 # B3LYP/6-311++G(d,p) empiricaldispersion=gd3bj scf=xqc pop=npa geom=c
 heck
 ----------------------------------------------------------------------

 -----------------------------------
 CID_80030715_JID_7710_Energie_anion
 -----------------------------------
 Structure from the checkpoint file:  "JID_7710.chk"
 Charge = -1 Multiplicity = 2

                         Standard orientation:
 ---------------------------------------------------------------------
 Center     Atomic      Atomic             Coordinates (Angstroms)
 Number     Number       Type             X           Y           Z
 ---------------------------------------------------------------------
      1          6           0        3.666098   -2.868763    0.232784
      2          6           0        2.403731   -2.001820    0.222478
      3          6           0        2.701590   -0.573441   -0.127270
      4          7           0        3.872799    0.019543    0.029228
      5          6           0        3.705169    1.312261   -0.413055
      6          6           0        2.418112    1.507486   -0.842605
      7          7           0        1.773586    0.293755   -0.659472
      8          6           0        0.363100    0.040247   -0.919995
      9          6           0       -0.468706   -0.124891    0.364365
     10          6           0       -0.291382    1.045508    1.353161
     11         16           0       -0.757281    2.720631    0.728675
     12          6           0       -1.922350   -0.429455    0.053959
     13          6           0       -2.549309   -1.505331    0.695320
     14          6           0       -3.889469   -1.805614    0.455595
     15          6           0       -4.627993   -1.030397   -0.438868
     16          6           0       -4.015555    0.042630   -1.086415
     17          6           0       -2.674447    0.341170   -0.843817
     18          1           0        4.126355   -2.895987   -0.759616
     19          1           0        3.424588   -3.893239    0.534470
     20          1           0        4.404656   -2.458076    0.925106
     21          1           0        1.671152   -2.410181   -0.486284
     22          1           0        1.923156   -2.050998    1.211134
     23          1           0        4.522284    2.020792   -0.405684
     24          1           0        1.911316    2.349547   -1.288857
     25          1           0       -0.010202    0.881765   -1.506216
     26          1           0        0.259688   -0.859109   -1.535347
     27          1           0       -0.069354   -0.997449    0.896714
     28          1           0       -0.918881    0.866005    2.229043
     29          1           0        0.745985    1.096431    1.690963
     30          1           0        0.495278    3.110522    0.416688
     31          1           0       -1.977638   -2.115011    1.391528
     32          1           0       -4.354187   -2.645614    0.964279
     33          1           0       -5.671891   -1.261592   -0.630715
     34          1           0       -4.582464    0.652949   -1.783835
     35          1           0       -2.219577    1.188527   -1.344286
 ---------------------------------------------------------------------

 SCF Done:  E(UB3LYP) =  -1052.28704586     A.U. after   33 cycles
 SCF Done:  E(UB3LYP) =  -1052.28704586     a.u. after    1 cycles

 The electronic state is 2-A.
 Alpha  occ. eigenvalues --  -88.75680 -14.28055 -14.20011 -10.13705 -10.13139
 Alpha  occ. eigenvalues --  -10.11872 -10.10827 -10.10523 -10.09517 -10.09350
 Alpha  occ. eigenvalues --  -10.09020 -10.08409 -10.08299 -10.08286 -10.08243
 Alpha  occ. eigenvalues --  -10.08105 -10.06917  -7.84376  -5.80740  -5.80395
 Alpha  occ. eigenvalues --   -5.79765  -0.92958  -0.80314  -0.77184  -0.72875
 Alpha  occ. eigenvalues --   -0.70393  -0.67348  -0.65650  -0.64715  -0.62848
 Alpha  occ. eigenvalues --   -0.59430  -0.54833  -0.53081  -0.51853  -0.50923
 Alpha  occ. eigenvalues --   -0.48704  -0.45339  -0.43461  -0.42623  -0.39897
 Alpha  occ. eigenvalues --   -0.39089  -0.36941  -0.36462  -0.35935  -0.34974
 Alpha  occ. eigenvalues --   -0.34762  -0.33602  -0.32983  -0.32238  -0.32106
 Alpha  occ. eigenvalues --   -0.30852  -0.29185  -0.28974  -0.27521  -0.27082
 Alpha  occ. eigenvalues --   -0.26866  -0.26176  -0.25611  -0.24699  -0.23522
 Alpha  occ. eigenvalues --   -0.18589  -0.18287  -0.16725  -0.16195  -0.15446
 Alpha  occ. eigenvalues --   -0.13863   0.03996
 Alpha virt. eigenvalues --    0.05929   0.06164   0.07037   0.07339   0.07409
 Alpha virt. eigenvalues --    0.07890   0.07925   0.08559   0.08851   0.09442
 Alpha virt. eigenvalues --    0.09692   0.10378   0.10734   0.11099   0.11442

  Beta  occ. eigenvalues --  -88.75671 -14.28055 -14.20003 -10.13703 -10.13126
  Beta  occ. eigenvalues --  -10.11855 -10.10813 -10.10516 -10.09515 -10.09341
  Beta  occ. eigenvalues --  -10.08989 -10.08389 -10.08286 -10.08277 -10.08225
  Beta  occ. eigenvalues --  -10.08073 -10.06901  -7.84365  -5.80727  -5.80387
  Beta  occ. eigenvalues --   -5.79757  -0.92950  -0.80300  -0.77148  -0.72841
  Beta  occ. eigenvalues --   -0.70359  -0.67310  -0.65602  -0.64681  -0.62820
  Beta  occ. eigenvalues --   -0.59385  -0.54782  -0.53036  -0.51800  -0.50899
  Beta  occ. eigenvalues --   -0.48666  -0.45301  -0.43417  -0.42577  -0.39863
  Beta  occ. eigenvalues --   -0.39042  -0.36911  -0.36420  -0.35891  -0.34950
  Beta  occ. eigenvalues --   -0.34727  -0.33573  -0.32942  -0.32218  -0.32079
  Beta  occ. eigenvalues --   -0.30821  -0.29150  -0.28932  -0.27484  -0.27028
  Beta  occ. eigenvalues --   -0.26823  -0.26148  -0.25572  -0.24668  -0.23487
  Beta  occ. eigenvalues --   -0.18572  -0.18270  -0.16660  -0.16149  -0.15401
  Beta  occ. eigenvalues --   -0.13841
  Beta virt. eigenvalues --    0.05976   0.06605   0.06790   0.07293   0.07444
  Beta virt. eigenvalues --    0.07600   0.08123   0.08401   0.08821   0.09208
  Beta virt. eigenvalues --    0.09832   0.10066   0.10438   0.10826   0.11287

 Mulliken charges and spin densities:
               1          2
     1  C    0.092242  -0.812829
     2  C    0.352009  -0.647818
     3  C   -0.052696  -0.120461
     4  N   -0.081454   0.068458
     5  C    0.019784  -0.092442
     6  C    0.242825  -0.191942
     7  N    0.283802   0.076117
     8  C   -1.072847  -0.533241
     9  C    3.643653  -2.265354
    10  C   -0.338885  -0.436221
    11  S   -0.036852  -0.107444
    12  C   -0.730721   1.028175
    13  C   -1.114816   0.901360
    14  C    0.621884  -0.994957
    15  C    0.723213  -1.029829
    16  C    0.227055  -0.419978
    17  C   -1.696266   1.469658
    18  H    0.041706   0.108265
    19  H   -0.187971   0.329653
    20  H    0.121933   0.048608
    21  H   -0.047740   0.213582
    22  H   -0.242191   0.415164
    23  H    0.015256   0.139243
    24  H   -0.318646   0.440169
    25  H    0.269653  -0.055375
    26  H   -0.301265   0.528758
    27  H    0.317652  -0.113794
    28  H    0.051004   0.190689
    29  H    0.140703   0.095568
    30  H   -0.005774   0.059626
    31  H   -0.704915   0.868071
    32  H   -0.559333   0.740844
    33  H   -0.294867   0.451758
    34  H   -0.292961   0.458576
    35  H   -0.084173   0.189345
 Sum of Mulliken charges =  -1.00000   1.00000

 Dipole moment (field-independent basis, Debye):
    X=              2.7143    Y=              4.7781    Z=             -1.3130  Tot=              5.6499
 Quadrupole moment (field-independent basis, Debye-Ang):
   XX=           -199.2158   YY=           -165.1431   ZZ=           -145.3075
   XY=             -3.5243   XZ=             -0.4315   YZ=              3.2939

 Summary of Natural Population Analysis:

                                       Natural Population
                Natural  -----------------------------------------------
    Atom  No    Charge         Core      Valence    Rydberg      Total
 -----------------------------------------------------------------------
      C    1   -0.28034      0.99967     2.27468    0.00600     3.28034
      C    2   -0.21326      0.99961     2.20579    0.00786     3.21326
      C    3    0.20065      0.99960     1.78237    0.01738     2.79935
      N    4   -0.26310      0.99969     2.75395    0.00946     3.76310
      C    5   -0.03479      0.99957     2.02203    0.01318     3.03479
      C    6   -0.04168      0.99954     2.03093    0.01121     3.04168
      N    7   -0.21211      0.99962     2.70147    0.01102     3.71211
      C    8   -0.08208      0.99958     2.07016    0.01234     3.08208
      C    9   -0.12976      0.99954     2.11648    0.01375     3.12976
      C   10   -0.23867      0.99955     2.22966    0.00946     3.23867
      S   11   -0.02790      4.99965     3.01331    0.01493     8.02790
      C   12   -0.01951      0.99949     2.00668    0.01334     3.01951
      C   13   -0.09284      0.99951     2.08259    0.01075     3.09284
      C   14   -0.09712      0.99956     2.08693    0.01063     3.09712
      C   15   -0.09994      0.99956     2.09062    0.00977     3.09994
      C   16   -0.09605      0.99956     2.08675    0.00974     3.09605
      C   17   -0.10348      0.99950     2.09411    0.00986     3.10348
      H   18    0.09822      0.00000     0.40089    0.00089     0.40178
      H   19    0.09840      0.00000     0.40073    0.00086     0.40160
      H   20    0.10495      0.00000     0.39374    0.00131     0.39505
      H   21    0.10526      0.00000     0.39298    0.00175     0.39474
      H   22    0.10659      0.00000     0.39129    0.00212     0.39341
      H   23    0.09516      0.00000     0.40398    0.00086     0.40484
      H   24    0.10360      0.00000     0.39520    0.00120     0.39640
      H   25    0.10698      0.00000     0.39138    0.00164     0.39302
      H   26    0.10792      0.00000     0.39072    0.00136     0.39208
      H   27    0.10940      0.00000     0.38672    0.00388     0.39060
      H   28    0.10936      0.00000     0.38956    0.00108     0.39064
      H   29    0.11113      0.00000     0.38763    0.00124     0.38887
      H   30    0.06129      0.00000     0.43541    0.00330     0.43871
      H   31    0.10403      0.00000     0.39366    0.00231     0.39597
      H   32    0.10315      0.00000     0.39520    0.00166     0.39685
      H   33    0.10109      0.00000     0.39767    0.00124     0.39891
      H   34    0.10005      0.00000     0.39896    0.00099     0.39995
      H   35    0.10539      0.00000     0.39299    0.00162     0.39461
 =======================================================================
   * Total *    0.00000     20.99280    44.78722    0.21999    66.00000

 Normal termination of Gaussian 16 at Fri Dec 11 14:25:05 2020.
