 Gaussian 16, Revision A.03,

 -----------------------------------------------------------
 # opt freq B3LYP/6-31G(d) empiricaldispersion=gd3bj scf=xqc
 -----------------------------------------------------------

 -------------------------------
 CID_113717504_JID_7286_neutraal
 -------------------------------
 Symbolic Z-matrix:
 Charge =  0 Multiplicity = 1

 SCF Done:  E(RB3LYP) =  -709.236113958     A.U. after   15 cycles
 SCF Done:  E(RB3LYP) =  -709.241115043     A.U. after   12 cycles
 SCF Done:  E(RB3LYP) =  -709.241796072     A.U. after   12 cycles
 SCF Done:  E(RB3LYP) =  -709.242069046     A.U. after   12 cycles
 SCF Done:  E(RB3LYP) =  -709.242153234     A.U. after   11 cycles
 SCF Done:  E(RB3LYP) =  -709.242190275     A.U. after   11 cycles
 SCF Done:  E(RB3LYP) =  -709.242202996     A.U. after   10 cycles
 SCF Done:  E(RB3LYP) =  -709.242204875     A.U. after    9 cycles
 SCF Done:  E(RB3LYP) =  -709.242205135     A.U. after    8 cycles
 SCF Done:  E(RB3LYP) =  -709.242205190     A.U. after    7 cycles
 SCF Done:  E(RB3LYP) =  -709.242205217     A.U. after    7 cycles
 SCF Done:  E(RB3LYP) =  -709.242205235     A.U. after    6 cycles
 Optimization completed.
    -- Stationary point found.
 Normal termination of Gaussian 16 at Fri Dec 11 11:55:55 2020.

 --------------------------------------------------------------------
 #N Geom=AllCheck Guess=TCheck SCRF=Check GenChk RB3LYP/6-31G(d) Freq
 --------------------------------------------------------------------

 Structure from the checkpoint file:  "JID_7286.chk"
 -------------------------------
 CID_113717504_JID_7286_neutraal
 -------------------------------
 Charge =  0 Multiplicity = 1

 SCF Done:  E(RB3LYP) =  -709.242205235     A.U. after    1 cycles

  Exact polarizability: 230.490  -2.665 152.214 -10.783 -11.277 110.196
 Approx polarizability: 294.829  -1.979 238.938 -25.828 -25.199 183.319

                      1                      2                      3
                      A                      A                      A
 Frequencies --     17.2482                29.8886                37.3173
 Red. masses --      2.8201                 3.9086                 3.0136
 Frc consts  --      0.0005                 0.0021                 0.0025
 IR Inten    --      0.0916                 0.4543                 0.3511

                      4                      5                      6
                      A                      A                      A
 Frequencies --     62.8649                71.7525               104.3337
 Red. masses --      5.3156                 3.8022                 6.1150
 Frc consts  --      0.0124                 0.0115                 0.0392
 IR Inten    --      3.8226                 1.1625                 5.8149

                      7                      8                      9
                      A                      A                      A
 Frequencies --    134.3219               162.4685               214.7331
 Red. masses --      3.3921                 3.6644                 3.1557
 Frc consts  --      0.0361                 0.0570                 0.0857
 IR Inten    --      1.0123                 0.1575                 0.2176

                     10                     11                     12
                      A                      A                      A
 Frequencies --    224.6548               232.5508               239.4618
 Red. masses --      3.9975                 2.4436                 1.8311
 Frc consts  --      0.1189                 0.0779                 0.0619
 IR Inten    --      1.2798                15.0158                 0.4601

                     13                     14                     15
                      A                      A                      A
 Frequencies --    281.1066               325.9808               357.5395
 Red. masses --      2.1900                 1.4595                 3.5242
 Frc consts  --      0.1020                 0.0914                 0.2654
 IR Inten    --     22.7253                28.0361                25.3842

                     16                     17                     18
                      A                      A                      A
 Frequencies --    374.3824               379.3838               426.1793
 Red. masses --      3.8623                 3.0852                 2.9683
 Frc consts  --      0.3190                 0.2616                 0.3176
 IR Inten    --      4.2858                 4.5772                 5.6067

                     19                     20                     21
                      A                      A                      A
 Frequencies --    437.4121               452.8667               491.9916
 Red. masses --      2.7271                 3.2877                 3.2246
 Frc consts  --      0.3074                 0.3973                 0.4599
 IR Inten    --     13.6142                18.2604                24.2743

                     22                     23                     24
                      A                      A                      A
 Frequencies --    515.9357               554.2528               585.8840
 Red. masses --      3.2602                 1.9868                 2.9253
 Frc consts  --      0.5113                 0.3596                 0.5916
 IR Inten    --     32.2403                23.0584                10.4436

                     25                     26                     27
                      A                      A                      A
 Frequencies --    600.7996               647.6571               670.6363
 Red. masses --      2.1111                 3.5230                 4.9630
 Frc consts  --      0.4490                 0.8707                 1.3151
 IR Inten    --     48.4536                13.6424                 2.7504

                     28                     29                     30
                      A                      A                      A
 Frequencies --    720.2867               767.5946               782.2676
 Red. masses --      3.3002                 2.2846                 1.9449
 Frc consts  --      1.0088                 0.7931                 0.7012
 IR Inten    --     29.9339               160.0220                 2.1381

                     31                     32                     33
                      A                      A                      A
 Frequencies --    797.1941               812.7618               833.6112
 Red. masses --      1.8583                 2.1461                 1.6285
 Frc consts  --      0.6958                 0.8353                 0.6667
 IR Inten    --     25.4168                 9.6163               136.1461

                     34                     35                     36
                      A                      A                      A
 Frequencies --    846.1243               860.3079               883.2634
 Red. masses --      2.1826                 1.5337                 2.1751
 Frc consts  --      0.9206                 0.6688                 0.9998
 IR Inten    --      2.3771                18.8109                 1.7995

                     37                     38                     39
                      A                      A                      A
 Frequencies --    903.5295               913.1069               920.3789
 Red. masses --      1.7181                 1.5426                 1.9128
 Frc consts  --      0.8264                 0.7578                 0.9547
 IR Inten    --      1.3659                 2.4648                 0.3622

                     40                     41                     42
                      A                      A                      A
 Frequencies --    931.3967               944.8898               963.3584
 Red. masses --      4.2521                 2.1179                 2.1376
 Frc consts  --      2.1733                 1.1141                 1.1688
 IR Inten    --      0.8288                 2.1023                 3.2853

                     43                     44                     45
                      A                      A                      A
 Frequencies --    987.4294              1000.0231              1036.1872
 Red. masses --      2.5876                 1.3798                 1.5424
 Frc consts  --      1.4865                 0.8130                 0.9757
 IR Inten    --      0.5823                 2.1128                 0.3239

                     46                     47                     48
                      A                      A                      A
 Frequencies --   1041.6324              1092.7710              1107.7572
 Red. masses --      1.6717                 2.4824                 1.8549
 Frc consts  --      1.0687                 1.7466                 1.3411
 IR Inten    --      0.1518                 2.2446                 1.2070

                     49                     50                     51
                      A                      A                      A
 Frequencies --   1125.4163              1160.4686              1189.9570
 Red. masses --      2.3240                 3.0532                 1.6216
 Frc consts  --      1.7343                 2.4225                 1.3529
 IR Inten    --      1.4585                19.7584                14.8726

                     52                     53                     54
                      A                      A                      A
 Frequencies --   1202.4262              1205.0279              1206.9333
 Red. masses --      1.5159                 1.4600                 1.4102
 Frc consts  --      1.2914                 1.2491                 1.2103
 IR Inten    --     25.3436                 5.7557                 2.8371

                     55                     56                     57
                      A                      A                      A
 Frequencies --   1234.2080              1252.2826              1274.3435
 Red. masses --      1.1829                 1.4146                 1.2465
 Frc consts  --      1.0616                 1.3070                 1.1927
 IR Inten    --      3.3295                 0.1811                 8.7015

                     58                     59                     60
                      A                      A                      A
 Frequencies --   1293.5995              1296.9241              1315.8320
 Red. masses --      1.3043                 1.7265                 1.9080
 Frc consts  --      1.2860                 1.7110                 1.9463
 IR Inten    --      5.3919               116.6267                 3.5831

                     61                     62                     63
                      A                      A                      A
 Frequencies --   1322.4706              1334.3666              1338.3042
 Red. masses --      1.4343                 1.4540                 1.4643
 Frc consts  --      1.4780                 1.5253                 1.5452
 IR Inten    --      3.8836                 1.6070                 9.8358

                     64                     65                     66
                      A                      A                      A
 Frequencies --   1348.8184              1363.1817              1365.6356
 Red. masses --      1.2284                 1.3963                 1.5010
 Frc consts  --      1.3167                 1.5288                 1.6494
 IR Inten    --      0.0089                28.6469                 6.5793

                     67                     68                     69
                      A                      A                      A
 Frequencies --   1369.4270              1380.8343              1399.7606
 Red. masses --      1.4386                 3.3732                 1.5307
 Frc consts  --      1.5896                 3.7894                 1.7670
 IR Inten    --      1.1231                37.5068                 2.1771

                     70                     71                     72
                      A                      A                      A
 Frequencies --   1418.5670              1467.0283              1478.1985
 Red. masses --      1.6474                 2.2877                 1.0893
 Frc consts  --      1.9532                 2.9008                 1.4024
 IR Inten    --      9.6954                 4.7243                14.2530

                     73                     74                     75
                      A                      A                      A
 Frequencies --   1518.2856              1520.0929              1524.7446
 Red. masses --      1.0887                 1.0805                 1.0938
 Frc consts  --      1.4787                 1.4710                 1.4982
 IR Inten    --      0.0884                 3.5955                 2.1395

                     76                     77                     78
                      A                      A                      A
 Frequencies --   1544.0902              1549.9811              1551.3596
 Red. masses --      1.1130                 1.2026                 1.6631
 Frc consts  --      1.5635                 1.7023                 2.3582
 IR Inten    --     14.5882               132.3233                77.8198

                     79                     80                     81
                      A                      A                      A
 Frequencies --   1565.4100              1642.9237              1688.8791
 Red. masses --      2.6382                 4.9658                 3.4401
 Frc consts  --      3.8091                 7.8972                 5.7813
 IR Inten    --    168.4583                 1.2521                60.0007

                     82                     83                     84
                      A                      A                      A
 Frequencies --   1708.0677              2360.8146              2944.0590
 Red. masses --      1.3262                12.5895                 1.0727
 Frc consts  --      2.2797                41.3411                 5.4779
 IR Inten    --     31.4694                12.3892                58.0300

                     85                     86                     87
                      A                      A                      A
 Frequencies --   3027.0927              3040.5931              3045.1248
 Red. masses --      1.0675                 1.0810                 1.0686
 Frc consts  --      5.7635                 5.8886                 5.8379
 IR Inten    --     22.0983                 6.0868                41.7438

                     88                     89                     90
                      A                      A                      A
 Frequencies --   3048.2277              3051.6177              3054.2525
 Red. masses --      1.0635                 1.0681                 1.0837
 Frc consts  --      5.8223                 5.8601                 5.9563
 IR Inten    --      5.9644                 4.6496                45.0701

                     91                     92                     93
                      A                      A                      A
 Frequencies --   3063.2093              3086.1552              3093.1067
 Red. masses --      1.0646                 1.0983                 1.0996
 Frc consts  --      5.8858                 6.1635                 6.1981
 IR Inten    --     53.3801                37.2577                21.4533

                     94                     95                     96
                      A                      A                      A
 Frequencies --   3103.1592              3106.9021              3114.6296
 Red. masses --      1.0988                 1.0980                 1.1042
 Frc consts  --      6.2339                 6.2445                 6.3112
 IR Inten    --     33.1330                 2.3152                80.5847

                     97                     98                     99
                      A                      A                      A
 Frequencies --   3165.7929              3173.6773              3222.3207
 Red. masses --      1.0895                 1.0892                 1.0910
 Frc consts  --      6.4336                 6.4637                 6.6742
 IR Inten    --     21.9096                18.7731                15.0414

                    100                    101                    102
                      A                      A                      A
 Frequencies --   3505.4435              3577.6999              3603.1385
 Red. masses --      1.0508                 1.0748                 1.0938
 Frc consts  --      7.6077                 8.1056                 8.3665
 IR Inten    --     11.8568                10.9738                10.0280

 - Thermochemistry -
 -------------------
 Temperature   298.150 Kelvin.  Pressure   1.00000 Atm.
 Atom     1 has atomic number  6 and mass  12.00000

 Molecular mass:   229.15790 amu.
 Principal axes and moments of inertia in atomic units:
                           1         2         3
     Eigenvalues --  1517.22420********************
           X            0.99996   0.00805   0.00470
           Y           -0.00787   0.99929  -0.03685
           Z           -0.00499   0.03681   0.99931
 This molecule is an asymmetric top.
 Rotational symmetry number  1.
 Warning -- assumption of classical behavior for rotation
           may cause significant error
 Rotational temperatures (Kelvin)      0.05709     0.00795     0.00731
 Rotational constants (GHZ):           1.18950     0.16564     0.15239
 Zero-point vibrational energy     821382.0 (Joules/Mol)
                                  196.31500 (Kcal/Mol)
 Warning -- explicit consideration of  25 degrees of freedom as
           vibrations may cause significant error
 Vibrational temperatures:     24.82    43.00    53.69    90.45   103.24
          (Kelvin)            150.11   193.26   233.76   308.95   323.23
                              334.59   344.53   404.45   469.01   514.42
                              538.65   545.85   613.18   629.34   651.57
                              707.87   742.32   797.45   842.96   864.42
                              931.83   964.90  1036.33  1104.40  1125.51
                             1146.98  1169.38  1199.38  1217.38  1237.79
                             1270.82  1299.98  1313.76  1324.22  1340.07
                             1359.49  1386.06  1420.69  1438.81  1490.84
                             1498.68  1572.25  1593.82  1619.22  1669.66
                             1712.08  1730.02  1733.77  1736.51  1775.75
                             1801.76  1833.50  1861.20  1865.98  1893.19
                             1902.74  1919.86  1925.52  1940.65  1961.31
                             1964.85  1970.30  1986.71  2013.94  2041.00
                             2110.73  2126.80  2184.47  2187.07  2193.77
                             2221.60  2230.08  2232.06  2252.28  2363.80
                             2429.92  2457.53  3396.69  4235.84  4355.31
                             4374.74  4381.26  4385.72  4390.60  4394.39
                             4407.27  4440.29  4450.29  4464.75  4470.14
                             4481.26  4554.87  4566.21  4636.20  5043.55
                             5147.51  5184.11

 Zero-point correction=                           0.312848 (Hartree/Particle)
 Thermal correction to Energy=                    0.329389
 Thermal correction to Enthalpy=                  0.330333
 Thermal correction to Gibbs Free Energy=         0.266358
 Sum of electronic and zero-point Energies=           -708.929357
 Sum of electronic and thermal Energies=              -708.912816
 Sum of electronic and thermal Enthalpies=            -708.911872
 Sum of electronic and thermal Free Energies=         -708.975847

                     E (Thermal)             CV                S
                      KCal/Mol        Cal/Mol-Kelvin    Cal/Mol-Kelvin
 Total                  206.695             63.111            134.646
 Electronic               0.000              0.000              0.000
 Translational            0.889              2.981             42.190
 Rotational               0.889              2.981             33.637
 Vibrational            204.917             57.150             58.820
 Vibration     1          0.593              1.986              6.928
 Vibration     2          0.594              1.984              5.837
 Vibration     3          0.594              1.982              5.397
 Vibration     4          0.597              1.972              4.365
 Vibration     5          0.598              1.967              4.105
 Vibration     6          0.605              1.946              3.372
 Vibration     7          0.613              1.919              2.883
 Vibration     8          0.623              1.888              2.521
 Vibration     9          0.645              1.819              2.003
 Vibration    10          0.649              1.803              1.921
 Vibration    11          0.653              1.791              1.859
 Vibration    12          0.657              1.780              1.807
 Vibration    13          0.681              1.709              1.527
 Vibration    14          0.710              1.624              1.280
 Vibration    15          0.733              1.560              1.133
 Vibration    16          0.746              1.525              1.062
 Vibration    17          0.749              1.514              1.042
 Vibration    18          0.788              1.413              0.871
 Vibration    19          0.798              1.389              0.835
 Vibration    20          0.811              1.355              0.787
 Vibration    21          0.848              1.268              0.678
 Vibration    22          0.871              1.215              0.619
 Vibration    23          0.910              1.130              0.535
 Vibration    24          0.943              1.062              0.475
 Vibration    25          0.959              1.030              0.448

 Optimization completed.
    -- Stationary point found.
 Normal termination of Gaussian 16 at Fri Dec 11 12:07:54 2020.

 ----------------------------------------------------------------------
 # B3LYP/6-311++G(d,p) empiricaldispersion=gd3bj scf=xqc pop=npa geom=c
 heck
 ----------------------------------------------------------------------

 ---------------------------------------
 CID_113717504_JID_7286_Energie_neutraal
 ---------------------------------------
 Structure from the checkpoint file:  "JID_7286.chk"
 Charge =  0 Multiplicity = 1

 SCF Done:  E(RB3LYP) =  -709.440399569     A.U. after   16 cycles
 Normal termination of Gaussian 16 at Fri Dec 11 12:14:51 2020.

 ----------------------------------------------------------------------
 # B3LYP/6-311++G(d,p) empiricaldispersion=gd3bj scf=xqc pop=npa geom=c
 heck
 ----------------------------------------------------------------------

 -------------------------------------
 CID_113717504_JID_7286_Energie_kation
 -------------------------------------
 Structure from the checkpoint file:  "JID_7286.chk"
 Charge =  1 Multiplicity = 2

 SCF Done:  E(UB3LYP) =  -709.184082596     A.U. after   22 cycles
 Normal termination of Gaussian 16 at Fri Dec 11 12:28:22 2020.
 Gaussian 16:  ES64L-G16RevA.03 25-Dec-2016

 ----------------------------------------------------------------------
 # B3LYP/6-311++G(d,p) empiricaldispersion=gd3bj scf=xqc pop=npa geom=c
 heck
 ----------------------------------------------------------------------

 ------------------------------------
 CID_113717504_JID_7286_Energie_anion
 ------------------------------------
 Structure from the checkpoint file:  "JID_7286.chk"
 Charge = -1 Multiplicity = 2

                         Standard orientation:
 ---------------------------------------------------------------------
 Center     Atomic      Atomic             Coordinates (Angstroms)
 Number     Number       Type             X           Y           Z
 ---------------------------------------------------------------------
      1          6           0        5.126620    1.451047    0.219319
      2          6           0        5.598445    0.071861    0.711800
      3          6           0        4.613800   -0.941631    0.070782
      4          6           0        3.404459   -0.111572   -0.451595
      5          6           0        3.601566    1.294549    0.156874
      6          6           0        2.064650   -0.761819   -0.119960
      7          7           0        0.959055   -0.004993   -0.683006
      8          6           0       -0.361848   -0.369107   -0.405257
      9          6           0       -1.402062    0.535859   -0.676651
     10          6           0       -2.736011    0.205673   -0.465393
     11          6           0       -3.082284   -1.055515    0.060601
     12          6           0       -2.048114   -1.955965    0.329347
     13          6           0       -0.712523   -1.629994    0.099834
     14          7           0       -4.440407   -1.401505    0.232165
     15          6           0       -3.831571    1.188103   -0.835065
     16          6           0       -4.572454    1.672931    0.337672
     17          7           0       -5.159426    1.992435    1.287472
     18          1           0        5.517642    1.648586   -0.787544
     19          1           0        5.451951    2.273559    0.864845
     20          1           0        6.642866   -0.135460    0.458338
     21          1           0        5.519903    0.029832    1.804808
     22          1           0        4.287811   -1.688357    0.804299
     23          1           0        5.081689   -1.493672   -0.750589
     24          1           0        3.473112   -0.024226   -1.543638
     25          1           0        3.183418    1.321565    1.173668
     26          1           0        3.116705    2.089693   -0.421571
     27          1           0        2.042544   -1.776038   -0.538945
     28          1           0        1.976317   -0.870483    0.977649
     29          1           0        1.105974    0.995862   -0.639746
     30          1           0       -1.157272    1.515730   -1.082286
     31          1           0       -2.291315   -2.934715    0.737211
     32          1           0        0.054041   -2.360993    0.329917
     33          1           0       -4.973648   -0.707862    0.750317
     34          1           0       -4.550304   -2.303682    0.682881
     35          1           0       -3.414463    2.048773   -1.367780
     36          1           0       -4.557557    0.703793   -1.502098
 ---------------------------------------------------------------------

 SCF Done:  E(UB3LYP) =  -709.427522169     A.U. after   33 cycles
 SCF Done:  E(UB3LYP) =  -709.430008883     a.u. after    7 cycles

 The electronic state is 2-A.
 Alpha  occ. eigenvalues --  -14.23244 -14.23010 -14.22965 -10.13600 -10.13347
 Alpha  occ. eigenvalues --  -10.12124 -10.12037 -10.11196 -10.10347 -10.08706
 Alpha  occ. eigenvalues --  -10.08516 -10.08511 -10.08256 -10.07901 -10.07796
 Alpha  occ. eigenvalues --  -10.07781 -10.07744  -0.84820  -0.83658  -0.82582
 Alpha  occ. eigenvalues --   -0.75943  -0.74704  -0.71144  -0.66565  -0.63918
 Alpha  occ. eigenvalues --   -0.62530  -0.61689  -0.56725  -0.53356  -0.50314
 Alpha  occ. eigenvalues --   -0.48541  -0.47485  -0.45082  -0.43461  -0.42046
 Alpha  occ. eigenvalues --   -0.41391  -0.40350  -0.38906  -0.37730  -0.37080
 Alpha  occ. eigenvalues --   -0.36187  -0.34824  -0.33796  -0.33202  -0.32594
 Alpha  occ. eigenvalues --   -0.31640  -0.30769  -0.29053  -0.28462  -0.27243
 Alpha  occ. eigenvalues --   -0.25587  -0.25332  -0.25141  -0.24916  -0.24579
 Alpha  occ. eigenvalues --   -0.24401  -0.24063  -0.23900  -0.22771  -0.17899
 Alpha  occ. eigenvalues --   -0.16860  -0.10133   0.03766
 Alpha virt. eigenvalues --    0.05160   0.05683   0.06539   0.06928   0.07002
 Alpha virt. eigenvalues --    0.07270   0.08393   0.08682   0.09065   0.09633
 Alpha virt. eigenvalues --    0.09756   0.10068   0.10336   0.10741   0.10778

  Beta  occ. eigenvalues --  -14.23233 -14.22983 -14.22954 -10.13568 -10.13347
  Beta  occ. eigenvalues --  -10.12125 -10.12035 -10.11187 -10.10346 -10.08699
  Beta  occ. eigenvalues --  -10.08504 -10.08492 -10.08250 -10.07886 -10.07777
  Beta  occ. eigenvalues --  -10.07759 -10.07724  -0.84802  -0.83632  -0.82556
  Beta  occ. eigenvalues --   -0.75918  -0.74676  -0.71112  -0.66538  -0.63881
  Beta  occ. eigenvalues --   -0.62488  -0.61652  -0.56688  -0.53314  -0.50286
  Beta  occ. eigenvalues --   -0.48479  -0.47444  -0.45052  -0.43422  -0.42006
  Beta  occ. eigenvalues --   -0.41354  -0.40311  -0.38859  -0.37697  -0.37054
  Beta  occ. eigenvalues --   -0.36153  -0.34797  -0.33754  -0.33174  -0.32564
  Beta  occ. eigenvalues --   -0.31613  -0.30738  -0.29035  -0.28444  -0.27212
  Beta  occ. eigenvalues --   -0.25548  -0.25305  -0.25107  -0.24888  -0.24553
  Beta  occ. eigenvalues --   -0.24370  -0.24033  -0.23870  -0.22742  -0.17877
  Beta  occ. eigenvalues --   -0.16843  -0.10114
  Beta virt. eigenvalues --    0.05699   0.05982   0.06436   0.06803   0.07278
  Beta virt. eigenvalues --    0.07385   0.07749   0.08816   0.08926   0.09176
  Beta virt. eigenvalues --    0.09808   0.10009   0.10345   0.10433   0.10807

 Mulliken charges and spin densities:
               1          2
     1  C   -0.975306   0.679073
     2  C    0.640084  -1.033240
     3  C   -0.273752  -0.291016
     4  C   -1.504956   2.141248
     5  C    0.864833  -1.314422
     6  C    1.036622  -1.942553
     7  N    0.048808   0.072437
     8  C    0.508308  -0.886811
     9  C   -0.178882  -0.548608
    10  C    0.224251   1.501185
    11  C   -1.984780   0.791790
    12  C   -0.613994   0.258260
    13  C    1.384217  -1.045689
    14  N   -0.316484   0.035740
    15  C    1.464730  -1.501294
    16  C    0.629662  -0.874076
    17  N   -0.365360   0.038990
    18  H   -0.003892   0.144152
    19  H   -0.253251   0.418399
    20  H   -0.150512   0.301538
    21  H    0.012478   0.117988
    22  H   -0.088347   0.230766
    23  H   -0.025596   0.162869
    24  H   -0.108234   0.319576
    25  H   -0.008801   0.175980
    26  H   -0.292321   0.411258
    27  H    0.064736   0.119431
    28  H    0.047599   0.123140
    29  H    0.530588  -0.293009
    30  H   -0.697314   0.882577
    31  H   -0.554380   0.705785
    32  H    0.166699  -0.035770
    33  H    0.196878   0.036977
    34  H   -0.047946   0.297804
    35  H   -0.376738   0.565591
    36  H    0.000354   0.233937
 Sum of Mulliken charges =  -1.00000   1.00000

 Dipole moment (field-independent basis, Debye):
    X=              0.4761    Y=             -2.5495    Z=             -0.1796  Tot=              2.5998
 Quadrupole moment (field-independent basis, Debye-Ang):
   XX=           -226.3155   YY=           -152.8429   ZZ=           -138.6257
   XY=              1.0275   XZ=              5.9820   YZ=             -0.7465

 Summary of Natural Population Analysis:

                                       Natural Population
                Natural  -----------------------------------------------
    Atom  No    Charge         Core      Valence    Rydberg      Total
 -----------------------------------------------------------------------
      C    1   -0.18771      0.99964     2.18119    0.00688     3.18771
      C    2   -0.19081      0.99964     2.18427    0.00690     3.19081
      C    3   -0.18842      0.99963     2.18157    0.00723     3.18842
      C    4   -0.11415      0.99960     2.10453    0.01002     3.11415
      C    5   -0.19673      0.99962     2.18652    0.01059     3.19673
      C    6   -0.08031      0.99959     2.07082    0.00989     3.08031
      N    7   -0.31331      0.99967     2.80386    0.00977     3.81331
      C    8    0.08343      0.99949     1.90686    0.01021     2.91657
      C    9   -0.10540      0.99949     2.09683    0.00908     3.10540
      C   10   -0.02605      0.99946     2.01610    0.01049     3.02605
      C   11    0.06573      0.99943     1.92370    0.01114     2.93427
      C   12   -0.10837      0.99953     2.09915    0.00969     3.10837
      C   13   -0.12171      0.99953     2.11435    0.00783     3.12171
      N   14   -0.40629      0.99972     2.89707    0.00949     3.90629
      C   15   -0.25207      0.99952     2.24343    0.00913     3.25207
      C   16    0.16173      0.99965     1.82205    0.01657     2.83827
      N   17   -0.18905      0.99979     2.67739    0.01188     3.68905
      H   18    0.09426      0.00000     0.40412    0.00162     0.40574
      H   19    0.09973      0.00000     0.39903    0.00125     0.40027
      H   20    0.09938      0.00000     0.39927    0.00136     0.40062
      H   21    0.09369      0.00000     0.40478    0.00153     0.40631
      H   22    0.09686      0.00000     0.40184    0.00129     0.40314
      H   23    0.09947      0.00000     0.39925    0.00128     0.40053
      H   24    0.09919      0.00000     0.39925    0.00156     0.40081
      H   25    0.09465      0.00000     0.40402    0.00133     0.40535
      H   26    0.10189      0.00000     0.39657    0.00154     0.39811
      H   27    0.09349      0.00000     0.40460    0.00190     0.40651
      H   28    0.08374      0.00000     0.41435    0.00191     0.41626
      H   29    0.18390      0.00000     0.31216    0.00394     0.31610
      H   30    0.10095      0.00000     0.39712    0.00193     0.39905
      H   31    0.09908      0.00000     0.39974    0.00118     0.40092
      H   32    0.10315      0.00000     0.39543    0.00142     0.39685
      H   33    0.18737      0.00000     0.31079    0.00184     0.31263
      H   34    0.18366      0.00000     0.31443    0.00191     0.31634
      H   35    0.12665      0.00000     0.37126    0.00209     0.37335
      H   36    0.12840      0.00000     0.36998    0.00163     0.37160
 =======================================================================
   * Total *    0.00000     16.99301    44.80768    0.19931    62.00000

 Normal termination of Gaussian 16 at Fri Dec 11 14:22:10 2020.
