 Gaussian 16, Revision A.03,

 -----------------------------------------------------------
 # opt freq B3LYP/6-31G(d) empiricaldispersion=gd3bj scf=xqc
 -----------------------------------------------------------

 ------------------------------
 CID_63381021_JID_4534_neutraal
 ------------------------------
 Symbolic Z-matrix:
 Charge =  0 Multiplicity = 1

 SCF Done:  E(RB3LYP) =  -654.299849292     A.U. after   14 cycles
 SCF Done:  E(RB3LYP) =  -654.304331021     A.U. after   12 cycles
 SCF Done:  E(RB3LYP) =  -654.304475389     A.U. after   12 cycles
 SCF Done:  E(RB3LYP) =  -654.305869025     A.U. after   12 cycles
 SCF Done:  E(RB3LYP) =  -654.304896715     A.U. after   13 cycles
 SCF Done:  E(RB3LYP) =  -654.306517008     A.U. after   12 cycles
 SCF Done:  E(RB3LYP) =  -654.306716650     A.U. after   11 cycles
 SCF Done:  E(RB3LYP) =  -654.306782449     A.U. after   11 cycles
 SCF Done:  E(RB3LYP) =  -654.306794604     A.U. after   10 cycles
 SCF Done:  E(RB3LYP) =  -654.306799033     A.U. after   10 cycles
 SCF Done:  E(RB3LYP) =  -654.306802830     A.U. after    9 cycles
 SCF Done:  E(RB3LYP) =  -654.306803410     A.U. after    8 cycles
 SCF Done:  E(RB3LYP) =  -654.306803737     A.U. after    7 cycles
 SCF Done:  E(RB3LYP) =  -654.306803952     A.U. after    7 cycles
 SCF Done:  E(RB3LYP) =  -654.306804069     A.U. after    7 cycles
 SCF Done:  E(RB3LYP) =  -654.306804107     A.U. after    6 cycles
 Optimization completed.
    -- Stationary point found.
 Normal termination of Gaussian 16 at Thu Dec 10 10:05:32 2020.

 --------------------------------------------------------------------
 #N Geom=AllCheck Guess=TCheck SCRF=Check GenChk RB3LYP/6-31G(d) Freq
 --------------------------------------------------------------------

 Structure from the checkpoint file:  "JID_4534.chk"
 ------------------------------
 CID_63381021_JID_4534_neutraal
 ------------------------------
 Charge =  0 Multiplicity = 1

 SCF Done:  E(RB3LYP) =  -654.306804107     A.U. after    1 cycles

  Exact polarizability: 145.654  -3.648 118.603   1.880   0.714 110.070
 Approx polarizability: 169.838  -4.627 170.341   0.139   6.998 168.655

                      1                      2                      3
                      A                      A                      A
 Frequencies --     18.4036                21.4940                50.7205
 Red. masses --      4.0606                 4.5426                 3.4562
 Frc consts  --      0.0008                 0.0012                 0.0052
 IR Inten    --      0.5657                 1.1002                 0.5904

                      4                      5                      6
                      A                      A                      A
 Frequencies --     62.8898                78.4366                95.9132
 Red. masses --      3.4461                 3.1950                 3.6156
 Frc consts  --      0.0080                 0.0116                 0.0196
 IR Inten    --      0.3483                 3.0824                 0.1021

                      7                      8                      9
                      A                      A                      A
 Frequencies --    135.8959               150.0575               163.5272
 Red. masses --      1.3907                 1.9790                 2.7551
 Frc consts  --      0.0151                 0.0263                 0.0434
 IR Inten    --      0.6153                 0.1959                 9.0069

                     10                     11                     12
                      A                      A                      A
 Frequencies --    174.9857               194.9892               207.1124
 Red. masses --      3.3200                 2.7550                 2.1855
 Frc consts  --      0.0599                 0.0617                 0.0552
 IR Inten    --      3.7147                 6.5421                 5.3977

                     13                     14                     15
                      A                      A                      A
 Frequencies --    242.2988               261.5354               274.0661
 Red. masses --      1.4781                 1.2228                 1.1581
 Frc consts  --      0.0511                 0.0493                 0.0513
 IR Inten    --      3.5805                19.9198                10.8397

                     16                     17                     18
                      A                      A                      A
 Frequencies --    292.2596               305.4486               344.4377
 Red. masses --      2.0535                 1.9238                 3.6834
 Frc consts  --      0.1033                 0.1057                 0.2575
 IR Inten    --      3.6862                15.5445                18.3029

                     19                     20                     21
                      A                      A                      A
 Frequencies --    371.8199               411.9617               435.8558
 Red. masses --      2.2307                 1.9224                 2.0152
 Frc consts  --      0.1817                 0.1922                 0.2256
 IR Inten    --      5.9607                 0.1592                 7.1573

                     22                     23                     24
                      A                      A                      A
 Frequencies --    473.4892               490.4150               517.4172
 Red. masses --      1.9092                 3.9694                 2.6540
 Frc consts  --      0.2522                 0.5625                 0.4186
 IR Inten    --      1.2499                 4.9890                 3.1238

                     25                     26                     27
                      A                      A                      A
 Frequencies --    577.7588               585.2634               730.0024
 Red. masses --      3.2934                 3.5013                 2.1424
 Frc consts  --      0.6477                 0.7066                 0.6727
 IR Inten    --      9.0980                13.3725                 2.5666

                     28                     29                     30
                      A                      A                      A
 Frequencies --    766.5293               795.8233               811.3990
 Red. masses --      2.0745                 2.7679                 2.9190
 Frc consts  --      0.7182                 1.0328                 1.1323
 IR Inten    --      5.4700                 2.0990                 7.1588

                     31                     32                     33
                      A                      A                      A
 Frequencies --    851.7719               872.9131               901.9124
 Red. masses --      2.7494                 1.3253                 2.5781
 Frc consts  --      1.1752                 0.5950                 1.2356
 IR Inten    --      6.7160               141.5888                12.6717

                     34                     35                     36
                      A                      A                      A
 Frequencies --    918.8583               926.5221               969.2565
 Red. masses --      2.0973                 1.8973                 1.8055
 Frc consts  --      1.0433                 0.9596                 0.9994
 IR Inten    --      3.0898                 6.4331                 4.1289

                     37                     38                     39
                      A                      A                      A
 Frequencies --   1010.3039              1022.2328              1041.4596
 Red. masses --      1.5591                 3.0110                 1.8529
 Frc consts  --      0.9376                 1.8538                 1.1841
 IR Inten    --      7.7754                 6.4750                33.3583

                     40                     41                     42
                      A                      A                      A
 Frequencies --   1065.6429              1080.0966              1102.8743
 Red. masses --      2.0244                 2.0890                 2.0307
 Frc consts  --      1.3545                 1.4358                 1.4553
 IR Inten    --     73.0640                26.9962                13.2996

                     43                     44                     45
                      A                      A                      A
 Frequencies --   1121.8360              1124.9969              1142.2477
 Red. masses --      2.1435                 1.7422                 2.0040
 Frc consts  --      1.5894                 1.2991                 1.5406
 IR Inten    --     20.6015                29.1095                14.7370

                     46                     47                     48
                      A                      A                      A
 Frequencies --   1158.4334              1168.9920              1186.2031
 Red. masses --      1.5959                 1.3029                 1.2801
 Frc consts  --      1.2619                 1.0490                 1.0612
 IR Inten    --      7.9552                 2.4601                 1.2029

                     49                     50                     51
                      A                      A                      A
 Frequencies --   1216.5957              1226.3396              1231.2388
 Red. masses --      1.5265                 1.6236                 1.3396
 Frc consts  --      1.3312                 1.4386                 1.1965
 IR Inten    --      3.3127                18.5948                 1.5673

                     52                     53                     54
                      A                      A                      A
 Frequencies --   1250.8758              1275.3554              1314.1866
 Red. masses --      1.4671                 2.6380                 1.6642
 Frc consts  --      1.3525                 2.5281                 1.6934
 IR Inten    --     21.2437               278.4084                47.5423

                     55                     56                     57
                      A                      A                      A
 Frequencies --   1319.8640              1348.8081              1361.4008
 Red. masses --      1.5449                 1.7836                 1.3347
 Frc consts  --      1.5857                 1.9118                 1.4575
 IR Inten    --     23.4006                19.2234                 7.3105

                     58                     59                     60
                      A                      A                      A
 Frequencies --   1373.9444              1392.8640              1397.9361
 Red. masses --      1.2446                 1.3076                 1.4818
 Frc consts  --      1.3843                 1.4946                 1.7061
 IR Inten    --      4.2825                17.1099                 9.6874

                     61                     62                     63
                      A                      A                      A
 Frequencies --   1408.3443              1417.1264              1427.3794
 Red. masses --      1.3616                 1.4069                 1.3096
 Frc consts  --      1.5912                 1.6647                 1.5721
 IR Inten    --      9.8818                12.7480                 5.3305

                     64                     65                     66
                      A                      A                      A
 Frequencies --   1440.0788              1449.4461              1484.5479
 Red. masses --      1.2763                 1.4241                 1.1429
 Frc consts  --      1.5595                 1.7628                 1.4840
 IR Inten    --     11.5798                10.1699                 1.8167

                     67                     68                     69
                      A                      A                      A
 Frequencies --   1491.2249              1504.1900              1509.5615
 Red. masses --      1.2098                 1.0859                 1.0837
 Frc consts  --      1.5850                 1.4476                 1.4550
 IR Inten    --      7.0134                10.3217                 3.7003

                     70                     71                     72
                      A                      A                      A
 Frequencies --   1512.4175              1520.3419              1523.3324
 Red. masses --      1.0482                 1.0783                 1.0670
 Frc consts  --      1.4126                 1.4685                 1.4589
 IR Inten    --      6.3779                 3.7655                16.7581

                     73                     74                     75
                      A                      A                      A
 Frequencies --   1523.7461              1527.2386              1529.5644
 Red. masses --      1.0476                 1.0558                 1.0873
 Frc consts  --      1.4331                 1.4509                 1.4988
 IR Inten    --      7.3928                 4.4456                 0.1583

                     76                     77                     78
                      A                      A                      A
 Frequencies --   1538.3913              1543.2245              1555.1018
 Red. masses --      1.0638                 1.0861                 1.0567
 Frc consts  --      1.4833                 1.5240                 1.5057
 IR Inten    --     11.8297                10.2054                 4.0388

                     79                     80                     81
                      A                      A                      A
 Frequencies --   1700.8960              1805.5555              2951.7428
 Red. masses --      1.0881                11.2547                 1.0723
 Frc consts  --      1.8546                21.6175                 5.5044
 IR Inten    --     30.7586               180.7630                85.4418

                     82                     83                     84
                      A                      A                      A
 Frequencies --   2957.2775              3012.2539              3016.4322
 Red. masses --      1.0613                 1.0809                 1.0688
 Frc consts  --      5.4688                 5.7785                 5.7298
 IR Inten    --    124.8323                18.3559                36.8184

                     85                     86                     87
                      A                      A                      A
 Frequencies --   3041.5910              3046.6649              3056.1908
 Red. masses --      1.0668                 1.0621                 1.0485
 Frc consts  --      5.8149                 5.8085                 5.7701
 IR Inten    --     44.7957                 9.9203                21.8009

                     88                     89                     90
                      A                      A                      A
 Frequencies --   3059.4449              3071.6541              3073.5598
 Red. masses --      1.0549                 1.0915                 1.0768
 Frc consts  --      5.8176                 6.0674                 5.9935
 IR Inten    --     31.2175                11.9294                21.8940

                     91                     92                     93
                      A                      A                      A
 Frequencies --   3074.9271              3076.1396              3089.2480
 Red. masses --      1.0868                 1.0296                 1.0967
 Frc consts  --      6.0544                 5.7404                 6.1668
 IR Inten    --     66.3880                33.9300                58.0910

                     94                     95                     96
                      A                      A                      A
 Frequencies --   3090.3477              3105.4217              3128.4390
 Red. masses --      1.1015                 1.1052                 1.0963
 Frc consts  --      6.1981                 6.2799                 6.3217
 IR Inten    --     61.8344                24.8618                27.3057

                     97                     98                     99
                      A                      A                      A
 Frequencies --   3147.7495              3150.6373              3151.8332
 Red. masses --      1.0982                 1.1072                 1.1031
 Frc consts  --      6.4112                 6.4753                 6.4564
 IR Inten    --     10.3208                12.7978                28.8931

                    100                    101                    102
                      A                      A                      A
 Frequencies --   3182.1175              3471.1008              3552.8625
 Red. masses --      1.1073                 1.0499                 1.0920
 Frc consts  --      6.6061                 7.4531                 8.1215
 IR Inten    --     18.3195                 1.6393                 0.8123

 - Thermochemistry -
 -------------------
 Temperature   298.150 Kelvin.  Pressure   1.00000 Atm.
 Atom     1 has atomic number  6 and mass  12.00000

 Molecular mass:   202.16813 amu.
 Principal axes and moments of inertia in atomic units:
                           1         2         3
     Eigenvalues --  1315.007395992.133816475.25066
           X            0.99998  -0.00212   0.00636
           Y            0.00217   0.99997  -0.00776
           Z           -0.00634   0.00777   0.99995
 This molecule is an asymmetric top.
 Rotational symmetry number  1.
 Warning -- assumption of classical behavior for rotation
           may cause significant error
 Rotational temperatures (Kelvin)      0.06587     0.01445     0.01338
 Rotational constants (GHZ):           1.37242     0.30119     0.27871
 Zero-point vibrational energy     857348.7 (Joules/Mol)
                                  204.91126 (Kcal/Mol)
 Warning -- explicit consideration of  26 degrees of freedom as
           vibrations may cause significant error
 Vibrational temperatures:     26.48    30.93    72.98    90.48   112.85
          (Kelvin)            138.00   195.52   215.90   235.28   251.77
                              280.55   297.99   348.61   376.29   394.32
                              420.50   439.47   495.57   534.97   592.72
                              627.10   681.25   705.60   744.45   831.27
                              842.06  1050.31  1102.86  1145.01  1167.42
                             1225.51  1255.93  1297.65  1322.03  1333.06
                             1394.54  1453.60  1470.76  1498.43  1533.22
                             1554.02  1586.79  1614.07  1618.62  1643.44
                             1666.73  1681.92  1706.68  1750.41  1764.43
                             1771.48  1799.73  1834.95  1890.82  1898.99
                             1940.63  1958.75  1976.80  2004.02  2011.32
                             2026.29  2038.93  2053.68  2071.95  2085.43
                             2135.93  2145.54  2164.19  2171.92  2176.03
                             2187.43  2191.74  2192.33  2197.36  2200.70
                             2213.40  2220.36  2237.44  2447.21  2597.79
                             4246.90  4254.86  4333.96  4339.97  4376.17
                             4383.47  4397.18  4401.86  4419.43  4422.17
                             4424.13  4425.88  4444.74  4446.32  4468.01
                             4501.13  4528.91  4533.06  4534.79  4578.36
                             4994.14  5111.78

 Zero-point correction=                           0.326547 (Hartree/Particle)
 Thermal correction to Energy=                    0.343758
 Thermal correction to Enthalpy=                  0.344703
 Thermal correction to Gibbs Free Energy=         0.279787
 Sum of electronic and zero-point Energies=           -653.980257
 Sum of electronic and thermal Energies=              -653.963046
 Sum of electronic and thermal Enthalpies=            -653.962101
 Sum of electronic and thermal Free Energies=         -654.027017

                     E (Thermal)             CV                S
                      KCal/Mol        Cal/Mol-Kelvin    Cal/Mol-Kelvin
 Total                  215.712             61.853            136.626
 Electronic               0.000              0.000              0.000
 Translational            0.889              2.981             41.816
 Rotational               0.889              2.981             32.301
 Vibrational            213.934             55.892             62.509
 Vibration     1          0.593              1.986              6.799
 Vibration     2          0.593              1.985              6.491
 Vibration     3          0.595              1.977              4.789
 Vibration     4          0.597              1.972              4.364
 Vibration     5          0.600              1.964              3.930
 Vibration     6          0.603              1.952              3.536
 Vibration     7          0.614              1.917              2.861
 Vibration     8          0.618              1.903              2.671
 Vibration     9          0.623              1.887              2.509
 Vibration    10          0.627              1.873              2.381
 Vibration    11          0.636              1.847              2.180
 Vibration    12          0.641              1.830              2.069
 Vibration    13          0.658              1.775              1.786
 Vibration    14          0.669              1.743              1.651
 Vibration    15          0.676              1.721              1.570
 Vibration    16          0.688              1.688              1.461
 Vibration    17          0.696              1.663              1.387
 Vibration    18          0.723              1.587              1.192
 Vibration    19          0.744              1.530              1.072
 Vibration    20          0.776              1.444              0.920
 Vibration    21          0.796              1.392              0.840
 Vibration    22          0.830              1.309              0.728
 Vibration    23          0.846              1.271              0.683
 Vibration    24          0.872              1.211              0.616
 Vibration    25          0.934              1.079              0.490
 Vibration    26          0.942              1.063              0.476

 Optimization completed.
    -- Stationary point found.
 Normal termination of Gaussian 16 at Thu Dec 10 10:15:54 2020.

 ----------------------------------------------------------------------
 # B3LYP/6-311++G(d,p) empiricaldispersion=gd3bj scf=xqc pop=npa geom=c
 heck
 ----------------------------------------------------------------------

 --------------------------------------
 CID_63381021_JID_4534_Energie_neutraal
 --------------------------------------
 Structure from the checkpoint file:  "JID_4534.chk"
 Charge =  0 Multiplicity = 1

 SCF Done:  E(RB3LYP) =  -654.506003368     A.U. after   14 cycles
 Normal termination of Gaussian 16 at Thu Dec 10 10:20:18 2020.

 ----------------------------------------------------------------------
 # B3LYP/6-311++G(d,p) empiricaldispersion=gd3bj scf=xqc pop=npa geom=c
 heck
 ----------------------------------------------------------------------

 ------------------------------------
 CID_63381021_JID_4534_Energie_kation
 ------------------------------------
 Structure from the checkpoint file:  "JID_4534.chk"
 Charge =  1 Multiplicity = 2

 SCF Done:  E(UB3LYP) =  -654.227089963     A.U. after   27 cycles
 Normal termination of Gaussian 16 at Thu Dec 10 10:32:42 2020.
 Gaussian 16:  ES64L-G16RevA.03 25-Dec-2016

 ----------------------------------------------------------------------
 # B3LYP/6-311++G(d,p) empiricaldispersion=gd3bj scf=xqc pop=npa geom=c
 heck
 ----------------------------------------------------------------------

 -----------------------------------
 CID_63381021_JID_4534_Energie_anion
 -----------------------------------
 Structure from the checkpoint file:  "JID_4534.chk"
 Charge = -1 Multiplicity = 2

                         Standard orientation:
 ---------------------------------------------------------------------
 Center     Atomic      Atomic             Coordinates (Angstroms)
 Number     Number       Type             X           Y           Z
 ---------------------------------------------------------------------
      1          6           0       -1.085086   -2.028728   -0.531394
      2          6           0       -1.311852   -1.052875    0.624868
      3          6           0       -0.111526   -0.103441    0.833291
      4          7           0        0.116423    0.759298   -0.324191
      5          6           0       -0.143677    2.171709   -0.093520
      6          6           0        1.297274    0.487608   -1.140608
      7          6           0        2.628679    1.132258   -0.703744
      8          6           0        3.204806    0.669732    0.642192
      9          6           0        3.604297   -0.808583    0.697327
     10          7           0        4.632994   -1.115506   -0.304206
     11          6           0       -2.578883   -0.217340    0.497346
     12          8           0       -2.843020    0.733273    1.206615
     13          8           0       -3.405550   -0.653194   -0.475056
     14          6           0       -4.617415    0.100839   -0.628840
     15          1           0       -0.960675   -1.481790   -1.469857
     16          1           0       -1.924736   -2.717988   -0.648374
     17          1           0       -0.178414   -2.617543   -0.349078
     18          1           0       -1.437039   -1.623627    1.558534
     19          1           0       -0.295536    0.502958    1.726680
     20          1           0        0.767587   -0.722475    1.042436
     21          1           0        0.574028    2.656267    0.593601
     22          1           0       -0.104476    2.707708   -1.049424
     23          1           0       -1.144514    2.292303    0.326520
     24          1           0        1.409200   -0.600279   -1.209920
     25          1           0        1.081594    0.835512   -2.161436
     26          1           0        3.368910    0.949982   -1.495094
     27          1           0        2.501257    2.221100   -0.674596
     28          1           0        4.100253    1.264498    0.858655
     29          1           0        2.484938    0.874261    1.444878
     30          1           0        4.033423   -1.016421    1.684659
     31          1           0        2.705692   -1.446421    0.611106
     32          1           0        4.975373   -2.064218   -0.163007
     33          1           0        4.219428   -1.107031   -1.234881
     34          1           0       -5.205185    0.075148    0.292402
     35          1           0       -4.389828    1.141552   -0.873508
     36          1           0       -5.158352   -0.377745   -1.445499
 ---------------------------------------------------------------------

 SCF Done:  E(UB3LYP) =  -654.494039645     A.U. after   30 cycles

 The electronic state is 2-A.
 Alpha  occ. eigenvalues --  -19.07670 -19.01562 -14.20476 -14.19266 -10.20417
 Alpha  occ. eigenvalues --  -10.13190 -10.09948 -10.09432 -10.09228 -10.09108
 Alpha  occ. eigenvalues --  -10.08837 -10.06851 -10.06820 -10.06043  -1.01602
 Alpha  occ. eigenvalues --   -0.92603  -0.82518  -0.78387  -0.70963  -0.68073
 Alpha  occ. eigenvalues --   -0.63632  -0.61693  -0.59936  -0.56600  -0.53503
 Alpha  occ. eigenvalues --   -0.50074  -0.46854  -0.45535  -0.41746  -0.40085
 Alpha  occ. eigenvalues --   -0.39918  -0.38546  -0.38303  -0.37700  -0.36721
 Alpha  occ. eigenvalues --   -0.35657  -0.33788  -0.32663  -0.32203  -0.30742
 Alpha  occ. eigenvalues --   -0.30213  -0.29649  -0.29379  -0.28158  -0.27756
 Alpha  occ. eigenvalues --   -0.26989  -0.26651  -0.25401  -0.24725  -0.24233
 Alpha  occ. eigenvalues --   -0.23618  -0.22569  -0.21520  -0.18440  -0.14579
 Alpha  occ. eigenvalues --   -0.11144   0.04113
 Alpha virt. eigenvalues --    0.05738   0.06893   0.07297   0.07693   0.08827
 Alpha virt. eigenvalues --    0.09028   0.09342   0.09821   0.10167   0.10508
 Alpha virt. eigenvalues --    0.10634   0.11099   0.12074   0.12572   0.13013

  Beta  occ. eigenvalues --  -19.07662 -19.01547 -14.20474 -14.19221 -10.20402
  Beta  occ. eigenvalues --  -10.13156 -10.09939 -10.09415 -10.09203 -10.09100
  Beta  occ. eigenvalues --  -10.08825 -10.06846 -10.06810 -10.06019  -1.01580
  Beta  occ. eigenvalues --   -0.92580  -0.82507  -0.78314  -0.70933  -0.68040
  Beta  occ. eigenvalues --   -0.63585  -0.61650  -0.59904  -0.56549  -0.53444
  Beta  occ. eigenvalues --   -0.50026  -0.46814  -0.45498  -0.41710  -0.40039
  Beta  occ. eigenvalues --   -0.39883  -0.38507  -0.38267  -0.37673  -0.36684
  Beta  occ. eigenvalues --   -0.35615  -0.33750  -0.32629  -0.32162  -0.30712
  Beta  occ. eigenvalues --   -0.30182  -0.29603  -0.29346  -0.28138  -0.27727
  Beta  occ. eigenvalues --   -0.26964  -0.26622  -0.25372  -0.24706  -0.24209
  Beta  occ. eigenvalues --   -0.23591  -0.22543  -0.21475  -0.18419  -0.14532
  Beta  occ. eigenvalues --   -0.11127
  Beta virt. eigenvalues --    0.06171   0.06784   0.07320   0.07740   0.08178
  Beta virt. eigenvalues --    0.09175   0.09370   0.09465   0.10099   0.10397
  Beta virt. eigenvalues --    0.10812   0.11115   0.11399   0.12363   0.12795

 Mulliken charges and spin densities:
               1          2
     1  C    0.940908  -1.705515
     2  C   -0.151713   0.863714
     3  C   -0.274931  -0.638059
     4  N    0.118110   0.115513
     5  C   -0.105055  -0.219750
     6  C   -0.484744   0.101858
     7  C    0.213056  -0.575832
     8  C   -0.482056   0.379819
     9  C    1.161727  -1.569239
    10  N   -0.494955   0.119865
    11  C   -0.829067   0.389105
    12  O   -0.247594   0.015052
    13  O   -0.058546   0.048941
    14  C    0.657574  -0.857503
    15  H   -0.003981   0.202465
    16  H   -0.097103   0.280257
    17  H   -0.136431   0.277161
    18  H   -0.406092   0.629167
    19  H    0.144053   0.043291
    20  H    0.732683  -0.689067
    21  H    0.013788   0.095378
    22  H   -0.056899   0.197423
    23  H    0.181064  -0.022858
    24  H    0.270287  -0.109639
    25  H   -0.244227   0.421231
    26  H   -0.080021   0.231186
    27  H    0.166579  -0.033294
    28  H    0.081275   0.085640
    29  H    0.065051   0.077482
    30  H   -0.152493   0.311026
    31  H   -0.546640   0.693827
    32  H   -0.224777   0.472483
    33  H   -0.056135   0.269975
    34  H   -0.115216   0.284212
    35  H   -0.140831   0.308738
    36  H   -0.356646   0.505950
 Sum of Mulliken charges =  -1.00000   1.00000

 Dipole moment (field-independent basis, Debye):
    X=             -1.6902    Y=              3.8619    Z=              1.5776  Tot=              4.5011
 Quadrupole moment (field-independent basis, Debye-Ang):
   XX=           -188.5921   YY=           -130.9460   ZZ=           -123.2678
   XY=             12.2368   XZ=              0.3164   YZ=             -1.1238

 Summary of Natural Population Analysis:

                                       Natural Population
                Natural  -----------------------------------------------
    Atom  No    Charge         Core      Valence    Rydberg      Total
 -----------------------------------------------------------------------
      C    1   -0.28792      0.99965     2.28106    0.00721     3.28792
      C    2   -0.15536      0.99955     2.14409    0.01172     3.15536
      C    3   -0.08002      0.99958     2.06790    0.01254     3.08002
      N    4   -0.29306      0.99972     2.78013    0.01321     3.79306
      C    5   -0.17594      0.99964     2.16969    0.00661     3.17594
      C    6   -0.08127      0.99960     2.06950    0.01216     3.08127
      C    7   -0.20389      0.99962     2.19567    0.00860     3.20389
      C    8   -0.19573      0.99962     2.18837    0.00774     3.19573
      C    9   -0.09035      0.99964     2.07932    0.01139     3.09035
      N   10   -0.42468      0.99977     2.91402    0.01089     3.92468
      C   11    0.41907      0.99965     1.55404    0.02724     2.58093
      O   12   -0.31602      0.99987     3.31059    0.00555     4.31602
      O   13   -0.27496      0.99986     3.26583    0.00927     4.27496
      C   14   -0.10274      0.99959     2.09482    0.00833     3.10274
      H   15    0.10482      0.00000     0.39343    0.00176     0.39518
      H   16    0.10482      0.00000     0.39373    0.00145     0.39518
      H   17    0.09981      0.00000     0.39883    0.00136     0.40019
      H   18    0.10890      0.00000     0.38970    0.00140     0.39110
      H   19    0.09970      0.00000     0.39892    0.00137     0.40030
      H   20    0.09504      0.00000     0.40295    0.00201     0.40496
      H   21    0.07733      0.00000     0.42137    0.00130     0.42267
      H   22    0.09279      0.00000     0.40621    0.00100     0.40721
      H   23    0.10519      0.00000     0.39367    0.00114     0.39481
      H   24    0.09693      0.00000     0.40140    0.00167     0.40307
      H   25    0.09351      0.00000     0.40540    0.00109     0.40649
      H   26    0.09891      0.00000     0.39987    0.00122     0.40109
      H   27    0.09673      0.00000     0.40221    0.00106     0.40327
      H   28    0.09873      0.00000     0.40009    0.00119     0.40127
      H   29    0.09555      0.00000     0.40287    0.00158     0.40445
      H   30    0.09013      0.00000     0.40872    0.00116     0.40987
      H   31    0.07811      0.00000     0.41935    0.00254     0.42189
      H   32    0.17831      0.00000     0.31867    0.00301     0.32169
      H   33    0.17284      0.00000     0.32474    0.00242     0.32716
      H   34    0.09021      0.00000     0.40830    0.00148     0.40979
      H   35    0.09209      0.00000     0.40634    0.00157     0.40791
      H   36    0.09242      0.00000     0.40599    0.00159     0.40758
 =======================================================================
   * Total *   -0.00000     13.99537    41.81780    0.18683    56.00000

 Normal termination of Gaussian 16 at Thu Dec 10 10:47:39 2020.
