 Gaussian 16, Revision A.03,

 -----------------------------------------------------------
 # opt freq B3LYP/6-31G(d) empiricaldispersion=gd3bj scf=xqc
 -----------------------------------------------------------

 -------------------------------
 CID_152098229_JID_5813_neutraal
 -------------------------------
 Symbolic Z-matrix:
 Charge =  0 Multiplicity = 1

 SCF Done:  E(RB3LYP) =  -645.393719735     A.U. after   16 cycles
 SCF Done:  E(RB3LYP) =  -645.397020363     A.U. after   15 cycles
 SCF Done:  E(RB3LYP) =  -645.397884295     A.U. after   13 cycles
 SCF Done:  E(RB3LYP) =  -645.398463827     A.U. after   12 cycles
 SCF Done:  E(RB3LYP) =  -645.398661122     A.U. after   14 cycles
 SCF Done:  E(RB3LYP) =  -645.398730802     A.U. after   12 cycles
 SCF Done:  E(RB3LYP) =  -645.398766034     A.U. after   10 cycles
 SCF Done:  E(RB3LYP) =  -645.398773129     A.U. after    9 cycles
 SCF Done:  E(RB3LYP) =  -645.398773783     A.U. after    8 cycles
 SCF Done:  E(RB3LYP) =  -645.398774501     A.U. after    9 cycles
 SCF Done:  E(RB3LYP) =  -645.398774786     A.U. after    9 cycles
 SCF Done:  E(RB3LYP) =  -645.398774819     A.U. after    7 cycles
 Optimization completed.
    -- Stationary point found.
 Normal termination of Gaussian 16 at Thu Dec 10 17:06:24 2020.

 --------------------------------------------------------------------
 #N Geom=AllCheck Guess=TCheck SCRF=Check GenChk RB3LYP/6-31G(d) Freq
 --------------------------------------------------------------------

 Structure from the checkpoint file:  "JID_5813.chk"
 -------------------------------
 CID_152098229_JID_5813_neutraal
 -------------------------------
 Charge =  0 Multiplicity = 1

 SCF Done:  E(RB3LYP) =  -645.398774819     A.U. after    1 cycles

  Exact polarizability: 192.662  21.957 165.775  -4.822  18.079  72.731
 Approx polarizability: 320.405  53.720 275.271  -9.010  44.019 112.483

                      1                      2                      3
                      A                      A                      A
 Frequencies --     38.3944                45.9628                63.8567
 Red. masses --      3.5961                 4.5765                 5.9436
 Frc consts  --      0.0031                 0.0057                 0.0143
 IR Inten    --      0.0090                 0.0813                 0.1023

                      4                      5                      6
                      A                      A                      A
 Frequencies --     98.2357               119.2181               173.6741
 Red. masses --      4.6589                 2.2887                 4.3143
 Frc consts  --      0.0265                 0.0192                 0.0767
 IR Inten    --      0.2563                 0.3675                 0.1112

                      7                      8                      9
                      A                      A                      A
 Frequencies --    205.5960               223.0536               253.5503
 Red. masses --      4.3215                 2.0304                 2.1146
 Frc consts  --      0.1076                 0.0595                 0.0801
 IR Inten    --      1.4358                 2.5894                 2.0954

                     10                     11                     12
                      A                      A                      A
 Frequencies --    255.9936               320.5674               359.6491
 Red. masses --      4.1308                 2.5943                 3.5427
 Frc consts  --      0.1595                 0.1571                 0.2700
 IR Inten    --      1.6994                 0.2757                 0.4808

                     13                     14                     15
                      A                      A                      A
 Frequencies --    435.2665               445.8200               492.6864
 Red. masses --      3.0622                 3.2049                 6.3065
 Frc consts  --      0.3418                 0.3753                 0.9020
 IR Inten    --      1.9261                 2.6310                 0.5863

                     16                     17                     18
                      A                      A                      A
 Frequencies --    517.3259               543.1895               572.6167
 Red. masses --     13.7542                 4.0067                 4.4414
 Frc consts  --      2.1688                 0.6965                 0.8580
 IR Inten    --      9.0676                 0.4944                 2.3593

                     19                     20                     21
                      A                      A                      A
 Frequencies --    588.5043               610.9565               624.7265
 Red. masses --      4.7844                 4.0335                 3.0945
 Frc consts  --      0.9763                 0.8871                 0.7116
 IR Inten    --      0.2366                 5.4014                 4.1747

                     22                     23                     24
                      A                      A                      A
 Frequencies --    708.0359               749.6709               763.0062
 Red. masses --      5.6534                 1.2829                 1.6125
 Frc consts  --      1.6698                 0.4248                 0.5531
 IR Inten    --     17.4521                73.1559                 4.1761

                     25                     26                     27
                      A                      A                      A
 Frequencies --    777.1610               782.5538               813.3425
 Red. masses --      2.7206                 3.5787                 1.9800
 Frc consts  --      0.9681                 1.2912                 0.7717
 IR Inten    --     13.4991                 5.0283                 4.4663

                     28                     29                     30
                      A                      A                      A
 Frequencies --    838.0223               860.1262               873.1465
 Red. masses --      3.5132                 1.5055                 2.7172
 Frc consts  --      1.4537                 0.6562                 1.2205
 IR Inten    --      8.1359                 0.1076                 2.6547

                     31                     32                     33
                      A                      A                      A
 Frequencies --    921.6712               928.9078               971.2903
 Red. masses --      1.3307                 1.3331                 1.2369
 Frc consts  --      0.6660                 0.6777                 0.6875
 IR Inten    --      2.4803                 1.0211                 0.0205

                     34                     35                     36
                      A                      A                      A
 Frequencies --   1012.1141              1044.2483              1058.8703
 Red. masses --      3.2414                 2.0665                 2.6998
 Frc consts  --      1.9563                 1.3277                 1.7835
 IR Inten    --      2.5230                 5.3329                 6.0808

                     37                     38                     39
                      A                      A                      A
 Frequencies --   1105.7033              1115.0777              1152.0779
 Red. masses --      2.2512                 2.1307                 1.7361
 Frc consts  --      1.6216                 1.5609                 1.3576
 IR Inten    --     10.8807                 5.3701                11.0920

                     40                     41                     42
                      A                      A                      A
 Frequencies --   1171.6759              1194.5453              1211.0587
 Red. masses --      1.6654                 1.2841                 1.5923
 Frc consts  --      1.3471                 1.0796                 1.3760
 IR Inten    --     13.2389                18.3048                13.4145

                     43                     44                     45
                      A                      A                      A
 Frequencies --   1251.6446              1296.9486              1314.5248
 Red. masses --      1.9502                 1.4963                 1.2913
 Frc consts  --      1.8001                 1.4829                 1.3147
 IR Inten    --     31.3696                10.2508                 5.1881

                     46                     47                     48
                      A                      A                      A
 Frequencies --   1332.6324              1382.0812              1397.0398
 Red. masses --      3.9284                 2.3667                 3.2823
 Frc consts  --      4.1105                 2.6635                 3.7744
 IR Inten    --     51.6252                63.6110                 9.2994

                     49                     50                     51
                      A                      A                      A
 Frequencies --   1401.7316              1405.5060              1426.0861
 Red. masses --      1.7115                 1.4451                 4.8651
 Frc consts  --      1.9813                 1.6820                 5.8296
 IR Inten    --     16.7374                46.5078               115.5743

                     52                     53                     54
                      A                      A                      A
 Frequencies --   1441.2138              1447.3307              1504.8044
 Red. masses --      2.5557                 1.2767                 1.9764
 Frc consts  --      3.1277                 1.5757                 2.6369
 IR Inten    --      0.7785                 9.4175                44.4664

                     55                     56                     57
                      A                      A                      A
 Frequencies --   1514.2084              1519.3267              1530.8172
 Red. masses --      1.1183                 1.3200                 1.0837
 Frc consts  --      1.5107                 1.7953                 1.4963
 IR Inten    --      7.5437                13.4012                 7.3876

                     58                     59                     60
                      A                      A                      A
 Frequencies --   1537.2614              1539.7008              1592.9892
 Red. masses --      1.0788                 2.5861                 5.7355
 Frc consts  --      1.5021                 3.6121                 8.5752
 IR Inten    --      9.3441                10.2804                 2.3601

                     61                     62                     63
                      A                      A                      A
 Frequencies --   1631.8896              1674.1323              2263.2593
 Red. masses --      6.4051                 6.6342                13.9855
 Frc consts  --     10.0497                10.9551                42.2082
 IR Inten    --      0.3676                 8.0703               835.5715

                     64                     65                     66
                      A                      A                      A
 Frequencies --   3046.7322              3048.8250              3060.6174
 Red. masses --      1.0605                 1.0408                 1.0606
 Frc consts  --      5.8001                 5.7003                 5.8535
 IR Inten    --     15.5780                22.8768                45.7229

                     67                     68                     69
                      A                      A                      A
 Frequencies --   3084.2655              3107.1213              3117.5386
 Red. masses --      1.1006                 1.1040                 1.1006
 Frc consts  --      6.1684                 6.2794                 6.3023
 IR Inten    --     18.6187                11.1372                44.3233

                     70                     71                     72
                      A                      A                      A
 Frequencies --   3131.5970              3187.2096              3198.3358
 Red. masses --      1.1027                 1.0853                 1.0886
 Frc consts  --      6.3714                 6.4958                 6.5610
 IR Inten    --     38.8790                 0.6657                13.1643

                     73                     74                     75
                      A                      A                      A
 Frequencies --   3208.6747              3216.1588              3272.0962
 Red. masses --      1.0936                 1.0966                 1.0963
 Frc consts  --      6.6339                 6.6828                 6.9155
 IR Inten    --     26.7587                18.2108                 0.8763

 - Thermochemistry -
 -------------------
 Temperature   298.150 Kelvin.  Pressure   1.00000 Atm.
 Atom     1 has atomic number  6 and mass  12.00000

 Molecular mass:   200.10620 amu.
 Principal axes and moments of inertia in atomic units:
                           1         2         3
     Eigenvalues --  2576.621793378.717625485.88374
           X            0.99849  -0.05487   0.00186
           Y            0.05488   0.99848  -0.00483
           Z           -0.00160   0.00493   0.99999
 This molecule is an asymmetric top.
 Rotational symmetry number  1.
 Warning -- assumption of classical behavior for rotation
           may cause significant error
 Rotational temperatures (Kelvin)      0.03362     0.02564     0.01579
 Rotational constants (GHZ):           0.70043     0.53415     0.32898
 Zero-point vibrational energy     574957.9 (Joules/Mol)
                                  137.41823 (Kcal/Mol)
 Warning -- explicit consideration of  20 degrees of freedom as
           vibrations may cause significant error
 Vibrational temperatures:     55.24    66.13    91.88   141.34   171.53
          (Kelvin)            249.88   295.81   320.92   364.80   368.32
                              461.23   517.45   626.25   641.44   708.87
                              744.32   781.53   823.87   846.73   879.03
                              898.84  1018.71  1078.61  1097.80  1118.16
                             1125.92  1170.22  1205.73  1237.53  1256.26
                             1326.08  1336.49  1397.47  1456.21  1502.44
                             1523.48  1590.86  1604.35  1657.58  1685.78
                             1718.68  1742.44  1800.84  1866.02  1891.31
                             1917.36  1988.51  2010.03  2016.78  2022.21
                             2051.82  2073.59  2082.39  2165.08  2178.61
                             2185.97  2202.50  2211.78  2215.29  2291.96
                             2347.93  2408.70  3256.33  4383.57  4386.58
                             4403.55  4437.57  4470.45  4485.44  4505.67
                             4585.68  4601.69  4616.57  4627.34  4707.82

 Zero-point correction=                           0.218990 (Hartree/Particle)
 Thermal correction to Energy=                    0.232188
 Thermal correction to Enthalpy=                  0.233133
 Thermal correction to Gibbs Free Energy=         0.178031
 Sum of electronic and zero-point Energies=           -645.179785
 Sum of electronic and thermal Energies=              -645.166586
 Sum of electronic and thermal Enthalpies=            -645.165642
 Sum of electronic and thermal Free Energies=         -645.220744

                     E (Thermal)             CV                S
                      KCal/Mol        Cal/Mol-Kelvin    Cal/Mol-Kelvin
 Total                  145.700             50.098            115.972
 Electronic               0.000              0.000              0.000
 Translational            0.889              2.981             41.786
 Rotational               0.889              2.981             32.235
 Vibrational            143.923             44.136             41.951
 Vibration     1          0.594              1.982              5.340
 Vibration     2          0.595              1.979              4.984
 Vibration     3          0.597              1.972              4.334
 Vibration     4          0.604              1.950              3.489
 Vibration     5          0.609              1.933              3.113
 Vibration     6          0.627              1.875              2.395
 Vibration     7          0.640              1.832              2.082
 Vibration     8          0.649              1.806              1.934
 Vibration     9          0.665              1.757              1.706
 Vibration    10          0.666              1.753              1.689
 Vibration    11          0.706              1.634              1.307
 Vibration    12          0.734              1.555              1.124
 Vibration    13          0.796              1.393              0.842
 Vibration    14          0.805              1.370              0.809
 Vibration    15          0.848              1.266              0.677
 Vibration    16          0.872              1.212              0.616
 Vibration    17          0.898              1.155              0.558
 Vibration    18          0.929              1.090              0.499
 Vibration    19          0.946              1.056              0.470
 Vibration    20          0.970              1.009              0.431

 Optimization completed.
    -- Stationary point found.
 Normal termination of Gaussian 16 at Thu Dec 10 17:14:54 2020.

 ----------------------------------------------------------------------
 # B3LYP/6-311++G(d,p) empiricaldispersion=gd3bj scf=xqc pop=npa geom=c
 heck
 ----------------------------------------------------------------------

 ---------------------------------------
 CID_152098229_JID_5813_Energie_neutraal
 ---------------------------------------
 Structure from the checkpoint file:  "JID_5813.chk"
 Charge =  0 Multiplicity = 1

 SCF Done:  E(RB3LYP) =  -645.565215532     A.U. after   16 cycles
 Normal termination of Gaussian 16 at Thu Dec 10 17:19:00 2020.

 ----------------------------------------------------------------------
 # B3LYP/6-311++G(d,p) empiricaldispersion=gd3bj scf=xqc pop=npa geom=c
 heck
 ----------------------------------------------------------------------

 -------------------------------------
 CID_152098229_JID_5813_Energie_kation
 -------------------------------------
 Structure from the checkpoint file:  "JID_5813.chk"
 Charge =  1 Multiplicity = 2

 SCF Done:  E(UB3LYP) =  -645.301151141     A.U. after   25 cycles
 Normal termination of Gaussian 16 at Thu Dec 10 17:27:18 2020.
 Gaussian 16:  ES64L-G16RevA.03 25-Dec-2016

 ----------------------------------------------------------------------
 # B3LYP/6-311++G(d,p) empiricaldispersion=gd3bj scf=xqc pop=npa geom=c
 heck
 ----------------------------------------------------------------------

 ------------------------------------
 CID_152098229_JID_5813_Energie_anion
 ------------------------------------
 Structure from the checkpoint file:  "JID_5813.chk"
 Charge = -1 Multiplicity = 2

                         Standard orientation:
 ---------------------------------------------------------------------
 Center     Atomic      Atomic             Coordinates (Angstroms)
 Number     Number       Type             X           Y           Z
 ---------------------------------------------------------------------
      1          6           0        1.079306   -3.047279    1.309130
      2          6           0        2.073193   -2.531170    0.267858
      3          6           0        1.393308   -1.945504   -0.977499
      4          7           0        0.529241   -0.814478   -0.680319
      5          6           0       -0.846054   -0.875556   -0.519417
      6          6           0       -1.310113    0.350431   -0.097078
      7          6           0       -0.178471    1.224583    0.025900
      8          6           0       -0.019930    2.566500    0.401102
      9          6           0        1.258316    3.107631    0.409639
     10          6           0        2.379840    2.332305    0.047449
     11          6           0        2.249114    1.001502   -0.330461
     12          6           0        0.960007    0.455635   -0.341010
     13          7           0       -2.625552    0.775794    0.179417
     14          7           0       -3.537898   -0.045881    0.044558
     15          7           0       -4.464449   -0.710831   -0.042758
     16          1           0        0.435613   -2.240188    1.673402
     17          1           0        1.602094   -3.475066    2.170732
     18          1           0        0.433612   -3.828217    0.888245
     19          1           0        2.715246   -1.763674    0.716318
     20          1           0        2.734817   -3.342775   -0.062258
     21          1           0        2.144415   -1.621367   -1.706903
     22          1           0        0.776053   -2.706602   -1.466531
     23          1           0       -1.382932   -1.789860   -0.727573
     24          1           0       -0.884758    3.161186    0.678550
     25          1           0        1.401335    4.144375    0.699611
     26          1           0        3.367302    2.784298    0.064926
     27          1           0        3.116694    0.411198   -0.608485
 ---------------------------------------------------------------------

 SCF Done:  E(UB3LYP) =  -645.558093765     A.U. after   33 cycles
 SCF Done:  E(UB3LYP) =  -645.558093765     a.u. after    1 cycles

 The electronic state is 2-A.
 Alpha  occ. eigenvalues --  -14.35242 -14.25896 -14.25120 -14.25112 -10.10580
 Alpha  occ. eigenvalues --  -10.09885 -10.09611 -10.08960 -10.06965 -10.06883
 Alpha  occ. eigenvalues --  -10.06690 -10.06654 -10.06571 -10.06551 -10.06120
 Alpha  occ. eigenvalues --   -1.02204  -0.88569  -0.86588  -0.74557  -0.70936
 Alpha  occ. eigenvalues --   -0.67098  -0.63811  -0.62013  -0.59546  -0.53345
 Alpha  occ. eigenvalues --   -0.52269  -0.49914  -0.46964  -0.43854  -0.40810
 Alpha  occ. eigenvalues --   -0.39516  -0.38896  -0.37712  -0.37120  -0.36241
 Alpha  occ. eigenvalues --   -0.34372  -0.33411  -0.33133  -0.32109  -0.30870
 Alpha  occ. eigenvalues --   -0.30279  -0.29110  -0.26281  -0.26013  -0.25340
 Alpha  occ. eigenvalues --   -0.24483  -0.23682  -0.23032  -0.20399  -0.19941
 Alpha  occ. eigenvalues --   -0.15347  -0.12484  -0.08562   0.04497
 Alpha virt. eigenvalues --    0.06384   0.07154   0.07478   0.08305   0.08599
 Alpha virt. eigenvalues --    0.09513   0.10014   0.10322   0.10978   0.11189
 Alpha virt. eigenvalues --    0.11676   0.12292   0.12489   0.12865   0.14708

  Beta  occ. eigenvalues --  -14.34983 -14.25650 -14.25151 -14.25102 -10.10542
  Beta  occ. eigenvalues --  -10.09897 -10.09556 -10.08853 -10.06942 -10.06833
  Beta  occ. eigenvalues --  -10.06653 -10.06610 -10.06574 -10.06536 -10.06107
  Beta  occ. eigenvalues --   -1.01775  -0.88497  -0.86433  -0.74490  -0.70842
  Beta  occ. eigenvalues --   -0.67012  -0.63742  -0.61882  -0.59429  -0.53192
  Beta  occ. eigenvalues --   -0.52175  -0.49801  -0.46888  -0.43766  -0.40411
  Beta  occ. eigenvalues --   -0.39220  -0.38646  -0.37454  -0.36914  -0.36071
  Beta  occ. eigenvalues --   -0.34128  -0.33099  -0.33044  -0.32028  -0.30769
  Beta  occ. eigenvalues --   -0.30159  -0.29045  -0.26228  -0.25928  -0.25288
  Beta  occ. eigenvalues --   -0.24427  -0.23605  -0.22820  -0.20206  -0.19503
  Beta  occ. eigenvalues --   -0.15070  -0.12257  -0.08223
  Beta virt. eigenvalues --    0.07065   0.07675   0.07725   0.08394   0.08807
  Beta virt. eigenvalues --    0.09334   0.09866   0.10375   0.10828   0.11161
  Beta virt. eigenvalues --    0.11633   0.11903   0.12602   0.12778   0.12969

 Mulliken charges and spin densities:
               1          2
     1  C    0.201201  -0.805942
     2  C    0.079643  -0.166117
     3  C    0.487529  -0.708447
     4  N    0.175267   0.103765
     5  C    0.169671   0.024523
     6  C   -0.312987  -0.006576
     7  C    1.054234  -0.624605
     8  C   -0.352438   0.070716
     9  C   -0.696077   0.078139
    10  C    0.090683  -0.285433
    11  C   -0.313556  -0.027072
    12  C   -0.166833  -0.066406
    13  N    0.125374   0.006314
    14  N    0.256592   0.053573
    15  N   -0.422252   0.151618
    16  H    0.158987   0.006834
    17  H   -0.054051   0.185965
    18  H    0.035139   0.107338
    19  H    0.104398   0.016568
    20  H   -0.761955   0.923350
    21  H   -0.380023   0.559353
    22  H   -0.615450   0.781925
    23  H   -0.067839   0.257718
    24  H    0.168805  -0.001250
    25  H    0.111914   0.006650
    26  H    0.086208   0.058530
    27  H   -0.162182   0.298968
 Sum of Mulliken charges =  -1.00000   1.00000

 Dipole moment (field-independent basis, Debye):
    X=             -0.5018    Y=              5.4532    Z=              2.8703  Tot=              6.1829
 Quadrupole moment (field-independent basis, Debye-Ang):
   XX=           -148.9930   YY=           -138.9803   ZZ=           -113.8133
   XY=             10.5686   XZ=              5.5266   YZ=             -7.3567

 Summary of Natural Population Analysis:

                                       Natural Population
                Natural  -----------------------------------------------
    Atom  No    Charge         Core      Valence    Rydberg      Total
 -----------------------------------------------------------------------
      C    1   -0.28851      0.99966     2.28343    0.00542     3.28851
      C    2   -0.19551      0.99963     2.18778    0.00809     3.19551
      C    3   -0.08057      0.99961     2.06806    0.01291     3.08057
      N    4   -0.20833      0.99963     2.69776    0.01094     3.70833
      C    5    0.00348      0.99950     1.98596    0.01106     2.99652
      C    6    0.03004      0.99938     1.95822    0.01237     2.96996
      C    7   -0.04576      0.99940     2.03636    0.01000     3.04576
      C    8   -0.08412      0.99954     2.07658    0.00800     3.08412
      C    9   -0.12329      0.99958     2.11534    0.00837     3.12329
      C   10   -0.10579      0.99959     2.09502    0.01119     3.10579
      C   11   -0.11343      0.99952     2.10495    0.00896     3.11343
      C   12    0.08479      0.99948     1.90475    0.01097     2.91521
      N   13   -0.18215      0.99964     2.66963    0.01288     3.68215
      N   14    0.14106      0.99971     2.34451    0.01472     3.35894
      N   15   -0.03032      0.99982     2.51742    0.01308     3.53032
      H   16    0.10142      0.00000     0.39756    0.00102     0.39858
      H   17    0.09767      0.00000     0.40164    0.00069     0.40233
      H   18    0.09695      0.00000     0.40204    0.00101     0.40305
      H   19    0.09557      0.00000     0.40310    0.00133     0.40443
      H   20    0.10144      0.00000     0.39510    0.00345     0.39856
      H   21    0.10349      0.00000     0.39404    0.00247     0.39651
      H   22    0.10201      0.00000     0.39541    0.00259     0.39799
      H   23    0.10385      0.00000     0.39498    0.00117     0.39615
      H   24    0.10141      0.00000     0.39744    0.00115     0.39859
      H   25    0.09450      0.00000     0.40468    0.00081     0.40550
      H   26    0.09581      0.00000     0.40348    0.00071     0.40419
      H   27    0.10428      0.00000     0.39460    0.00112     0.39572
 =======================================================================
   * Total *    0.00000     14.99369    37.82984    0.17646    53.00000

 Normal termination of Gaussian 16 at Thu Dec 10 17:38:13 2020.
