 Gaussian 16, Revision A.03,

 -----------------------------------------------------------
 # opt freq B3LYP/6-31G(d) empiricaldispersion=gd3bj scf=xqc
 -----------------------------------------------------------

 -------------------------------
 CID_147862656_JID_2767_neutraal
 -------------------------------
 Symbolic Z-matrix:
 Charge =  0 Multiplicity = 1

 SCF Done:  E(RB3LYP) =  -555.807914482     A.U. after   14 cycles
 SCF Done:  E(RB3LYP) =  -555.809757042     A.U. after   14 cycles
 SCF Done:  E(RB3LYP) =  -555.808129883     A.U. after   13 cycles
 SCF Done:  E(RB3LYP) =  -555.802878170     A.U. after   13 cycles
 SCF Done:  E(RB3LYP) =  -555.807861575     A.U. after   12 cycles
 SCF Done:  E(RB3LYP) =  -555.810976268     A.U. after   10 cycles
 SCF Done:  E(RB3LYP) =  -555.811954746     A.U. after   12 cycles
 SCF Done:  E(RB3LYP) =  -555.812606985     A.U. after   12 cycles
 SCF Done:  E(RB3LYP) =  -555.812897180     A.U. after   12 cycles
 SCF Done:  E(RB3LYP) =  -555.813271283     A.U. after   12 cycles
 SCF Done:  E(RB3LYP) =  -555.815244587     A.U. after    8 cycles
 SCF Done:  E(RB3LYP) =  -555.815245960     A.U. after    8 cycles
 SCF Done:  E(RB3LYP) =  -555.815246949     A.U. after    8 cycles
 SCF Done:  E(RB3LYP) =  -555.815247670     A.U. after    7 cycles
 SCF Done:  E(RB3LYP) =  -555.815247838     A.U. after    7 cycles
 SCF Done:  E(RB3LYP) =  -555.815247874     A.U. after    6 cycles
 Optimization completed.
    -- Stationary point found.
 Normal termination of Gaussian 16 at Wed Dec  9 18:05:23 2020.

 --------------------------------------------------------------------
 #N Geom=AllCheck Guess=TCheck SCRF=Check GenChk RB3LYP/6-31G(d) Freq
 --------------------------------------------------------------------

 Structure from the checkpoint file:  "JID_2767.chk"
 -------------------------------
 CID_147862656_JID_2767_neutraal
 -------------------------------
 Charge =  0 Multiplicity = 1

 SCF Done:  E(RB3LYP) =  -555.815247874     A.U. after    1 cycles

  Exact polarizability: 118.695   5.242 113.949   8.863  -1.882  92.793
 Approx polarizability: 148.493  10.624 159.034  16.658   4.754 145.164

                      1                      2                      3
                      A                      A                      A
 Frequencies --     35.3209                46.3949                81.8820
 Red. masses --      3.9015                 3.5521                 4.4766
 Frc consts  --      0.0029                 0.0045                 0.0177
 IR Inten    --      3.2554                 0.7140                 3.6619

                      4                      5                      6
                      A                      A                      A
 Frequencies --     90.8216               126.2265               138.6647
 Red. masses --      3.6024                 3.5807                 1.8024
 Frc consts  --      0.0175                 0.0336                 0.0204
 IR Inten    --      1.3495                 0.4679                 0.2812

                      7                      8                      9
                      A                      A                      A
 Frequencies --    157.9767               193.4821               200.1164
 Red. masses --      1.7678                 1.9398                 2.5663
 Frc consts  --      0.0260                 0.0428                 0.0606
 IR Inten    --      0.2696                 2.2904                 5.2093

                     10                     11                     12
                      A                      A                      A
 Frequencies --    247.1306               265.0394               282.8511
 Red. masses --      1.6189                 2.1969                 1.4840
 Frc consts  --      0.0583                 0.0909                 0.0700
 IR Inten    --      1.9960                 4.9291                 2.5142

                     13                     14                     15
                      A                      A                      A
 Frequencies --    297.4680               323.3155               327.5753
 Red. masses --      1.5765                 1.7776                 3.2762
 Frc consts  --      0.0822                 0.1095                 0.2071
 IR Inten    --     25.5626                34.8295                14.8225

                     16                     17                     18
                      A                      A                      A
 Frequencies --    392.7085               415.1335               434.3829
 Red. masses --      2.4616                 2.1705                 2.0888
 Frc consts  --      0.2237                 0.2204                 0.2322
 IR Inten    --      1.8722                 7.0542                 0.7060

                     19                     20                     21
                      A                      A                      A
 Frequencies --    469.0793               550.8371               609.3052
 Red. masses --      2.8437                 2.4064                 2.3654
 Frc consts  --      0.3687                 0.4302                 0.5174
 IR Inten    --      2.3424                 7.0863                17.6888

                     22                     23                     24
                      A                      A                      A
 Frequencies --    669.4515               752.3997               790.2056
 Red. masses --      5.2565                 1.5481                 2.1993
 Frc consts  --      1.3880                 0.5163                 0.8091
 IR Inten    --      9.9342                46.9455                 6.3941

                     25                     26                     27
                      A                      A                      A
 Frequencies --    807.7005               846.5686               879.2934
 Red. masses --      1.5673                 1.6581                 2.2136
 Frc consts  --      0.6024                 0.7002                 1.0083
 IR Inten    --     19.9358                 9.5068                 1.7375

                     28                     29                     30
                      A                      A                      A
 Frequencies --    919.0795               958.2444               965.5321
 Red. masses --      2.1515                 2.0505                 1.4476
 Frc consts  --      1.0708                 1.1093                 0.7951
 IR Inten    --     50.6294                 7.3492               139.6887

                     31                     32                     33
                      A                      A                      A
 Frequencies --   1008.6702              1016.2103              1038.4706
 Red. masses --      2.0172                 1.6218                 1.7575
 Frc consts  --      1.2092                 0.9868                 1.1167
 IR Inten    --     45.5861                 0.9551                 5.7268

                     34                     35                     36
                      A                      A                      A
 Frequencies --   1060.6643              1069.2026              1090.1165
 Red. masses --      2.2275                 1.6391                 1.6688
 Frc consts  --      1.4764                 1.1040                 1.1684
 IR Inten    --      0.3064                 2.2005                 4.6242

                     37                     38                     39
                      A                      A                      A
 Frequencies --   1104.8587              1132.3942              1156.5034
 Red. masses --      1.6575                 1.9363                 1.9539
 Frc consts  --      1.1921                 1.4629                 1.5398
 IR Inten    --     48.9669                78.9207                39.7330

                     40                     41                     42
                      A                      A                      A
 Frequencies --   1163.9280              1196.1386              1222.3664
 Red. masses --      1.2973                 2.1812                 2.0484
 Frc consts  --      1.0355                 1.8387                 1.8033
 IR Inten    --      0.0987                 6.5840                 5.9083

                     43                     44                     45
                      A                      A                      A
 Frequencies --   1257.6953              1265.0316              1298.3084
 Red. masses --      1.6529                 1.2832                 1.2234
 Frc consts  --      1.5405                 1.2099                 1.2150
 IR Inten    --      0.4962                 1.8760                 3.9650

                     46                     47                     48
                      A                      A                      A
 Frequencies --   1313.2473              1342.4587              1365.1455
 Red. masses --      1.9975                 1.2414                 1.4049
 Frc consts  --      2.0297                 1.3182                 1.5426
 IR Inten    --     35.3592                 8.3289                 7.4990

                     49                     50                     51
                      A                      A                      A
 Frequencies --   1389.7090              1394.7970              1409.1507
 Red. masses --      1.4154                 1.2982                 1.3144
 Frc consts  --      1.6106                 1.4881                 1.5378
 IR Inten    --     11.7552                19.4991                 5.1101

                     52                     53                     54
                      A                      A                      A
 Frequencies --   1424.2676              1436.4264              1440.9058
 Red. masses --      1.3171                 1.3291                 1.4410
 Frc consts  --      1.5741                 1.6158                 1.7627
 IR Inten    --      1.3165                47.4119                 8.2910

                     55                     56                     57
                      A                      A                      A
 Frequencies --   1453.0331              1463.6698              1494.2574
 Red. masses --      1.2345                 1.8157                 1.2319
 Frc consts  --      1.5357                 2.2918                 1.6206
 IR Inten    --      5.0367                35.1961                 1.5568

                     58                     59                     60
                      A                      A                      A
 Frequencies --   1500.3248              1504.7670              1510.8470
 Red. masses --      1.1124                 1.1284                 1.1323
 Frc consts  --      1.4753                 1.5054                 1.5229
 IR Inten    --      2.0193                11.1693                25.6381

                     61                     62                     63
                      A                      A                      A
 Frequencies --   1515.5855              1531.5958              1535.2427
 Red. masses --      1.0928                 1.0562                 1.0828
 Frc consts  --      1.4790                 1.4598                 1.5037
 IR Inten    --      2.4433                 2.1266                 9.3687

                     64                     65                     66
                      A                      A                      A
 Frequencies --   1543.3617              1553.7715              1557.0182
 Red. masses --      1.0768                 1.0678                 1.1148
 Frc consts  --      1.5111                 1.5188                 1.5923
 IR Inten    --      8.0715                 1.3764                20.2799

                     67                     68                     69
                      A                      A                      A
 Frequencies --   1705.6960              1782.9277              2973.4919
 Red. masses --      1.0862                 7.8594                 1.0849
 Frc consts  --      1.8619                14.7200                 5.6514
 IR Inten    --     17.2304               384.3665                91.3736

                     70                     71                     72
                      A                      A                      A
 Frequencies --   3018.5855              3024.6373              3033.9271
 Red. masses --      1.0661                 1.0657                 1.0611
 Frc consts  --      5.7235                 5.7441                 5.7544
 IR Inten    --     16.1293                 1.0182                20.8023

                     73                     74                     75
                      A                      A                      A
 Frequencies --   3039.2104              3039.4504              3046.2689
 Red. masses --      1.0671                 1.0509                 1.0430
 Frc consts  --      5.8071                 5.7199                 5.7024
 IR Inten    --      8.0772                78.4070                71.2267

                     76                     77                     78
                      A                      A                      A
 Frequencies --   3049.2840              3061.4037              3079.8284
 Red. masses --      1.0639                 1.1055                 1.1018
 Frc consts  --      5.8283                 6.1048                 6.1573
 IR Inten    --     81.6493                31.2150                35.9053

                     79                     80                     81
                      A                      A                      A
 Frequencies --   3087.6682              3092.3507              3103.9862
 Red. masses --      1.0925                 1.1044                 1.1015
 Frc consts  --      6.1369                 6.2226                 6.2527
 IR Inten    --     28.9151                29.3559                43.5809

                     82                     83                     84
                      A                      A                      A
 Frequencies --   3131.8827              3139.7778              3150.2759
 Red. masses --      1.1002                 1.1005                 1.0942
 Frc consts  --      6.3582                 6.3923                 6.3982
 IR Inten    --     17.6761                15.5800                 7.4319

                     85                     86                     87
                      A                      A                      A
 Frequencies --   3434.0916              3498.1485              3516.2892
 Red. masses --      1.0495                 1.0729                 1.0906
 Frc consts  --      7.2923                 7.7358                 7.9446
 IR Inten    --      5.6942                 0.3360                 2.8950

 - Thermochemistry -
 -------------------
 Temperature   298.150 Kelvin.  Pressure   1.00000 Atm.
 Atom     1 has atomic number  6 and mass  12.00000

 Molecular mass:   173.15281 amu.
 Principal axes and moments of inertia in atomic units:
                           1         2         3
     Eigenvalues --  1347.513083342.422984109.14456
           X            0.99961   0.02568   0.01090
           Y           -0.02535   0.99925  -0.02940
           Z           -0.01165   0.02911   0.99951
 This molecule is an asymmetric top.
 Rotational symmetry number  1.
 Warning -- assumption of classical behavior for rotation
           may cause significant error
 Rotational temperatures (Kelvin)      0.06428     0.02591     0.02108
 Rotational constants (GHZ):           1.33931     0.53995     0.43920
 Zero-point vibrational energy     741945.0 (Joules/Mol)
                                  177.32910 (Kcal/Mol)
 Warning -- explicit consideration of  21 degrees of freedom as
           vibrations may cause significant error
 Vibrational temperatures:     50.82    66.75   117.81   130.67   181.61
          (Kelvin)            199.51   227.29   278.38   287.92   355.57
                              381.33   406.96   427.99   465.18   471.31
                              565.02   597.28   624.98   674.90   792.53
                              876.65   963.19  1082.54  1136.93  1162.10
                             1218.02  1265.11  1322.35  1378.70  1389.19
                             1451.25  1462.10  1494.13  1526.06  1538.34
                             1568.43  1589.65  1629.26  1663.95  1674.63
                             1720.98  1758.71  1809.54  1820.10  1867.98
                             1889.47  1931.50  1964.14  1999.48  2006.80
                             2027.45  2049.20  2066.70  2073.14  2090.59
                             2105.89  2149.90  2158.63  2165.02  2173.77
                             2180.59  2203.62  2208.87  2220.55  2235.53
                             2240.20  2454.12  2565.24  4278.19  4343.07
                             4351.78  4365.14  4372.75  4373.09  4382.90
                             4387.24  4404.68  4431.19  4442.47  4449.20
                             4465.94  4506.08  4517.44  4532.54  4940.89
                             5033.06  5059.16

 Zero-point correction=                           0.282592 (Hartree/Particle)
 Thermal correction to Energy=                    0.296953
 Thermal correction to Enthalpy=                  0.297898
 Thermal correction to Gibbs Free Energy=         0.241105
 Sum of electronic and zero-point Energies=           -555.532656
 Sum of electronic and thermal Energies=              -555.518294
 Sum of electronic and thermal Enthalpies=            -555.517350
 Sum of electronic and thermal Free Energies=         -555.574143

                     E (Thermal)             CV                S
                      KCal/Mol        Cal/Mol-Kelvin    Cal/Mol-Kelvin
 Total                  186.341             52.310            119.530
 Electronic               0.000              0.000              0.000
 Translational            0.889              2.981             41.354
 Rotational               0.889              2.981             31.293
 Vibrational            184.564             46.348             46.883
 Vibration     1          0.594              1.982              5.506
 Vibration     2          0.595              1.979              4.965
 Vibration     3          0.600              1.962              3.845
 Vibration     4          0.602              1.956              3.642
 Vibration     5          0.611              1.927              3.003
 Vibration     6          0.614              1.915              2.822
 Vibration     7          0.621              1.894              2.574
 Vibration     8          0.635              1.849              2.194
 Vibration     9          0.638              1.840              2.132
 Vibration    10          0.661              1.768              1.751
 Vibration    11          0.671              1.737              1.628
 Vibration    12          0.682              1.705              1.516
 Vibration    13          0.691              1.678              1.431
 Vibration    14          0.708              1.629              1.293
 Vibration    15          0.711              1.620              1.272
 Vibration    16          0.760              1.486              0.990
 Vibration    17          0.779              1.437              0.909
 Vibration    18          0.795              1.395              0.844
 Vibration    19          0.826              1.319              0.740
 Vibration    20          0.906              1.138              0.542
 Vibration    21          0.968              1.012              0.434

 Optimization completed.
    -- Stationary point found.
 Normal termination of Gaussian 16 at Wed Dec  9 18:13:49 2020.

 ----------------------------------------------------------------------
 # B3LYP/6-311++G(d,p) empiricaldispersion=gd3bj scf=xqc pop=npa geom=c
 heck
 ----------------------------------------------------------------------

 ---------------------------------------
 CID_147862656_JID_2767_Energie_neutraal
 ---------------------------------------
 Structure from the checkpoint file:  "JID_2767.chk"
 Charge =  0 Multiplicity = 1

 SCF Done:  E(RB3LYP) =  -555.987594262     A.U. after   15 cycles
 Normal termination of Gaussian 16 at Wed Dec  9 18:18:30 2020.

 ----------------------------------------------------------------------
 # B3LYP/6-311++G(d,p) empiricaldispersion=gd3bj scf=xqc pop=npa geom=c
 heck
 ----------------------------------------------------------------------

 -------------------------------------
 CID_147862656_JID_2767_Energie_kation
 -------------------------------------
 Structure from the checkpoint file:  "JID_2767.chk"
 Charge =  1 Multiplicity = 2

 SCF Done:  E(UB3LYP) =  -555.689109211     A.U. after   26 cycles
 Normal termination of Gaussian 16 at Wed Dec  9 18:28:49 2020.
 Gaussian 16:  ES64L-G16RevA.03 25-Dec-2016

 ----------------------------------------------------------------------
 # B3LYP/6-311++G(d,p) empiricaldispersion=gd3bj scf=xqc pop=npa geom=c
 heck
 ----------------------------------------------------------------------

 ------------------------------------
 CID_147862656_JID_2767_Energie_anion
 ------------------------------------
 Structure from the checkpoint file:  "JID_2767.chk"
 Charge = -1 Multiplicity = 2

                         Standard orientation:
 ---------------------------------------------------------------------
 Center     Atomic      Atomic             Coordinates (Angstroms)
 Number     Number       Type             X           Y           Z
 ---------------------------------------------------------------------
      1          6           0        2.045716    2.223769   -0.228252
      2          6           0        2.581883    0.886689   -0.747913
      3          6           0        2.561416   -0.254541    0.281761
      4          6           0        1.140824   -0.588912    0.781671
      5          7           0        0.320273   -1.098100   -0.325057
      6          6           0       -0.890466   -1.799509    0.068838
      7          6           0       -1.970564   -0.951193    0.771007
      8          7           0       -2.475372    0.125858   -0.076311
      9          6           0       -3.420564   -0.206646   -1.125883
     10          6           0       -2.063498    1.407445    0.129883
     11          8           0       -1.275229    1.771663    0.991326
     12          7           0        3.250590   -1.418125   -0.296539
     13          1           0        0.989038    2.175339    0.053626
     14          1           0        2.153639    3.005715   -0.988777
     15          1           0        2.604583    2.548911    0.658236
     16          1           0        2.018784    0.574216   -1.639884
     17          1           0        3.619849    0.998594   -1.079644
     18          1           0        3.144049    0.073851    1.153918
     19          1           0        1.220080   -1.396059    1.522905
     20          1           0        0.688290    0.275265    1.288379
     21          1           0        0.072291   -0.325085   -0.939733
     22          1           0       -1.322217   -2.266399   -0.826610
     23          1           0       -0.610716   -2.619184    0.742614
     24          1           0       -2.815913   -1.589815    1.059980
     25          1           0       -1.567254   -0.483819    1.671081
     26          1           0       -4.324441   -0.663995   -0.704057
     27          1           0       -3.707855    0.702957   -1.659980
     28          1           0       -2.986371   -0.906898   -1.849237
     29          1           0       -2.531235    2.116723   -0.579663
     30          1           0        3.386917   -2.116013    0.435745
     31          1           0        2.593389   -1.847648   -0.950816
 ---------------------------------------------------------------------

 SCF Done:  E(UB3LYP) =  -555.977719179     A.U. after   32 cycles

 The electronic state is 2-A.
 Alpha  occ. eigenvalues --  -18.99460 -14.24989 -14.20161 -14.19318 -10.16836
 Alpha  occ. eigenvalues --  -10.10163 -10.10108 -10.09827 -10.09544 -10.08853
 Alpha  occ. eigenvalues --  -10.07023 -10.06348  -0.94212  -0.84633  -0.81579
 Alpha  occ. eigenvalues --   -0.78132  -0.67765  -0.65273  -0.60980  -0.59838
 Alpha  occ. eigenvalues --   -0.55049  -0.53160  -0.47373  -0.45619  -0.42114
 Alpha  occ. eigenvalues --   -0.40190  -0.39755  -0.37703  -0.36994  -0.35601
 Alpha  occ. eigenvalues --   -0.34185  -0.34146  -0.32730  -0.31308  -0.30765
 Alpha  occ. eigenvalues --   -0.29737  -0.29147  -0.28645  -0.28101  -0.26968
 Alpha  occ. eigenvalues --   -0.26076  -0.25263  -0.23364  -0.23082  -0.16873
 Alpha  occ. eigenvalues --   -0.15829  -0.14928  -0.12984   0.04352
 Alpha virt. eigenvalues --    0.06458   0.07152   0.08102   0.08449   0.09114
 Alpha virt. eigenvalues --    0.09606   0.10265   0.10814   0.11027   0.11246
 Alpha virt. eigenvalues --    0.11893   0.12493   0.12914   0.13520   0.14373

  Beta  occ. eigenvalues --  -18.99453 -14.24991 -14.20155 -14.19308 -10.16813
  Beta  occ. eigenvalues --  -10.10160 -10.10082 -10.09742 -10.09514 -10.08845
  Beta  occ. eigenvalues --  -10.07018 -10.06345  -0.94196  -0.84615  -0.81563
  Beta  occ. eigenvalues --   -0.78113  -0.67751  -0.65225  -0.60893  -0.59792
  Beta  occ. eigenvalues --   -0.55015  -0.53112  -0.47345  -0.45551  -0.42044
  Beta  occ. eigenvalues --   -0.40161  -0.39730  -0.37660  -0.36941  -0.35586
  Beta  occ. eigenvalues --   -0.34163  -0.34124  -0.32701  -0.31265  -0.30712
  Beta  occ. eigenvalues --   -0.29682  -0.29100  -0.28612  -0.28062  -0.26939
  Beta  occ. eigenvalues --   -0.26057  -0.25240  -0.23351  -0.23069  -0.16850
  Beta  occ. eigenvalues --   -0.15809  -0.14913  -0.12965
  Beta virt. eigenvalues --    0.06603   0.07321   0.07713   0.08427   0.09188
  Beta virt. eigenvalues --    0.09762   0.09900   0.10484   0.11162   0.11386
  Beta virt. eigenvalues --    0.11623   0.12040   0.12809   0.13537   0.13689

 Mulliken charges and spin densities:
               1          2
     1  C   -0.459473  -0.180411
     2  C   -0.139630   0.106482
     3  C    0.271968  -0.793406
     4  C   -0.550165  -0.011483
     5  N   -0.075872   0.051685
     6  C    0.709445  -1.110881
     7  C   -0.576847   0.336760
     8  N   -0.275456   0.249974
     9  C    2.269819  -2.561030
    10  C    0.284895  -0.232409
    11  O   -0.354853   0.000549
    12  N   -0.263289   0.050270
    13  H    0.101716   0.074525
    14  H    0.073530   0.049833
    15  H    0.100178   0.012926
    16  H    0.010671   0.135665
    17  H    0.154660   0.014650
    18  H    0.090775   0.075429
    19  H   -0.136851   0.298553
    20  H    0.319429  -0.159464
    21  H    0.271527  -0.030250
    22  H   -0.268645   0.471169
    23  H   -0.314003   0.442124
    24  H   -0.670656   0.867233
    25  H    0.139626   0.068343
    26  H   -0.771080   0.946347
    27  H   -0.573664   0.714490
    28  H   -0.536476   0.707311
    29  H   -0.158549   0.261495
    30  H    0.124173   0.092580
    31  H    0.203099   0.050940
 Sum of Mulliken charges =  -1.00000   1.00000

 Dipole moment (field-independent basis, Debye):
    X=              8.2978    Y=              3.0542    Z=              2.8195  Tot=              9.2807
 Quadrupole moment (field-independent basis, Debye-Ang):
   XX=           -162.1080   YY=           -120.4066   ZZ=           -110.8038
   XY=             -6.0207   XZ=             -7.5686   YZ=             -2.7652

 Summary of Natural Population Analysis:

                                       Natural Population
                Natural  -----------------------------------------------
    Atom  No    Charge         Core      Valence    Rydberg      Total
 -----------------------------------------------------------------------
      C    1   -0.29361      0.99966     2.28921    0.00474     3.29361
      C    2   -0.19438      0.99962     2.18667    0.00809     3.19438
      C    3   -0.01361      0.99960     2.00276    0.01125     3.01361
      C    4   -0.10289      0.99959     2.09111    0.01219     3.10289
      N    5   -0.34862      0.99975     2.83655    0.01233     3.84862
      C    6   -0.08909      0.99962     2.07703    0.01243     3.08909
      C    7   -0.09833      0.99960     2.08696    0.01177     3.09833
      N    8   -0.25273      0.99969     2.73941    0.01364     3.75273
      C    9   -0.17471      0.99963     2.16661    0.00847     3.17471
      C   10    0.27168      0.99967     1.70520    0.02345     2.72832
      O   11   -0.32864      0.99988     3.32272    0.00604     4.32864
      N   12   -0.42458      0.99977     2.91593    0.00887     3.92458
      H   13    0.11144      0.00000     0.38734    0.00122     0.38856
      H   14    0.09552      0.00000     0.40358    0.00090     0.40448
      H   15    0.09218      0.00000     0.40685    0.00097     0.40782
      H   16    0.09370      0.00000     0.40513    0.00118     0.40630
      H   17    0.09937      0.00000     0.39941    0.00123     0.40063
      H   18    0.08570      0.00000     0.41283    0.00147     0.41430
      H   19    0.08903      0.00000     0.40962    0.00135     0.41097
      H   20    0.09919      0.00000     0.39929    0.00152     0.40081
      H   21    0.17326      0.00000     0.32304    0.00371     0.32674
      H   22    0.09728      0.00000     0.40102    0.00170     0.40272
      H   23    0.09412      0.00000     0.40419    0.00169     0.40588
      H   24    0.10235      0.00000     0.39566    0.00200     0.39765
      H   25    0.10820      0.00000     0.39042    0.00138     0.39180
      H   26    0.10123      0.00000     0.39379    0.00498     0.39877
      H   27    0.10281      0.00000     0.39387    0.00332     0.39719
      H   28    0.09861      0.00000     0.39785    0.00354     0.40139
      H   29    0.05597      0.00000     0.44219    0.00184     0.44403
      H   30    0.16965      0.00000     0.32871    0.00164     0.33035
      H   31    0.17989      0.00000     0.31783    0.00228     0.32011
 =======================================================================
   * Total *   -0.00000     11.99607    35.83276    0.17117    48.00000

 Normal termination of Gaussian 16 at Wed Dec  9 18:41:00 2020.
