 Gaussian 16, Revision A.03,

 -----------------------------------------------------------
 # opt freq B3LYP/6-31G(d) empiricaldispersion=gd3bj scf=xqc
 -----------------------------------------------------------

 -------------------------------
 CID_123706108_JID_1946_neutraal
 -------------------------------
 Symbolic Z-matrix:
 Charge =  0 Multiplicity = 1

 SCF Done:  E(RB3LYP) =  -548.795268655     A.U. after   15 cycles
 SCF Done:  E(RB3LYP) =  -548.799543161     A.U. after   13 cycles
 SCF Done:  E(RB3LYP) =  -548.799588061     A.U. after   13 cycles
 SCF Done:  E(RB3LYP) =  -548.800158214     A.U. after   13 cycles
 SCF Done:  E(RB3LYP) =  -548.800196999     A.U. after   11 cycles
 SCF Done:  E(RB3LYP) =  -548.800199473     A.U. after   10 cycles
 SCF Done:  E(RB3LYP) =  -548.800201968     A.U. after    9 cycles
 SCF Done:  E(RB3LYP) =  -548.800202752     A.U. after    8 cycles
 SCF Done:  E(RB3LYP) =  -548.800202884     A.U. after    8 cycles
 Optimization completed.
    -- Stationary point found.
 Normal termination of Gaussian 16 at Tue Dec  8 21:37:15 2020.

 --------------------------------------------------------------------
 #N Geom=AllCheck Guess=TCheck SCRF=Check GenChk RB3LYP/6-31G(d) Freq
 --------------------------------------------------------------------

 Structure from the checkpoint file:  "JID_1946.chk"
 -------------------------------
 CID_123706108_JID_1946_neutraal
 -------------------------------
 Charge =  0 Multiplicity = 1

 SCF Done:  E(RB3LYP) =  -548.800202884     A.U. after    1 cycles

  Exact polarizability: 107.162  -5.347  87.488  -0.555   4.055  56.384
 Approx polarizability: 155.680 -23.847 132.641  -4.357  10.525  91.207

                      1                      2                      3
                      A                      A                      A
 Frequencies --     50.0709                72.8882               130.1526
 Red. masses --      5.1016                 6.8793                 3.6948
 Frc consts  --      0.0075                 0.0215                 0.0369
 IR Inten    --      6.5674                 1.5010                 3.0148

                      4                      5                      6
                      A                      A                      A
 Frequencies --    174.4145               200.3533               229.2147
 Red. masses --      5.0577                 3.0056                 1.1388
 Frc consts  --      0.0906                 0.0711                 0.0353
 IR Inten    --      8.7046                 4.1046                 0.3350

                      7                      8                      9
                      A                      A                      A
 Frequencies --    272.5926               305.6408               347.6699
 Red. masses --      3.9080                 3.4681                 3.3900
 Frc consts  --      0.1711                 0.1909                 0.2414
 IR Inten    --      3.5539                 1.5570                 7.8336

                     10                     11                     12
                      A                      A                      A
 Frequencies --    417.7296               445.0723               452.7651
 Red. masses --      2.3455                 4.8761                 1.3478
 Frc consts  --      0.2411                 0.5691                 0.1628
 IR Inten    --     39.3170                18.6801               163.9040

                     13                     14                     15
                      A                      A                      A
 Frequencies --    490.7146               519.1683               549.4339
 Red. masses --      1.9519                 3.8398                 2.1607
 Frc consts  --      0.2769                 0.6098                 0.3843
 IR Inten    --     87.2123                37.9867                78.8426

                     16                     17                     18
                      A                      A                      A
 Frequencies --    580.3094               600.8717               663.3116
 Red. masses --      1.9851                 2.2947                 3.1513
 Frc consts  --      0.3939                 0.4881                 0.8169
 IR Inten    --     11.9875                 3.9334                17.6172

                     19                     20                     21
                      A                      A                      A
 Frequencies --    711.3327               782.3349               827.7189
 Red. masses --      4.3307                 5.4619                11.3519
 Frc consts  --      1.2911                 1.9696                 4.5823
 IR Inten    --     13.4642                 6.8563                 5.9076

                     22                     23                     24
                      A                      A                      A
 Frequencies --    862.5690               945.0560               956.8490
 Red. masses --      2.7567                 1.4807                 2.1807
 Frc consts  --      1.2084                 0.7791                 1.1763
 IR Inten    --      2.0884                 2.3586                 4.4187

                     25                     26                     27
                      A                      A                      A
 Frequencies --   1048.6247              1109.3021              1129.3200
 Red. masses --      2.7608                 2.2964                 2.5605
 Frc consts  --      1.7886                 1.6649                 1.9240
 IR Inten    --     57.1827                 8.7612                 9.1050

                     28                     29                     30
                      A                      A                      A
 Frequencies --   1133.4255              1158.3022              1183.4384
 Red. masses --      1.7839                 2.3006                 2.0292
 Frc consts  --      1.3502                 1.8186                 1.6744
 IR Inten    --      7.7081                 1.9915                39.1653

                     31                     32                     33
                      A                      A                      A
 Frequencies --   1274.9949              1315.0224              1350.0700
 Red. masses --      1.3252                 1.7349                 1.6303
 Frc consts  --      1.2692                 1.7676                 1.7507
 IR Inten    --      2.1202                 4.8518                 5.6323

                     34                     35                     36
                      A                      A                      A
 Frequencies --   1373.1570              1396.8758              1415.9596
 Red. masses --      1.6242                 2.3737                 1.9463
 Frc consts  --      1.8044                 2.7289                 2.2991
 IR Inten    --     23.0181               107.1903                22.0490

                     37                     38                     39
                      A                      A                      A
 Frequencies --   1440.3135              1483.1644              1518.6144
 Red. masses --      1.3133                 2.0505                 1.0502
 Frc consts  --      1.6052                 2.6576                 1.4270
 IR Inten    --     11.3685                36.6983                 4.3573

                     40                     41                     42
                      A                      A                      A
 Frequencies --   1528.6299              1535.6111              1630.6671
 Red. masses --      1.0506                 1.1173                 1.2644
 Frc consts  --      1.4464                 1.5523                 1.9810
 IR Inten    --      3.5168                 9.1063               136.0796

                     43                     44                     45
                      A                      A                      A
 Frequencies --   1704.8005              1790.3039              1832.0065
 Red. masses --     12.3032                 9.7146                 9.8572
 Frc consts  --     21.0676                18.3455                19.4921
 IR Inten    --     54.3992               149.2853               379.6578

                     46                     47                     48
                      A                      A                      A
 Frequencies --   3008.5966              3026.1415              3059.3559
 Red. masses --      1.0726                 1.0811                 1.0360
 Frc consts  --      5.7201                 5.8332                 5.7129
 IR Inten    --     24.2819                35.2115                23.7536

                     49                     50                     51
                      A                      A                      A
 Frequencies --   3110.2399              3128.0345              3143.9547
 Red. masses --      1.0941                 1.1028                 1.1024
 Frc consts  --      6.2360                 6.3574                 6.4199
 IR Inten    --     16.9440                33.0475                17.3549

                     52                     53                     54
                      A                      A                      A
 Frequencies --   3574.7410              3614.3391              3699.5424
 Red. masses --      1.0447                 1.0773                 1.1040
 Frc consts  --      7.8656                 8.2918                 8.9023
 IR Inten    --     28.8170                33.3831                51.8868

 - Thermochemistry -
 -------------------
 Temperature   298.150 Kelvin.  Pressure   1.00000 Atm.
 Atom     1 has atomic number  6 and mass  12.00000

 Molecular mass:   155.06948 amu.
 Principal axes and moments of inertia in atomic units:
                           1         2         3
     Eigenvalues --  1104.802221915.438922802.52466
           X            0.99995   0.00344   0.00940
           Y           -0.00353   0.99995   0.00953
           Z           -0.00936  -0.00956   0.99991
 This molecule is an asymmetric top.
 Rotational symmetry number  1.
 Warning -- assumption of classical behavior for rotation
           may cause significant error
 Rotational temperatures (Kelvin)      0.07840     0.04522     0.03091
 Rotational constants (GHZ):           1.63354     0.94221     0.64397
 Zero-point vibrational energy     420522.0 (Joules/Mol)
                                  100.50716 (Kcal/Mol)
 Warning -- explicit consideration of  17 degrees of freedom as
           vibrations may cause significant error
 Vibrational temperatures:     72.04   104.87   187.26   250.94   288.26
          (Kelvin)            329.79   392.20   439.75   500.22   601.02
                              640.36   651.43   706.03   746.97   790.51
                              834.94   864.52   954.36  1023.45  1125.61
                             1190.90  1241.04  1359.72  1376.69  1508.74
                             1596.04  1624.84  1630.75  1666.54  1702.70
                             1834.43  1892.02  1942.45  1975.67  2009.79
                             2037.25  2072.29  2133.94  2184.95  2199.36
                             2209.40  2346.17  2452.83  2575.85  2635.85
                             4328.70  4353.94  4401.73  4474.94  4500.54
                             4523.45  5143.25  5200.23  5322.82

 Zero-point correction=                           0.160168 (Hartree/Particle)
 Thermal correction to Energy=                    0.170763
 Thermal correction to Enthalpy=                  0.171707
 Thermal correction to Gibbs Free Energy=         0.123800
 Sum of electronic and zero-point Energies=           -548.640035
 Sum of electronic and thermal Energies=              -548.629440
 Sum of electronic and thermal Enthalpies=            -548.628496
 Sum of electronic and thermal Free Energies=         -548.676403

                     E (Thermal)             CV                S
                      KCal/Mol        Cal/Mol-Kelvin    Cal/Mol-Kelvin
 Total                  107.155             39.419            100.829
 Electronic               0.000              0.000              0.000
 Translational            0.889              2.981             41.026
 Rotational               0.889              2.981             30.162
 Vibrational            105.378             33.457             29.640
 Vibration     1          0.595              1.978              4.815
 Vibration     2          0.599              1.967              4.074
 Vibration     3          0.612              1.923              2.944
 Vibration     4          0.627              1.874              2.387
 Vibration     5          0.638              1.839              2.130
 Vibration     6          0.652              1.796              1.885
 Vibration     7          0.676              1.724              1.580
 Vibration     8          0.696              1.663              1.386
 Vibration     9          0.725              1.580              1.177
 Vibration    10          0.781              1.432              0.900
 Vibration    11          0.804              1.372              0.811
 Vibration    12          0.811              1.355              0.787
 Vibration    13          0.847              1.271              0.682
 Vibration    14          0.874              1.208              0.612
 Vibration    15          0.905              1.141              0.545
 Vibration    16          0.937              1.074              0.485
 Vibration    17          0.959              1.030              0.448

                           ! Non-Optimized Parameters !
 Normal termination of Gaussian 16 at Tue Dec  8 21:42:30 2020.

 ----------------------------------------------------------------------
 # B3LYP/6-311++G(d,p) empiricaldispersion=gd3bj scf=xqc pop=npa geom=c
 heck
 ----------------------------------------------------------------------

 ---------------------------------------
 CID_123706108_JID_1946_Energie_neutraal
 ---------------------------------------
 Structure from the checkpoint file:  "JID_1946.chk"
 Charge =  0 Multiplicity = 1

 SCF Done:  E(RB3LYP) =  -548.969957469     A.U. after   15 cycles
 Normal termination of Gaussian 16 at Tue Dec  8 21:44:59 2020.

 ----------------------------------------------------------------------
 # B3LYP/6-311++G(d,p) empiricaldispersion=gd3bj scf=xqc pop=npa geom=c
 heck
 ----------------------------------------------------------------------

 -------------------------------------
 CID_123706108_JID_1946_Energie_kation
 -------------------------------------
 Structure from the checkpoint file:  "JID_1946.chk"
 Charge =  1 Multiplicity = 2

 SCF Done:  E(UB3LYP) =  -548.647214526     A.U. after   25 cycles
 Normal termination of Gaussian 16 at Tue Dec  8 21:48:33 2020.
 Gaussian 16:  ES64L-G16RevA.03 25-Dec-2016

 ----------------------------------------------------------------------
 # B3LYP/6-311++G(d,p) empiricaldispersion=gd3bj scf=xqc pop=npa geom=c
 heck
 ----------------------------------------------------------------------

 ------------------------------------
 CID_123706108_JID_1946_Energie_anion
 ------------------------------------
 Structure from the checkpoint file:  "JID_1946.chk"
 Charge = -1 Multiplicity = 2

                         Standard orientation:
 ---------------------------------------------------------------------
 Center     Atomic      Atomic             Coordinates (Angstroms)
 Number     Number       Type             X           Y           Z
 ---------------------------------------------------------------------
      1          6           0        2.756957   -1.616824    0.154568
      2          6           0        1.815990   -0.512922   -0.321615
      3          6           0        2.020948    0.791559    0.452767
      4          7           0        1.010780    1.751314    0.035051
      5          6           0       -0.285563    1.387399   -0.188830
      6          8           0       -1.165122    2.160065   -0.530070
      7          6           0       -0.501899   -0.113247   -0.086817
      8          7           0        0.426966   -0.982076   -0.209824
      9          6           0       -1.915197   -0.607818    0.168668
     10          8           0       -2.698021    0.026968    0.854524
     11          7           0       -2.178079   -1.816041   -0.408045
     12          1           0        3.803542   -1.321562    0.022850
     13          1           0        2.578191   -2.534381   -0.412498
     14          1           0        2.588012   -1.835349    1.214557
     15          1           0        1.996678   -0.317105   -1.389248
     16          1           0        3.012213    1.205493    0.247763
     17          1           0        1.960059    0.587275    1.533119
     18          1           0        1.205179    2.743776    0.015295
     19          1           0       -1.389722   -2.369739   -0.715887
     20          1           0       -3.014095   -2.295938   -0.104293
 ---------------------------------------------------------------------

 SCF Done:  E(UB3LYP) =  -548.988114364     A.U. after   28 cycles

 The electronic state is 2-A.
 Alpha  occ. eigenvalues --  -18.92612 -18.92058 -14.18755 -14.17933 -14.12438
 Alpha  occ. eigenvalues --  -10.10676 -10.10280 -10.07967 -10.06726 -10.04031
 Alpha  occ. eigenvalues --  -10.02539  -0.88315  -0.87266  -0.79633  -0.75999
 Alpha  occ. eigenvalues --   -0.73869  -0.64496  -0.56290  -0.51906  -0.48360
 Alpha  occ. eigenvalues --   -0.44592  -0.40163  -0.37976  -0.36686  -0.35418
 Alpha  occ. eigenvalues --   -0.31885  -0.30529  -0.28928  -0.26897  -0.26274
 Alpha  occ. eigenvalues --   -0.25199  -0.24930  -0.24266  -0.23527  -0.23122
 Alpha  occ. eigenvalues --   -0.14914  -0.13845  -0.12096  -0.11355  -0.10789
 Alpha  occ. eigenvalues --   -0.06900   0.04490
 Alpha virt. eigenvalues --    0.07832   0.09306   0.09933   0.10611   0.11731
 Alpha virt. eigenvalues --    0.12882   0.13298   0.14060   0.15194   0.16209
 Alpha virt. eigenvalues --    0.17419   0.17699   0.18286   0.19181   0.19592

  Beta  occ. eigenvalues --  -18.92432 -18.91804 -14.18707 -14.17916 -14.11712
  Beta  occ. eigenvalues --  -10.10623 -10.10197 -10.07945 -10.06761 -10.04008
  Beta  occ. eigenvalues --  -10.02206  -0.87957  -0.86933  -0.79211  -0.75749
  Beta  occ. eigenvalues --   -0.73150  -0.64243  -0.56221  -0.51107  -0.47948
  Beta  occ. eigenvalues --   -0.44409  -0.39991  -0.37758  -0.36576  -0.35077
  Beta  occ. eigenvalues --   -0.31486  -0.30249  -0.28737  -0.26669  -0.25775
  Beta  occ. eigenvalues --   -0.24971  -0.24372  -0.23807  -0.22933  -0.22661
  Beta  occ. eigenvalues --   -0.13701  -0.11834  -0.11342  -0.10836  -0.10180
  Beta  occ. eigenvalues --   -0.06393
  Beta virt. eigenvalues --    0.07789   0.09258   0.09914   0.10594   0.11733
  Beta virt. eigenvalues --    0.12132   0.12823   0.13294   0.13974   0.15141
  Beta virt. eigenvalues --    0.16949   0.17626   0.17822   0.18209   0.19152

 Mulliken charges and spin densities:
               1          2
     1  C   -0.150475  -0.354741
     2  C   -0.476817   0.436145
     3  C    0.050573  -0.439866
     4  N   -0.266505   0.025490
     5  C    0.114291   0.051176
     6  O   -0.402427   0.080865
     7  C   -0.183097   0.197196
     8  N   -0.038581   0.347408
     9  C    0.121735   0.044420
    10  O   -0.401775   0.062681
    11  N   -0.354089   0.004588
    12  H   -0.073424   0.170831
    13  H    0.107526   0.028425
    14  H    0.081601   0.048141
    15  H    0.016153   0.149659
    16  H   -0.003447   0.135225
    17  H    0.133122  -0.000327
    18  H    0.259146   0.004861
    19  H    0.234069  -0.002351
    20  H    0.232419   0.010174
 Sum of Mulliken charges =  -1.00000   1.00000

 Dipole moment (field-independent basis, Debye):
    X=              4.5119    Y=             -2.3620    Z=              0.1425  Tot=              5.0947
 Quadrupole moment (field-independent basis, Debye-Ang):
   XX=            -97.0017   YY=            -79.4267   ZZ=            -75.5046
   XY=             13.9472   XZ=              4.0631   YZ=              2.6958

 Summary of Natural Population Analysis:

                                       Natural Population
                Natural  -----------------------------------------------
    Atom  No    Charge         Core      Valence    Rydberg      Total
 -----------------------------------------------------------------------
      C    1   -0.28048      0.99965     2.27517    0.00567     3.28048
      C    2   -0.03683      0.99961     2.02031    0.01691     3.03683
      C    3   -0.08882      0.99960     2.07723    0.01199     3.08882
      N    4   -0.32497      0.99968     2.81485    0.01045     3.82497
      C    5    0.33318      0.99964     1.64364    0.02355     2.66682
      O    6   -0.29496      0.99988     3.28874    0.00635     4.29496
      C    7    0.09893      0.99949     1.88664    0.01494     2.90107
      N    8   -0.14087      0.99964     2.62871    0.01252     3.64087
      C    9    0.33297      0.99968     1.64275    0.02460     2.66703
      O   10   -0.30237      0.99987     3.29642    0.00608     4.30237
      N   11   -0.41264      0.99971     2.90427    0.00866     3.91264
      H   12    0.08949      0.00000     0.40928    0.00123     0.41051
      H   13    0.10012      0.00000     0.39818    0.00169     0.39988
      H   14    0.09597      0.00000     0.40259    0.00143     0.40403
      H   15    0.09432      0.00000     0.40337    0.00231     0.40568
      H   16    0.09152      0.00000     0.40717    0.00131     0.40848
      H   17    0.08329      0.00000     0.41538    0.00134     0.41671
      H   18    0.18394      0.00000     0.31241    0.00365     0.31606
      H   19    0.19872      0.00000     0.29896    0.00231     0.30128
      H   20    0.17948      0.00000     0.31694    0.00357     0.32052
 =======================================================================
   * Total *   -0.00000     10.99644    29.84301    0.16054    41.00000

 Normal termination of Gaussian 16 at Tue Dec  8 21:51:55 2020.
