 Gaussian 16, Revision A.03,

 -----------------------------------------------------------
 # opt freq B3LYP/6-31G(d) empiricaldispersion=gd3bj scf=xqc
 -----------------------------------------------------------

 -----------------------------
 CID_62309543_JID_377_neutraal
 -----------------------------
 Symbolic Z-matrix:
 Charge =  0 Multiplicity = 1

 SCF Done:  E(RB3LYP) =  -443.779650088     A.U. after   13 cycles
 SCF Done:  E(RB3LYP) =  -443.798856766     A.U. after   12 cycles
 SCF Done:  E(RB3LYP) =  -443.800114234     A.U. after   12 cycles
 SCF Done:  E(RB3LYP) =  -443.795163970     A.U. after   14 cycles
 SCF Done:  E(RB3LYP) =  -443.800603859     A.U. after   12 cycles
 SCF Done:  E(RB3LYP) =  -443.798820576     A.U. after   14 cycles
 SCF Done:  E(RB3LYP) =  -443.800785648     A.U. after   11 cycles
 SCF Done:  E(RB3LYP) =  -443.800804677     A.U. after   10 cycles
 SCF Done:  E(RB3LYP) =  -443.800813569     A.U. after    9 cycles
 SCF Done:  E(RB3LYP) =  -443.800815760     A.U. after    9 cycles
 SCF Done:  E(RB3LYP) =  -443.800821480     A.U. after    9 cycles
 SCF Done:  E(RB3LYP) =  -443.800822448     A.U. after    9 cycles
 SCF Done:  E(RB3LYP) =  -443.800824181     A.U. after    9 cycles
 SCF Done:  E(RB3LYP) =  -443.800825440     A.U. after    9 cycles
 SCF Done:  E(RB3LYP) =  -443.800825853     A.U. after    9 cycles
 SCF Done:  E(RB3LYP) =  -443.800825858     A.U. after    8 cycles
 Optimization completed on the basis of negligible forces.
    -- Stationary point found.
 Normal termination of Gaussian 16 at Tue Dec  8 10:33:55 2020.

 --------------------------------------------------------------------
 #N Geom=AllCheck Guess=TCheck SCRF=Check GenChk RB3LYP/6-31G(d) Freq
 --------------------------------------------------------------------

 Structure from the checkpoint file:  "JID_377.chk"
 -----------------------------
 CID_62309543_JID_377_neutraal
 -----------------------------
 Charge =  0 Multiplicity = 1

 SCF Done:  E(RB3LYP) =  -443.800825858     A.U. after    1 cycles

  Exact polarizability: 118.173  14.420  93.180  -0.069  -2.707  72.799
 Approx polarizability: 147.148  26.603 126.771   0.234  -4.511 105.222

                      1                      2                      3
                      A                      A                      A
 Frequencies --     17.4468                21.4116                55.7792
 Red. masses --      1.0147                 3.9972                 3.0246
 Frc consts  --      0.0002                 0.0011                 0.0055
 IR Inten    --      0.0231                 0.0704                 1.2308

                      4                      5                      6
                      A                      A                      A
 Frequencies --     87.6052                99.3234               118.3009
 Red. masses --      3.0587                 2.7440                 2.5803
 Frc consts  --      0.0138                 0.0159                 0.0213
 IR Inten    --      2.2561                 5.1048                 0.2055

                      7                      8                      9
                      A                      A                      A
 Frequencies --    172.7236               211.6511               224.6805
 Red. masses --      3.5316                 2.2212                 1.5337
 Frc consts  --      0.0621                 0.0586                 0.0456
 IR Inten    --      2.1239                 7.7548                 3.6569

                     10                     11                     12
                      A                      A                      A
 Frequencies --    270.0233               286.0625               307.0434
 Red. masses --      1.7707                 2.7605                 2.9846
 Frc consts  --      0.0761                 0.1331                 0.1658
 IR Inten    --      2.5284                 0.5872                 5.4154

                     13                     14                     15
                      A                      A                      A
 Frequencies --    354.2306               367.6719               441.0264
 Red. masses --      2.4492                 4.1966                 2.8233
 Frc consts  --      0.1811                 0.3342                 0.3235
 IR Inten    --      1.3195                 0.3983                 1.4430

                     16                     17                     18
                      A                      A                      A
 Frequencies --    491.3267               598.2648               745.4323
 Red. masses --      4.9920                 2.6996                 1.2379
 Frc consts  --      0.7100                 0.5693                 0.4053
 IR Inten    --      0.8821                 1.5567                54.0096

                     19                     20                     21
                      A                      A                      A
 Frequencies --    788.5838               794.4836               876.0220
 Red. masses --      2.0946                 2.4863                 2.6102
 Frc consts  --      0.7675                 0.9246                 1.1802
 IR Inten    --     34.1419                20.8043                13.3440

                     22                     23                     24
                      A                      A                      A
 Frequencies --    930.1414               988.7715              1016.4534
 Red. masses --      2.2410                 1.9114                 1.5457
 Frc consts  --      1.1423                 1.1010                 0.9409
 IR Inten    --     31.6257                 1.6783                13.2626

                     25                     26                     27
                      A                      A                      A
 Frequencies --   1047.3656              1069.4857              1073.1654
 Red. masses --      2.3421                 1.4055                 1.3929
 Frc consts  --      1.5138                 0.9471                 0.9452
 IR Inten    --     10.8366                 1.7937                 0.6909

                     28                     29                     30
                      A                      A                      A
 Frequencies --   1097.7755              1135.3050              1164.1899
 Red. masses --      2.3459                 2.0895                 3.1999
 Frc consts  --      1.6657                 1.5868                 2.5553
 IR Inten    --     10.1718                 3.3462                34.1090

                     31                     32                     33
                      A                      A                      A
 Frequencies --   1170.9875              1185.2922              1195.3129
 Red. masses --      4.9494                 3.1983                 1.3414
 Frc consts  --      3.9986                 2.6474                 1.1292
 IR Inten    --    134.1866                15.5729                 8.9635

                     34                     35                     36
                      A                      A                      A
 Frequencies --   1218.2544              1249.0467              1266.6573
 Red. masses --      1.3247                 1.2964                 1.2892
 Frc consts  --      1.1583                 1.1916                 1.2187
 IR Inten    --     17.6740                12.2428                13.5171

                     37                     38                     39
                      A                      A                      A
 Frequencies --   1304.0640              1329.0306              1393.2889
 Red. masses --      1.2564                 1.1454                 1.4388
 Frc consts  --      1.2589                 1.1920                 1.6457
 IR Inten    --      8.5920                 3.5752                23.7552

                     40                     41                     42
                      A                      A                      A
 Frequencies --   1404.9322              1416.4195              1444.9170
 Red. masses --      1.2801                 1.3476                 1.2399
 Frc consts  --      1.4887                 1.5929                 1.5252
 IR Inten    --      8.3701                35.1394                 5.1625

                     43                     44                     45
                      A                      A                      A
 Frequencies --   1446.7356              1501.5989              1504.5531
 Red. masses --      1.3517                 1.1429                 1.1195
 Frc consts  --      1.6669                 1.5183                 1.4931
 IR Inten    --     21.4426                22.7553                 8.3521

                     46                     47                     48
                      A                      A                      A
 Frequencies --   1506.2883              1508.8642              1510.1343
 Red. masses --      1.1591                 1.0419                 1.0406
 Frc consts  --      1.5495                 1.3976                 1.3982
 IR Inten    --      7.3629                 5.3598                 5.3280

                     49                     50                     51
                      A                      A                      A
 Frequencies --   1514.9321              1516.1631              1532.0751
 Red. masses --      1.0494                 1.1270                 1.0720
 Frc consts  --      1.4190                 1.5263                 1.4826
 IR Inten    --      7.7838                16.9780                 6.5110

                     52                     53                     54
                      A                      A                      A
 Frequencies --   1535.3229              1559.7729              2380.1165
 Red. masses --      1.0730                 1.0883                11.8233
 Frc consts  --      1.4902                 1.5600                39.4626
 IR Inten    --      5.0860                 2.6647                 3.0722

                     55                     56                     57
                      A                      A                      A
 Frequencies --   2930.0351              2970.9766              2989.8541
 Red. masses --      1.0735                 1.0547                 1.0429
 Frc consts  --      5.4300                 5.4849                 5.4926
 IR Inten    --     62.4696                36.8231                72.2838

                     58                     59                     60
                      A                      A                      A
 Frequencies --   3000.0843              3027.3100              3031.2631
 Red. masses --      1.0997                 1.0837                 1.1047
 Frc consts  --      5.8318                 5.8518                 5.9807
 IR Inten    --     79.0933                26.6212                66.6032

                     61                     62                     63
                      A                      A                      A
 Frequencies --   3037.9910              3043.2340              3054.6734
 Red. masses --      1.0346                 1.0663                 1.0631
 Frc consts  --      5.6260                 5.8186                 5.8444
 IR Inten    --     37.6346                33.9271                52.6796

                     64                     65                     66
                      A                      A                      A
 Frequencies --   3085.3995              3097.4375              3099.7304
 Red. masses --      1.1029                 1.1016                 1.1013
 Frc consts  --      6.1862                 6.2270                 6.2345
 IR Inten    --     32.5017                15.1682                13.2154

                     67                     68                     69
                      A                      A                      A
 Frequencies --   3117.6657              3137.6241              3514.7156
 Red. masses --      1.0979                 1.0965                 1.0741
 Frc consts  --      6.2873                 6.3599                 7.8174
 IR Inten    --     38.3134                31.7162                 0.0730

 - Thermochemistry -
 -------------------
 Temperature   298.150 Kelvin.  Pressure   1.00000 Atm.
 Atom     1 has atomic number  6 and mass  12.00000

 Molecular mass:   141.11536 amu.
 Principal axes and moments of inertia in atomic units:
                           1         2         3
     Eigenvalues --   926.556273376.016483975.38489
           X            0.99996   0.00713  -0.00454
           Y           -0.00716   0.99995  -0.00695
           Z            0.00449   0.00698   0.99997
 This molecule is an asymmetric top.
 Rotational symmetry number  1.
 Warning -- assumption of classical behavior for rotation
           may cause significant error
 Rotational temperatures (Kelvin)      0.09348     0.02566     0.02179
 Rotational constants (GHZ):           1.94779     0.53458     0.45398
 Zero-point vibrational energy     583684.9 (Joules/Mol)
                                  139.50405 (Kcal/Mol)
 Warning -- explicit consideration of  17 degrees of freedom as
           vibrations may cause significant error
 Vibrational temperatures:     25.10    30.81    80.25   126.04   142.90
          (Kelvin)            170.21   248.51   304.52   323.27   388.50
                              411.58   441.77   509.66   529.00   634.54
                              706.91   860.77  1072.51  1134.60  1143.08
                             1260.40  1338.27  1422.62  1462.45  1506.93
                             1538.75  1544.05  1579.45  1633.45  1675.01
                             1684.79  1705.37  1719.79  1752.80  1797.10
                             1822.44  1876.26  1912.18  2004.63  2021.38
                             2037.91  2078.91  2081.53  2160.47  2164.72
                             2167.21  2170.92  2172.75  2179.65  2181.42
                             2204.31  2208.99  2244.17  3424.46  4215.67
                             4274.57  4301.73  4316.45  4355.62  4361.31
                             4370.99  4378.54  4394.99  4439.20  4456.52
                             4459.82  4485.63  4514.34  5056.89

 Zero-point correction=                           0.222314 (Hartree/Particle)
 Thermal correction to Energy=                    0.235093
 Thermal correction to Enthalpy=                  0.236037
 Thermal correction to Gibbs Free Energy=         0.180453
 Sum of electronic and zero-point Energies=           -443.578512
 Sum of electronic and thermal Energies=              -443.565733
 Sum of electronic and thermal Enthalpies=            -443.564789
 Sum of electronic and thermal Free Energies=         -443.620373

                     E (Thermal)             CV                S
                      KCal/Mol        Cal/Mol-Kelvin    Cal/Mol-Kelvin
 Total                  147.523             43.312            116.986
 Electronic               0.000              0.000              0.000
 Translational            0.889              2.981             40.745
 Rotational               0.889              2.981             30.898
 Vibrational            145.746             37.350             45.343
 Vibration     1          0.593              1.986              6.905
 Vibration     2          0.593              1.985              6.499
 Vibration     3          0.596              1.975              4.601
 Vibration     4          0.601              1.958              3.713
 Vibration     5          0.604              1.950              3.468
 Vibration     6          0.608              1.934              3.128
 Vibration     7          0.626              1.876              2.406
 Vibration     8          0.643              1.823              2.029
 Vibration     9          0.649              1.803              1.921
 Vibration    10          0.674              1.728              1.596
 Vibration    11          0.684              1.700              1.497
 Vibration    12          0.697              1.660              1.378
 Vibration    13          0.730              1.567              1.147
 Vibration    14          0.740              1.539              1.089
 Vibration    15          0.801              1.381              0.823
 Vibration    16          0.847              1.269              0.680
 Vibration    17          0.956              1.035              0.453

 Optimization completed on the basis of negligible forces.
    -- Stationary point found.
 Normal termination of Gaussian 16 at Tue Dec  8 10:37:44 2020.

 ----------------------------------------------------------------------
 # B3LYP/6-311++G(d,p) empiricaldispersion=gd3bj scf=xqc pop=npa geom=c
 heck
 ----------------------------------------------------------------------

 -------------------------------------
 CID_62309543_JID_377_Energie_neutraal
 -------------------------------------
 Structure from the checkpoint file:  "JID_377.chk"
 Charge =  0 Multiplicity = 1

 SCF Done:  E(RB3LYP) =  -443.936111644     A.U. after   13 cycles
 Normal termination of Gaussian 16 at Tue Dec  8 10:39:43 2020.

 ----------------------------------------------------------------------
 # B3LYP/6-311++G(d,p) empiricaldispersion=gd3bj scf=xqc pop=npa geom=c
 heck
 ----------------------------------------------------------------------

 -----------------------------------
 CID_62309543_JID_377_Energie_kation
 -----------------------------------
 Structure from the checkpoint file:  "JID_377.chk"
 Charge =  1 Multiplicity = 2

 SCF Done:  E(UB3LYP) =  -443.635214297     A.U. after   22 cycles
 Normal termination of Gaussian 16 at Tue Dec  8 10:47:46 2020.
 Gaussian 16:  ES64L-G16RevA.03 25-Dec-2016

 ----------------------------------------------------------------------
 # B3LYP/6-311++G(d,p) empiricaldispersion=gd3bj scf=xqc pop=npa geom=c
 heck
 ----------------------------------------------------------------------

 ----------------------------------
 CID_62309543_JID_377_Energie_anion
 ----------------------------------
 Structure from the checkpoint file:  "JID_377.chk"
 Charge = -1 Multiplicity = 2

                         Standard orientation:
 ---------------------------------------------------------------------
 Center     Atomic      Atomic             Coordinates (Angstroms)
 Number     Number       Type             X           Y           Z
 ---------------------------------------------------------------------
      1          6           0        4.552276    1.180402   -0.011339
      2          6           0        3.351744    0.357230    0.102742
      3          6           0        2.365786   -0.336753    0.187071
      4          6           0        1.147757   -1.140199    0.303671
      5          7           0        0.225163   -0.871099   -0.801007
      6          6           0       -1.048353   -1.579147   -0.713334
      7          6           0       -1.917373   -1.307755    0.533729
      8          6           0       -2.101965    0.177151    0.816234
      9          8           0       -2.576714    0.810063   -0.359408
     10          6           0       -2.766944    2.196987   -0.188988
     11          1           0        5.459400    0.581430    0.134641
     12          1           0        4.561970    1.984744    0.734351
     13          1           0        4.619829    1.645082   -1.002467
     14          1           0        1.401026   -2.209914    0.270454
     15          1           0        0.710179   -0.966955    1.305504
     16          1           0        0.057073    0.129831   -0.871711
     17          1           0       -1.622528   -1.307032   -1.603369
     18          1           0       -0.843763   -2.656054   -0.778894
     19          1           0       -2.898386   -1.774635    0.381491
     20          1           0       -1.483078   -1.772221    1.428221
     21          1           0       -2.811083    0.328063    1.647399
     22          1           0       -1.145074    0.633577    1.124037
     23          1           0       -3.517326    2.411932    0.588832
     24          1           0       -1.829053    2.705388    0.088508
     25          1           0       -3.119190    2.596461   -1.143401
 ---------------------------------------------------------------------

 SCF Done:  E(UB3LYP) =  -443.920456519     A.U. after   31 cycles

 The electronic state is 2-A.
 Alpha  occ. eigenvalues --  -19.02836 -14.19877 -10.11545 -10.11490 -10.11098
 Alpha  occ. eigenvalues --  -10.09387 -10.08494 -10.07017 -10.06282 -10.05657
 Alpha  occ. eigenvalues --   -0.94166  -0.81093  -0.68818  -0.67212  -0.63279
 Alpha  occ. eigenvalues --   -0.59338  -0.56791  -0.54016  -0.48121  -0.42104
 Alpha  occ. eigenvalues --   -0.39600  -0.38974  -0.36964  -0.36175  -0.35431
 Alpha  occ. eigenvalues --   -0.33665  -0.32587  -0.32484  -0.31879  -0.31062
 Alpha  occ. eigenvalues --   -0.29483  -0.26933  -0.26060  -0.24285  -0.22486
 Alpha  occ. eigenvalues --   -0.16636  -0.15975  -0.15594  -0.12787   0.04537
 Alpha virt. eigenvalues --    0.06274   0.07071   0.08320   0.08751   0.09418
 Alpha virt. eigenvalues --    0.10107   0.10184   0.10561   0.11335   0.11823
 Alpha virt. eigenvalues --    0.12443   0.13305   0.13674   0.14237   0.14714

  Beta  occ. eigenvalues --  -19.02825 -14.19869 -10.11515 -10.11472 -10.11056
  Beta  occ. eigenvalues --  -10.09383 -10.08437 -10.07002 -10.06278 -10.05653
  Beta  occ. eigenvalues --   -0.94148  -0.81079  -0.68785  -0.67167  -0.63232
  Beta  occ. eigenvalues --   -0.59280  -0.56727  -0.53946  -0.48066  -0.42076
  Beta  occ. eigenvalues --   -0.39566  -0.38905  -0.36927  -0.36124  -0.35388
  Beta  occ. eigenvalues --   -0.33632  -0.32534  -0.32429  -0.31846  -0.31033
  Beta  occ. eigenvalues --   -0.29448  -0.26904  -0.26029  -0.24258  -0.22413
  Beta  occ. eigenvalues --   -0.16610  -0.15954  -0.15575  -0.12773
  Beta virt. eigenvalues --    0.06748   0.07320   0.07640   0.08667   0.09148
  Beta virt. eigenvalues --    0.10106   0.10616   0.10805   0.10840   0.11892
  Beta virt. eigenvalues --    0.12035   0.12758   0.13557   0.13878   0.14462

 Mulliken charges and spin densities:
               1          2
     1  C    1.873063  -2.449173
     2  C   -0.643141   0.707746
     3  C    0.380098  -0.347253
     4  C   -0.794148   0.348960
     5  N   -0.102142   0.026649
     6  C   -0.620400   0.297489
     7  C    0.197170  -0.370887
     8  C    0.072156  -0.514050
     9  O   -0.215106   0.073984
    10  C    0.914111  -1.151095
    11  H   -0.361234   0.515228
    12  H   -0.404231   0.564996
    13  H   -0.285622   0.444564
    14  H    0.007435   0.145916
    15  H   -0.082044   0.192210
    16  H    0.285173  -0.068636
    17  H    0.111205   0.081449
    18  H    0.062020   0.059522
    19  H   -0.056969   0.229725
    20  H   -0.186107   0.335273
    21  H   -0.448687   0.593235
    22  H    0.208552  -0.025938
    23  H   -0.414193   0.549025
    24  H   -0.340190   0.471997
    25  H   -0.156769   0.289063
 Sum of Mulliken charges =  -1.00000   1.00000

 Dipole moment (field-independent basis, Debye):
    X=             -2.3804    Y=             -4.4537    Z=             -1.8350  Tot=              5.3730
 Quadrupole moment (field-independent basis, Debye-Ang):
   XX=           -151.2341   YY=           -101.0636   ZZ=            -94.5790
   XY=             -1.0210   XZ=              6.0044   YZ=             -2.5836

 Summary of Natural Population Analysis:

                                       Natural Population
                Natural  -----------------------------------------------
    Atom  No    Charge         Core      Valence    Rydberg      Total
 -----------------------------------------------------------------------
      C    1   -0.31732      0.99962     2.31239    0.00532     3.31732
      C    2    0.00005      0.99924     1.99398    0.00674     2.99995
      C    3   -0.01983      0.99924     2.01221    0.00838     3.01983
      C    4   -0.12099      0.99957     2.11042    0.01099     3.12099
      N    5   -0.33400      0.99975     2.82256    0.01169     3.83400
      C    6   -0.08761      0.99962     2.07687    0.01112     3.08761
      C    7   -0.21062      0.99963     2.20132    0.00967     3.21062
      C    8   -0.01198      0.99959     1.99924    0.01315     3.01198
      O    9   -0.30361      0.99988     3.29344    0.01029     4.30361
      C   10   -0.09666      0.99962     2.08760    0.00944     3.09666
      H   11    0.11043      0.00000     0.38770    0.00186     0.38957
      H   12    0.11241      0.00000     0.38533    0.00226     0.38759
      H   13    0.11207      0.00000     0.38606    0.00187     0.38793
      H   14    0.10035      0.00000     0.39820    0.00145     0.39965
      H   15    0.09258      0.00000     0.40542    0.00200     0.40742
      H   16    0.17657      0.00000     0.31953    0.00390     0.32343
      H   17    0.09961      0.00000     0.39906    0.00133     0.40039
      H   18    0.08793      0.00000     0.41098    0.00108     0.41207
      H   19    0.09989      0.00000     0.39887    0.00124     0.40011
      H   20    0.09830      0.00000     0.40054    0.00116     0.40170
      H   21    0.08451      0.00000     0.41325    0.00225     0.41549
      H   22    0.07880      0.00000     0.41899    0.00221     0.42120
      H   23    0.08013      0.00000     0.41763    0.00223     0.41987
      H   24    0.08044      0.00000     0.41779    0.00177     0.41956
      H   25    0.08855      0.00000     0.41032    0.00113     0.41145
 =======================================================================
   * Total *   -0.00000      9.99576    28.87971    0.12454    39.00000

 Normal termination of Gaussian 16 at Tue Dec  8 10:55:27 2020.
