 Gaussian 16, Revision A.03,

 -----------------------------------------------------------
 # opt freq B3LYP/6-31G(d) empiricaldispersion=gd3bj scf=xqc
 -----------------------------------------------------------

 ------------------------------
 CID_12568257_JID_2690_neutraal
 ------------------------------
 Symbolic Z-matrix:
 Charge =  0 Multiplicity = 1

 SCF Done:  E(RB3LYP) =  -558.460754378     A.U. after   14 cycles
 SCF Done:  E(RB3LYP) =  -558.463241354     A.U. after   12 cycles
 SCF Done:  E(RB3LYP) =  -558.462571132     A.U. after   12 cycles
 SCF Done:  E(RB3LYP) =  -558.463600352     A.U. after   12 cycles
 SCF Done:  E(RB3LYP) =  -558.463643906     A.U. after   10 cycles
 SCF Done:  E(RB3LYP) =  -558.463662962     A.U. after    9 cycles
 SCF Done:  E(RB3LYP) =  -558.463671829     A.U. after    9 cycles
 SCF Done:  E(RB3LYP) =  -558.463672977     A.U. after    8 cycles
 SCF Done:  E(RB3LYP) =  -558.463673100     A.U. after    7 cycles
 Optimization completed.
    -- Stationary point found.
 Normal termination of Gaussian 16 at Wed Dec  9 17:54:20 2020.

 --------------------------------------------------------------------
 #N Geom=AllCheck Guess=TCheck SCRF=Check GenChk RB3LYP/6-31G(d) Freq
 --------------------------------------------------------------------

 Structure from the checkpoint file:  "JID_2690.chk"
 ------------------------------
 CID_12568257_JID_2690_neutraal
 ------------------------------
 Charge =  0 Multiplicity = 1

 SCF Done:  E(RB3LYP) =  -558.463673100     A.U. after    1 cycles

  Exact polarizability: 113.507  -0.057  99.155   2.706   0.884  92.284
 Approx polarizability: 142.680  -3.334 153.778   7.752   0.279 135.871

                      1                      2                      3
                      A                      A                      A
 Frequencies --     46.7975                68.5949                92.7862
 Red. masses --      8.7628                 3.7912                 3.7496
 Frc consts  --      0.0113                 0.0105                 0.0190
 IR Inten    --      0.9467                 0.9149                 2.2218

                      4                      5                      6
                      A                      A                      A
 Frequencies --    140.9017               171.5152               242.0570
 Red. masses --      2.8431                 2.9538                 1.0835
 Frc consts  --      0.0333                 0.0512                 0.0374
 IR Inten    --      1.8575                 8.4391                 1.4254

                      7                      8                      9
                      A                      A                      A
 Frequencies --    251.9033               271.2466               278.3794
 Red. masses --      1.5716                 1.7399                 2.3317
 Frc consts  --      0.0588                 0.0754                 0.1065
 IR Inten    --     34.6464                16.1852                 4.3863

                     10                     11                     12
                      A                      A                      A
 Frequencies --    295.5526               330.5078               364.1980
 Red. masses --      3.3377                 2.4052                 2.4876
 Frc consts  --      0.1718                 0.1548                 0.1944
 IR Inten    --      0.5248                 1.3415                 0.2290

                     13                     14                     15
                      A                      A                      A
 Frequencies --    390.0934               428.7319               464.2540
 Red. masses --      2.1147                 2.7226                 2.4159
 Frc consts  --      0.1896                 0.2949                 0.3068
 IR Inten    --      4.8041                 4.7570                 0.8682

                     16                     17                     18
                      A                      A                      A
 Frequencies --    496.6235               534.7675               558.0933
 Red. masses --      3.2494                 3.6767                 3.3513
 Frc consts  --      0.4722                 0.6195                 0.6150
 IR Inten    --      7.9073                12.9897                 9.6020

                     19                     20                     21
                      A                      A                      A
 Frequencies --    626.0566               648.7177               716.3699
 Red. masses --      1.4850                 1.7401                 3.3208
 Frc consts  --      0.3429                 0.4315                 1.0041
 IR Inten    --     59.9183                21.8382                27.6230

                     22                     23                     24
                      A                      A                      A
 Frequencies --    786.0857               787.5032               802.0350
 Red. masses --      3.6049                 2.8574                 1.5095
 Frc consts  --      1.3125                 1.0441                 0.5721
 IR Inten    --     29.1437                 8.9429                 0.1632

                     25                     26                     27
                      A                      A                      A
 Frequencies --    856.4253               872.9373               901.2493
 Red. masses --      1.9964                 1.4811                 1.9799
 Frc consts  --      0.8627                 0.6650                 0.9475
 IR Inten    --     15.9611                86.9340                17.9532

                     28                     29                     30
                      A                      A                      A
 Frequencies --    944.8570               979.1016               989.6368
 Red. masses --      1.9694                 1.6494                 2.3177
 Frc consts  --      1.0359                 0.9316                 1.3374
 IR Inten    --      2.6597                25.9874                 4.5700

                     31                     32                     33
                      A                      A                      A
 Frequencies --    996.1530              1010.0034              1051.4032
 Red. masses --      1.6192                 1.5372                 1.6165
 Frc consts  --      0.9467                 0.9239                 1.0529
 IR Inten    --      6.5768                 0.9280                 6.4480

                     34                     35                     36
                      A                      A                      A
 Frequencies --   1076.4368              1101.4524              1110.1716
 Red. masses --      2.1031                 2.1957                 1.6315
 Frc consts  --      1.4358                 1.5694                 1.1847
 IR Inten    --      9.5229                 6.0652                 3.2216

                     37                     38                     39
                      A                      A                      A
 Frequencies --   1128.8088              1146.7127              1155.9072
 Red. masses --      3.0527                 1.5031                 1.7040
 Frc consts  --      2.2918                 1.1645                 1.3414
 IR Inten    --     68.7169                 9.7122               126.8205

                     40                     41                     42
                      A                      A                      A
 Frequencies --   1189.8654              1213.0793              1234.4234
 Red. masses --      1.8580                 1.4435                 1.4657
 Frc consts  --      1.5499                 1.2516                 1.3159
 IR Inten    --     26.8249                29.3705                 3.2006

                     43                     44                     45
                      A                      A                      A
 Frequencies --   1279.7815              1298.1598              1321.9843
 Red. masses --      1.6895                 1.6267                 1.3499
 Frc consts  --      1.6304                 1.6151                 1.3900
 IR Inten    --      1.3025                 5.9742                 3.7954

                     46                     47                     48
                      A                      A                      A
 Frequencies --   1331.6410              1364.2565              1368.8430
 Red. masses --      1.4296                 1.3922                 1.4986
 Frc consts  --      1.4936                 1.5267                 1.6544
 IR Inten    --      4.9109                 2.5229                 2.1211

                     49                     50                     51
                      A                      A                      A
 Frequencies --   1380.2068              1385.6245              1399.9718
 Red. masses --      1.8726                 1.4414                 1.3941
 Frc consts  --      2.1018                 1.6306                 1.6099
 IR Inten    --      8.9560                 6.2104                 0.4622

                     52                     53                     54
                      A                      A                      A
 Frequencies --   1409.9035              1415.2927              1438.8290
 Red. masses --      1.4699                 1.3907                 1.2761
 Frc consts  --      1.7215                 1.6412                 1.5565
 IR Inten    --      6.3465                 0.3488                 5.5956

                     55                     56                     57
                      A                      A                      A
 Frequencies --   1453.4972              1508.1177              1519.7720
 Red. masses --      1.4665                 1.0822                 1.0832
 Frc consts  --      1.8254                 1.4502                 1.4741
 IR Inten    --      5.6728                 0.5395                 7.8903

                     58                     59                     60
                      A                      A                      A
 Frequencies --   1524.6159              1525.0074              1533.4004
 Red. masses --      1.0559                 1.0876                 1.0648
 Frc consts  --      1.4461                 1.4902                 1.4751
 IR Inten    --      2.4947                10.4065                11.2708

                     61                     62                     63
                      A                      A                      A
 Frequencies --   1538.5120              1543.7029              1701.1874
 Red. masses --      1.0896                 1.0845                 1.0871
 Frc consts  --      1.5196                 1.5227                 1.8537
 IR Inten    --      3.6451                 7.4735                32.1683

                     64                     65                     66
                      A                      A                      A
 Frequencies --   1831.5580              2967.0813              3036.0496
 Red. masses --      9.7125                 1.0719                 1.0707
 Frc consts  --     19.1966                 5.5601                 5.8147
 IR Inten    --    221.1978                65.0950                 6.5205

                     67                     68                     69
                      A                      A                      A
 Frequencies --   3042.1593              3043.8394              3049.3445
 Red. masses --      1.0688                 1.0646                 1.0472
 Frc consts  --      5.8277                 5.8114                 5.7373
 IR Inten    --     18.8690                16.2102                10.0975

                     70                     71                     72
                      A                      A                      A
 Frequencies --   3053.0223              3056.5224              3071.0292
 Red. masses --      1.0697                 1.0635                 1.0892
 Frc consts  --      5.8745                 5.8540                 6.0522
 IR Inten    --     79.7462                15.6390                70.7748

                     73                     74                     75
                      A                      A                      A
 Frequencies --   3082.9558              3091.3376              3107.5220
 Red. masses --      1.0971                 1.0965                 1.0972
 Frc consts  --      6.1436                 6.1738                 6.2425
 IR Inten    --     43.7437                33.4453                19.8007

                     76                     77                     78
                      A                      A                      A
 Frequencies --   3108.6297              3121.1928              3131.4848
 Red. masses --      1.0968                 1.1026                 1.1028
 Frc consts  --      6.2448                 6.3286                 6.3719
 IR Inten    --     19.7699                35.2002                23.1673

                     79                     80                     81
                      A                      A                      A
 Frequencies --   3470.4271              3551.6222              3683.8032
 Red. masses --      1.0500                 1.0919                 1.0640
 Frc consts  --      7.4511                 8.1152                 8.5074
 IR Inten    --      2.4059                 0.9195                49.8384

 - Thermochemistry -
 -------------------
 Temperature   298.150 Kelvin.  Pressure   1.00000 Atm.
 Atom     1 has atomic number  6 and mass  12.00000

 Molecular mass:   171.12593 amu.
 Principal axes and moments of inertia in atomic units:
                           1         2         3
     Eigenvalues --  1082.870903073.249523150.00629
           X            0.99994   0.00598  -0.00965
           Y           -0.00609   0.99992  -0.01114
           Z            0.00958   0.01120   0.99989
 This molecule is an asymmetric top.
 Rotational symmetry number  1.
 Warning -- assumption of classical behavior for rotation
           may cause significant error
 Rotational temperatures (Kelvin)      0.07999     0.02818     0.02750
 Rotational constants (GHZ):           1.66663     0.58724     0.57293
 Zero-point vibrational energy     684827.9 (Joules/Mol)
                                  163.67780 (Kcal/Mol)
 Warning -- explicit consideration of  18 degrees of freedom as
           vibrations may cause significant error
 Vibrational temperatures:     67.33    98.69   133.50   202.73   246.77
          (Kelvin)            348.27   362.43   390.26   400.53   425.23
                              475.53   524.00   561.26   616.85   667.96
                              714.53   769.41   802.97   900.76   933.36
                             1030.70  1131.00  1133.04  1153.95  1232.21
                             1255.96  1296.70  1359.44  1408.71  1423.87
                             1433.24  1453.17  1512.73  1548.75  1584.74
                             1597.29  1624.10  1649.86  1663.09  1711.95
                             1745.35  1776.06  1841.32  1867.76  1902.04
                             1915.93  1962.86  1969.46  1985.81  1993.60
                             2014.25  2028.54  2036.29  2070.15  2091.26
                             2169.84  2186.61  2193.58  2194.15  2206.22
                             2213.58  2221.04  2447.63  2635.20  4268.97
                             4368.20  4376.99  4379.41  4387.33  4392.62
                             4397.65  4418.53  4435.69  4447.75  4471.03
                             4472.62  4490.70  4505.51  4993.17  5109.99
                             5300.17

 Zero-point correction=                           0.260837 (Hartree/Particle)
 Thermal correction to Energy=                    0.273194
 Thermal correction to Enthalpy=                  0.274138
 Thermal correction to Gibbs Free Energy=         0.222639
 Sum of electronic and zero-point Energies=           -558.202836
 Sum of electronic and thermal Energies=              -558.190479
 Sum of electronic and thermal Enthalpies=            -558.189535
 Sum of electronic and thermal Free Energies=         -558.241034

                     E (Thermal)             CV                S
                      KCal/Mol        Cal/Mol-Kelvin    Cal/Mol-Kelvin
 Total                  171.432             48.096            108.389
 Electronic               0.000              0.000              0.000
 Translational            0.889              2.981             41.319
 Rotational               0.889              2.981             30.728
 Vibrational            169.654             42.134             36.341
 Vibration     1          0.595              1.979              4.948
 Vibration     2          0.598              1.969              4.193
 Vibration     3          0.602              1.954              3.600
 Vibration     4          0.615              1.912              2.792
 Vibration     5          0.626              1.878              2.419
 Vibration     6          0.658              1.776              1.788
 Vibration     7          0.664              1.760              1.717
 Vibration     8          0.675              1.726              1.588
 Vibration     9          0.679              1.714              1.544
 Vibration    10          0.690              1.682              1.442
 Vibration    11          0.713              1.615              1.258
 Vibration    12          0.738              1.546              1.104
 Vibration    13          0.758              1.491              1.000
 Vibration    14          0.790              1.408              0.863
 Vibration    15          0.822              1.329              0.754
 Vibration    16          0.852              1.258              0.667
 Vibration    17          0.890              1.173              0.577
 Vibration    18          0.914              1.122              0.528

 Optimization completed.
    -- Stationary point found.
 Normal termination of Gaussian 16 at Wed Dec  9 18:03:14 2020.

 ----------------------------------------------------------------------
 # B3LYP/6-311++G(d,p) empiricaldispersion=gd3bj scf=xqc pop=npa geom=c
 heck
 ----------------------------------------------------------------------

 --------------------------------------
 CID_12568257_JID_2690_Energie_neutraal
 --------------------------------------
 Structure from the checkpoint file:  "JID_2690.chk"
 Charge =  0 Multiplicity = 1

 SCF Done:  E(RB3LYP) =  -558.639411032     A.U. after   14 cycles
 Normal termination of Gaussian 16 at Wed Dec  9 18:06:31 2020.

 ----------------------------------------------------------------------
 # B3LYP/6-311++G(d,p) empiricaldispersion=gd3bj scf=xqc pop=npa geom=c
 heck
 ----------------------------------------------------------------------

 ------------------------------------
 CID_12568257_JID_2690_Energie_kation
 ------------------------------------
 Structure from the checkpoint file:  "JID_2690.chk"
 Charge =  1 Multiplicity = 2

 SCF Done:  E(UB3LYP) =  -558.311910291     A.U. after   24 cycles
 Normal termination of Gaussian 16 at Wed Dec  9 18:14:46 2020.
 Gaussian 16:  ES64L-G16RevA.03 25-Dec-2016

 ----------------------------------------------------------------------
 # B3LYP/6-311++G(d,p) empiricaldispersion=gd3bj scf=xqc pop=npa geom=c
 heck
 ----------------------------------------------------------------------

 -----------------------------------
 CID_12568257_JID_2690_Energie_anion
 -----------------------------------
 Structure from the checkpoint file:  "JID_2690.chk"
 Charge = -1 Multiplicity = 2

                         Standard orientation:
 ---------------------------------------------------------------------
 Center     Atomic      Atomic             Coordinates (Angstroms)
 Number     Number       Type             X           Y           Z
 ---------------------------------------------------------------------
      1          6           0       -1.788833   -0.654214    1.869006
      2          6           0       -1.011140   -0.164542    0.628886
      3          6           0       -0.259941    1.142451    0.951503
      4          6           0        0.653888    1.608251   -0.192993
      5          6           0        1.638337    0.522862   -0.667433
      6          6           0        0.863888   -0.767123   -0.996708
      7          6           0       -0.007015   -1.245679    0.171081
      8          6           0        2.769988    0.302155    0.349167
      9          7           0        3.746241   -0.680329   -0.139983
     10          6           0       -2.054085    0.108755   -0.453890
     11          8           0       -2.493445    1.195651   -0.762882
     12          8           0       -2.514292   -1.031291   -1.034222
     13          1           0       -1.087563   -0.849186    2.687856
     14          1           0       -2.505779    0.101880    2.207434
     15          1           0       -2.333828   -1.578798    1.654362
     16          1           0       -0.985358    1.927436    1.186172
     17          1           0        0.330155    0.968206    1.859930
     18          1           0        1.205145    2.503383    0.123220
     19          1           0        0.024205    1.913294   -1.036421
     20          1           0        2.123424    0.865995   -1.589874
     21          1           0        1.556358   -1.558635   -1.305769
     22          1           0        0.219608   -0.580031   -1.866575
     23          1           0        0.623853   -1.495050    1.034892
     24          1           0       -0.543008   -2.159455   -0.101811
     25          1           0        3.297998    1.254940    0.477087
     26          1           0        2.351199    0.047310    1.338230
     27          1           0        4.569620   -0.667871    0.459325
     28          1           0        3.360132   -1.618902   -0.055114
     29          1           0       -3.198468   -0.744589   -1.667939
 ---------------------------------------------------------------------

 SCF Done:  E(UB3LYP) =  -558.626014617     A.U. after   32 cycles

 The electronic state is 2-A.
 Alpha  occ. eigenvalues --  -19.06821 -19.01682 -14.18461 -10.20461 -10.09727
 Alpha  occ. eigenvalues --  -10.08218 -10.06971 -10.06615 -10.06504 -10.06429
 Alpha  occ. eigenvalues --  -10.06240 -10.06030  -1.01032  -0.92049  -0.77810
 Alpha  occ. eigenvalues --   -0.74547  -0.68191  -0.64361  -0.59535  -0.56099
 Alpha  occ. eigenvalues --   -0.53865  -0.51544  -0.46983  -0.43761  -0.39620
 Alpha  occ. eigenvalues --   -0.39229  -0.38445  -0.36547  -0.36058  -0.34627
 Alpha  occ. eigenvalues --   -0.33337  -0.32244  -0.31823  -0.31296  -0.29387
 Alpha  occ. eigenvalues --   -0.28292  -0.27592  -0.26679  -0.25661  -0.24985
 Alpha  occ. eigenvalues --   -0.23830  -0.22679  -0.21763  -0.20322  -0.19803
 Alpha  occ. eigenvalues --   -0.17968  -0.13729   0.04491
 Alpha virt. eigenvalues --    0.06182   0.07615   0.07966   0.09018   0.09135
 Alpha virt. eigenvalues --    0.09801   0.10315   0.10851   0.11354   0.12167
 Alpha virt. eigenvalues --    0.12802   0.13256   0.13290   0.14266   0.14396

  Beta  occ. eigenvalues --  -19.06773 -19.01666 -14.18414 -10.20460 -10.09721
  Beta  occ. eigenvalues --  -10.08192 -10.06946 -10.06605 -10.06504 -10.06404
  Beta  occ. eigenvalues --  -10.06236 -10.06015  -1.00976  -0.91996  -0.77740
  Beta  occ. eigenvalues --   -0.74515  -0.68157  -0.64333  -0.59482  -0.56018
  Beta  occ. eigenvalues --   -0.53786  -0.51502  -0.46915  -0.43708  -0.39585
  Beta  occ. eigenvalues --   -0.39185  -0.38405  -0.36498  -0.36007  -0.34587
  Beta  occ. eigenvalues --   -0.33299  -0.32206  -0.31785  -0.31262  -0.29342
  Beta  occ. eigenvalues --   -0.28264  -0.27564  -0.26636  -0.25636  -0.24950
  Beta  occ. eigenvalues --   -0.23805  -0.22644  -0.21737  -0.20298  -0.19782
  Beta  occ. eigenvalues --   -0.17904  -0.13680
  Beta virt. eigenvalues --    0.06925   0.07700   0.08106   0.08376   0.09070
  Beta virt. eigenvalues --    0.09768   0.10240   0.10599   0.11152   0.11602
  Beta virt. eigenvalues --    0.12683   0.13084   0.13351   0.13728   0.14500

 Mulliken charges and spin densities:
               1          2
     1  C    0.481966  -0.933064
     2  C   -1.332184   2.084677
     3  C    0.251973  -0.734627
     4  C   -0.829613   0.341998
     5  C   -0.088688   0.515336
     6  C   -0.406922  -0.054840
     7  C    0.757810  -1.238871
     8  C    1.762303  -2.510984
     9  N   -0.540247   0.197964
    10  C    0.807659  -1.274773
    11  O   -0.290571   0.047539
    12  O   -0.253041   0.130189
    13  H   -0.176250   0.335261
    14  H   -0.006604   0.154265
    15  H   -0.147683   0.305726
    16  H    0.137045   0.065621
    17  H    0.237745  -0.080759
    18  H    0.020598   0.138066
    19  H    0.177892  -0.010658
    20  H    0.062941   0.128822
    21  H   -0.161688   0.350676
    22  H    0.050565   0.097453
    23  H   -0.274346   0.445411
    24  H   -0.028696   0.247066
    25  H   -0.217509   0.374024
    26  H   -0.361677   0.496004
    27  H   -0.254319   0.496871
    28  H   -0.027584   0.241444
    29  H   -0.350876   0.644165
 Sum of Mulliken charges =  -1.00000   1.00000

 Dipole moment (field-independent basis, Debye):
    X=             -2.2065    Y=              3.0591    Z=              0.0511  Tot=              3.7722
 Quadrupole moment (field-independent basis, Debye-Ang):
   XX=           -153.5879   YY=           -109.3274   ZZ=           -109.3152
   XY=              3.5427   XZ=            -10.7132   YZ=              0.8516

 Summary of Natural Population Analysis:

                                       Natural Population
                Natural  -----------------------------------------------
    Atom  No    Charge         Core      Valence    Rydberg      Total
 -----------------------------------------------------------------------
      C    1   -0.27791      0.99963     2.27096    0.00732     3.27791
      C    2   -0.08091      0.99951     2.06771    0.01370     3.08091
      C    3   -0.19040      0.99960     2.18025    0.01055     3.19040
      C    4   -0.18964      0.99961     2.18223    0.00780     3.18964
      C    5   -0.11246      0.99959     2.10216    0.01072     3.11246
      C    6   -0.19198      0.99961     2.18300    0.00937     3.19198
      C    7   -0.19206      0.99960     2.18116    0.01131     3.19206
      C    8   -0.08852      0.99960     2.07687    0.01204     3.08852
      N    9   -0.42390      0.99977     2.91324    0.01089     3.92390
      C   10    0.41735      0.99962     1.55530    0.02773     2.58265
      O   11   -0.31082      0.99987     3.30470    0.00626     4.31082
      O   12   -0.34651      0.99988     3.33903    0.00761     4.34651
      H   13    0.10295      0.00000     0.39599    0.00106     0.39705
      H   14    0.10088      0.00000     0.39816    0.00096     0.39912
      H   15    0.10618      0.00000     0.39261    0.00121     0.39382
      H   16    0.10701      0.00000     0.39206    0.00093     0.39299
      H   17    0.09822      0.00000     0.40040    0.00137     0.40178
      H   18    0.09739      0.00000     0.40165    0.00096     0.40261
      H   19    0.10260      0.00000     0.39623    0.00117     0.39740
      H   20    0.09918      0.00000     0.39915    0.00167     0.40082
      H   21    0.10327      0.00000     0.39562    0.00112     0.39673
      H   22    0.09734      0.00000     0.40119    0.00147     0.40266
      H   23    0.09994      0.00000     0.39814    0.00191     0.40006
      H   24    0.10968      0.00000     0.38869    0.00163     0.39032
      H   25    0.08968      0.00000     0.40903    0.00129     0.41032
      H   26    0.07992      0.00000     0.41757    0.00251     0.42008
      H   27    0.17759      0.00000     0.31935    0.00306     0.32241
      H   28    0.17361      0.00000     0.32372    0.00267     0.32639
      H   29    0.24231      0.00000     0.24448    0.01321     0.25769
 =======================================================================
   * Total *   -0.00000     11.99587    34.83062    0.17352    47.00000

 Normal termination of Gaussian 16 at Wed Dec  9 18:23:40 2020.
