 Gaussian 16, Revision A.03,

 -----------------------------------------------------------
 # opt freq B3LYP/6-31G(d) empiricaldispersion=gd3bj scf=xqc
 -----------------------------------------------------------

 ------------------------------
 CID_84158956_JID_8252_neutraal
 ------------------------------
 Symbolic Z-matrix:
 Charge =  0 Multiplicity = 1

 SCF Done:  E(RB3LYP) =  -819.145397270     A.U. after   15 cycles
 SCF Done:  E(RB3LYP) =  -819.155733163     A.U. after   13 cycles
 SCF Done:  E(RB3LYP) =  -819.157273524     A.U. after   13 cycles
 SCF Done:  E(RB3LYP) =  -819.159394297     A.U. after   13 cycles
 SCF Done:  E(RB3LYP) =  -819.160015214     A.U. after   12 cycles
 SCF Done:  E(RB3LYP) =  -819.160545699     A.U. after   12 cycles
 SCF Done:  E(RB3LYP) =  -819.160872334     A.U. after   12 cycles
 SCF Done:  E(RB3LYP) =  -819.161228502     A.U. after   13 cycles
 SCF Done:  E(RB3LYP) =  -819.162608964     A.U. after   14 cycles
 SCF Done:  E(RB3LYP) =  -819.070482607     A.U. after   14 cycles
 SCF Done:  E(RB3LYP) =  -819.193745638     A.U. after   10 cycles
 SCF Done:  E(RB3LYP) =  -819.193762777     A.U. after   10 cycles
 SCF Done:  E(RB3LYP) =  -819.193769157     A.U. after   10 cycles
 SCF Done:  E(RB3LYP) =  -819.193772470     A.U. after    9 cycles
 SCF Done:  E(RB3LYP) =  -819.193773984     A.U. after    8 cycles
 Optimization completed.
    -- Stationary point found.
 Normal termination of Gaussian 16 at Fri Dec 11 19:58:46 2020.

 --------------------------------------------------------------------
 #N Geom=AllCheck Guess=TCheck SCRF=Check GenChk RB3LYP/6-31G(d) Freq
 --------------------------------------------------------------------

 Structure from the checkpoint file:  "JID_8252.chk"
 ------------------------------
 CID_84158956_JID_8252_neutraal
 ------------------------------
 Charge =  0 Multiplicity = 1

 SCF Done:  E(RB3LYP) =  -819.193773984     A.U. after    1 cycles

  Exact polarizability: 198.792  -7.552 172.332  -0.460  -2.132 102.993
 Approx polarizability: 285.969 -17.747 290.990   5.850 -14.655 166.874

                      1                      2                      3
                      A                      A                      A
 Frequencies --     33.3429                46.4435                72.7981
 Red. masses --      4.0410                 3.9232                 4.2789
 Frc consts  --      0.0026                 0.0050                 0.0134
 IR Inten    --      0.5167                 0.3989                 0.9842

                      4                      5                      6
                      A                      A                      A
 Frequencies --     92.4426                96.7916               119.5953
 Red. masses --      5.0838                 4.2170                 5.1363
 Frc consts  --      0.0256                 0.0233                 0.0433
 IR Inten    --      1.6140                 1.6412                 1.4094

                      7                      8                      9
                      A                      A                      A
 Frequencies --    149.4497               153.6730               210.1638
 Red. masses --      1.3275                 2.1033                 3.8998
 Frc consts  --      0.0175                 0.0293                 0.1015
 IR Inten    --      1.5619                 4.1472                 0.8357

                     10                     11                     12
                      A                      A                      A
 Frequencies --    223.0242               250.5379               314.1436
 Red. masses --      4.0059                 3.9372                 5.1011
 Frc consts  --      0.1174                 0.1456                 0.2966
 IR Inten    --      2.3581                 0.2062                 1.0167

                     13                     14                     15
                      A                      A                      A
 Frequencies --    325.3971               346.4167               357.8792
 Red. masses --      4.5770                 3.3185                 4.0330
 Frc consts  --      0.2855                 0.2346                 0.3043
 IR Inten    --      4.2078                 4.0177                16.1497

                     16                     17                     18
                      A                      A                      A
 Frequencies --    391.7395               403.6708               424.0815
 Red. masses --      3.0122                 3.4554                 3.6597
 Frc consts  --      0.2724                 0.3317                 0.3878
 IR Inten    --     10.4622                 3.8263                 4.5259

                     19                     20                     21
                      A                      A                      A
 Frequencies --    433.5766               449.0817               468.0176
 Red. masses --      2.5067                 3.6244                 1.3489
 Frc consts  --      0.2776                 0.4307                 0.1741
 IR Inten    --     31.1174                 2.5000                58.5047

                     22                     23                     24
                      A                      A                      A
 Frequencies --    492.7755               505.9533               554.2374
 Red. masses --      3.9087                 2.1033                 3.5757
 Frc consts  --      0.5592                 0.3172                 0.6472
 IR Inten    --      2.0666                 9.2157                 4.7610

                     25                     26                     27
                      A                      A                      A
 Frequencies --    574.0377               619.3563               635.8608
 Red. masses --      4.6467                 2.6861                 3.7151
 Frc consts  --      0.9021                 0.6071                 0.8850
 IR Inten    --      4.1884                60.9474                20.8086

                     28                     29                     30
                      A                      A                      A
 Frequencies --    658.0558               684.0124               691.6215
 Red. masses --      4.1849                 1.8339                 2.4395
 Frc consts  --      1.0677                 0.5055                 0.6875
 IR Inten    --     20.7183               191.9936                24.9130

                     31                     32                     33
                      A                      A                      A
 Frequencies --    713.9789               774.8231               776.2509
 Red. masses --      3.2937                 1.8279                 3.6638
 Frc consts  --      0.9893                 0.6465                 1.3007
 IR Inten    --     20.1514                15.2027                 4.1736

                     34                     35                     36
                      A                      A                      A
 Frequencies --    804.9690               812.0819               859.6281
 Red. masses --      5.8673                 5.3177                 1.4517
 Frc consts  --      2.2400                 2.0662                 0.6321
 IR Inten    --     27.3961                37.0563                 3.7218

                     37                     38                     39
                      A                      A                      A
 Frequencies --    885.2814               908.3617               954.7741
 Red. masses --      3.6977                 2.2170                 1.4163
 Frc consts  --      1.7075                 1.0778                 0.7607
 IR Inten    --      2.7473                 4.6427                40.8750

                     40                     41                     42
                      A                      A                      A
 Frequencies --    957.5416               963.0601               969.0608
 Red. masses --      2.2858                 1.2598                 2.0615
 Frc consts  --      1.2348                 0.6884                 1.1406
 IR Inten    --      6.2307                 0.4662                 7.9642

                     43                     44                     45
                      A                      A                      A
 Frequencies --    987.8321              1023.5265              1043.7888
 Red. masses --      2.8684                 2.4527                 1.1213
 Frc consts  --      1.6492                 1.5139                 0.7198
 IR Inten    --      2.8480                17.2361                31.5603

                     46                     47                     48
                      A                      A                      A
 Frequencies --   1088.6691              1130.9495              1141.9533
 Red. masses --      2.6785                 2.0895                 1.7604
 Frc consts  --      1.8704                 1.5746                 1.3526
 IR Inten    --      8.5886                 3.6579                 2.7277

                     49                     50                     51
                      A                      A                      A
 Frequencies --   1150.2105              1161.1250              1185.6099
 Red. masses --      1.8060                 1.3759                 2.3729
 Frc consts  --      1.4078                 1.0929                 1.9652
 IR Inten    --    127.9226                 9.9243                11.2648

                     52                     53                     54
                      A                      A                      A
 Frequencies --   1199.5960              1233.5365              1236.2765
 Red. masses --      1.2227                 1.7616                 2.0984
 Frc consts  --      1.0367                 1.5793                 1.8896
 IR Inten    --     14.3021                12.1789                 8.3668

                     55                     56                     57
                      A                      A                      A
 Frequencies --   1285.1387              1317.3122              1329.4748
 Red. masses --      2.0250                 2.2515                 1.7487
 Frc consts  --      1.9705                 2.3020                 1.8211
 IR Inten    --     69.5089                43.6876                38.2511

                     58                     59                     60
                      A                      A                      A
 Frequencies --   1343.1596              1360.1578              1366.9539
 Red. masses --      1.2645                 2.4496                 2.8307
 Frc consts  --      1.3441                 2.6701                 3.1164
 IR Inten    --      4.0703                 3.8484                19.7526

                     61                     62                     63
                      A                      A                      A
 Frequencies --   1377.1082              1389.6725              1409.0339
 Red. masses --      2.4084                 1.3898                 3.2553
 Frc consts  --      2.6910                 1.5814                 3.8079
 IR Inten    --      5.8056                 4.0481                92.1808

                     64                     65                     66
                      A                      A                      A
 Frequencies --   1460.0690              1470.0934              1475.0056
 Red. masses --      2.2864                 1.2142                 1.1793
 Frc consts  --      2.8717                 1.5461                 1.5116
 IR Inten    --    135.2642                10.9768                 6.2400

                     67                     68                     69
                      A                      A                      A
 Frequencies --   1502.5293              1510.3124              1513.0674
 Red. masses --      1.1160                 1.5316                 1.8437
 Frc consts  --      1.4845                 2.0584                 2.4868
 IR Inten    --     15.1479                26.2204               102.5362

                     70                     71                     72
                      A                      A                      A
 Frequencies --   1519.1709              1522.1431              1546.3648
 Red. masses --      1.2607                 2.1116                 1.1020
 Frc consts  --      1.7143                 2.8825                 1.5526
 IR Inten    --     85.4746                12.2442                29.1974

                     73                     74                     75
                      A                      A                      A
 Frequencies --   1628.4180              1647.4662              1681.0880
 Red. masses --      3.7571                 4.0686                 2.2445
 Frc consts  --      5.8700                 6.5063                 3.7373
 IR Inten    --     22.3995               174.6923               411.1625

                     76                     77                     78
                      A                      A                      A
 Frequencies --   1726.6247              1736.2425              1776.9917
 Red. masses --      3.1545                 4.3468                10.2586
 Frc consts  --      5.5409                 7.7203                19.0857
 IR Inten    --     96.5138                 2.4921               353.7832

                     79                     80                     81
                      A                      A                      A
 Frequencies --   3059.0371              3060.2160              3080.0460
 Red. masses --      1.0449                 1.0690                 1.0664
 Frc consts  --      5.7612                 5.8986                 5.9605
 IR Inten    --     39.2361                32.0408                14.8290

                     82                     83                     84
                      A                      A                      A
 Frequencies --   3141.4624              3155.7572              3161.3165
 Red. masses --      1.0904                 1.0851                 1.0670
 Frc consts  --      6.3400                 6.3671                 6.2828
 IR Inten    --     14.2598                 1.1708                10.4256

                     85                     86                     87
                      A                      A                      A
 Frequencies --   3165.2038              3177.9739              3183.6429
 Red. masses --      1.0995                 1.0938                 1.0871
 Frc consts  --      6.4898                 6.5085                 6.4920
 IR Inten    --      7.1597                 3.4967                 8.5631

                     88                     89                     90
                      A                      A                      A
 Frequencies --   3186.9629              3201.7684              3229.2364
 Red. masses --      1.1059                 1.0931                 1.0931
 Frc consts  --      6.6179                 6.6020                 6.7158
 IR Inten    --      4.5445                23.7945                 7.8453

                     91                     92                     93
                      A                      A                      A
 Frequencies --   3242.4518              3521.3906              3651.5848
 Red. masses --      1.1164                 1.0515                 1.0955
 Frc consts  --      6.9156                 7.6822                 8.6068
 IR Inten    --     13.5224                80.3728                42.8090

 - Thermochemistry -
 -------------------
 Temperature   298.150 Kelvin.  Pressure   1.00000 Atm.
 Atom     1 has atomic number  6 and mass  12.00000

 Molecular mass:   245.11643 amu.
 Principal axes and moments of inertia in atomic units:
                           1         2         3
     Eigenvalues --  2863.955794633.367316523.99006
           X            0.99979   0.02015  -0.00303
           Y           -0.02010   0.99968   0.01515
           Z            0.00333  -0.01509   0.99988
 This molecule is an asymmetric top.
 Rotational symmetry number  1.
 Warning -- assumption of classical behavior for rotation
           may cause significant error
 Rotational temperatures (Kelvin)      0.03024     0.01869     0.01328
 Rotational constants (GHZ):           0.63016     0.38951     0.27663
 Zero-point vibrational energy     710897.1 (Joules/Mol)
                                  169.90848 (Kcal/Mol)
 Warning -- explicit consideration of  26 degrees of freedom as
           vibrations may cause significant error
 Vibrational temperatures:     47.97    66.82   104.74   133.00   139.26
          (Kelvin)            172.07   215.02   221.10   302.38   320.88
                              360.47   451.98   468.17   498.42   514.91
                              563.63   580.79   610.16   623.82   646.13
                              673.37   708.99   727.95   797.42   825.91
                              891.12   914.86   946.80   984.14   995.09
                             1027.26  1114.80  1116.85  1158.17  1168.40
                             1236.81  1273.72  1306.93  1373.71  1377.69
                             1385.63  1394.26  1421.27  1472.63  1501.78
                             1566.35  1627.18  1643.02  1654.90  1670.60
                             1705.83  1725.95  1774.78  1778.73  1849.03
                             1895.32  1912.82  1932.51  1956.96  1966.74
                             1981.35  1999.43  2027.29  2100.71  2115.14
                             2122.20  2161.80  2173.00  2176.97  2185.75
                             2190.02  2224.87  2342.93  2370.34  2418.71
                             2484.23  2498.07  2556.69  4401.27  4402.97
                             4431.50  4519.86  4540.43  4548.43  4554.02
                             4572.40  4580.55  4585.33  4606.63  4646.15
                             4665.16  5066.50  5253.82

 Zero-point correction=                           0.270766 (Hartree/Particle)
 Thermal correction to Energy=                    0.286994
 Thermal correction to Enthalpy=                  0.287938
 Thermal correction to Gibbs Free Energy=         0.226891
 Sum of electronic and zero-point Energies=           -818.923008
 Sum of electronic and thermal Energies=              -818.906780
 Sum of electronic and thermal Enthalpies=            -818.905836
 Sum of electronic and thermal Free Energies=         -818.966883

                     E (Thermal)             CV                S
                      KCal/Mol        Cal/Mol-Kelvin    Cal/Mol-Kelvin
 Total                  180.091             62.929            128.485
 Electronic               0.000              0.000              0.000
 Translational            0.889              2.981             42.390
 Rotational               0.889              2.981             32.826
 Vibrational            178.314             56.968             53.269
 Vibration     1          0.594              1.983              5.620
 Vibration     2          0.595              1.979              4.963
 Vibration     3          0.599              1.967              4.076
 Vibration     4          0.602              1.955              3.608
 Vibration     5          0.603              1.951              3.518
 Vibration     6          0.609              1.933              3.107
 Vibration     7          0.618              1.903              2.679
 Vibration     8          0.619              1.899              2.626
 Vibration     9          0.642              1.825              2.042
 Vibration    10          0.649              1.806              1.934
 Vibration    11          0.663              1.762              1.727
 Vibration    12          0.702              1.647              1.340
 Vibration    13          0.710              1.625              1.283
 Vibration    14          0.724              1.583              1.182
 Vibration    15          0.733              1.559              1.131
 Vibration    16          0.759              1.488              0.994
 Vibration    17          0.769              1.462              0.949
 Vibration    18          0.786              1.418              0.878
 Vibration    19          0.794              1.397              0.847
 Vibration    20          0.808              1.363              0.799
 Vibration    21          0.825              1.321              0.743
 Vibration    22          0.848              1.266              0.676
 Vibration    23          0.861              1.237              0.643
 Vibration    24          0.910              1.130              0.535
 Vibration    25          0.930              1.087              0.497
 Vibration    26          0.979              0.991              0.418

                           ! Non-Optimized Parameters !
 Normal termination of Gaussian 16 at Fri Dec 11 20:12:51 2020.

 ----------------------------------------------------------------------
 # B3LYP/6-311++G(d,p) empiricaldispersion=gd3bj scf=xqc pop=npa geom=c
 heck
 ----------------------------------------------------------------------

 --------------------------------------
 CID_84158956_JID_8252_Energie_neutraal
 --------------------------------------
 Structure from the checkpoint file:  "JID_8252.chk"
 Charge =  0 Multiplicity = 1

 SCF Done:  E(RB3LYP) =  -819.424811457     A.U. after   16 cycles
 Normal termination of Gaussian 16 at Fri Dec 11 20:18:39 2020.

 ----------------------------------------------------------------------
 # B3LYP/6-311++G(d,p) empiricaldispersion=gd3bj scf=xqc pop=npa geom=c
 heck
 ----------------------------------------------------------------------

 ------------------------------------
 CID_84158956_JID_8252_Energie_kation
 ------------------------------------
 Structure from the checkpoint file:  "JID_8252.chk"
 Charge =  1 Multiplicity = 2

 SCF Done:  E(UB3LYP) =  -819.141679883     A.U. after   29 cycles
 Normal termination of Gaussian 16 at Fri Dec 11 20:32:48 2020.
 Gaussian 16:  ES64L-G16RevA.03 25-Dec-2016

 ----------------------------------------------------------------------
 # B3LYP/6-311++G(d,p) empiricaldispersion=gd3bj scf=xqc pop=npa geom=c
 heck
 ----------------------------------------------------------------------

 -----------------------------------
 CID_84158956_JID_8252_Energie_anion
 -----------------------------------
 Structure from the checkpoint file:  "JID_8252.chk"
 Charge = -1 Multiplicity = 2

                         Standard orientation:
 ---------------------------------------------------------------------
 Center     Atomic      Atomic             Coordinates (Angstroms)
 Number     Number       Type             X           Y           Z
 ---------------------------------------------------------------------
      1          6           0       -0.058871   -2.837026   -1.175359
      2          7           0       -0.040715   -1.729334   -0.217916
      3          6           0        1.028526   -1.676866    0.646469
      4          8           0        1.942422   -2.491085    0.620429
      5          6           0        1.020643   -0.477572    1.583165
      6          7           0        1.196107    0.753036    0.824982
      7          6           0        0.205613    1.241898    0.019070
      8          8           0        0.367539    2.277901   -0.638917
      9          6           0       -1.097665    0.506434    0.013737
     10          6           0       -2.292700    1.280761    0.025130
     11          6           0       -3.537029    0.628048   -0.021366
     12          6           0       -3.604480   -0.752499   -0.122095
     13          6           0       -2.445057   -1.522763   -0.173264
     14          6           0       -1.195043   -0.899594   -0.101864
     15          7           0       -2.239214    2.655418    0.131763
     16          6           0        2.550554    1.310772    0.692460
     17          6           0        3.371242    0.566179   -0.329152
     18          6           0        3.781817    1.113004   -1.472193
     19          1           0       -0.474855   -3.751179   -0.735785
     20          1           0        0.969409   -3.042303   -1.473094
     21          1           0       -0.654715   -2.545970   -2.041388
     22          1           0        0.089857   -0.431143    2.157712
     23          1           0        1.856487   -0.590534    2.273122
     24          1           0       -4.445293    1.223988    0.006723
     25          1           0       -4.573869   -1.240858   -0.165454
     26          1           0       -2.505856   -2.601592   -0.250509
     27          1           0       -1.387072    3.064935   -0.238863
     28          1           0       -3.086801    3.140989   -0.128008
     29          1           0        2.436140    2.356534    0.406486
     30          1           0        3.018247    1.265594    1.683146
     31          1           0        3.591896   -0.476143   -0.103493
     32          1           0        4.361247    0.550118   -2.199054
     33          1           0        3.546953    2.144543   -1.723857
 ---------------------------------------------------------------------

 SCF Done:  E(UB3LYP) =  -819.418184437     A.U. after   33 cycles
 SCF Done:  E(UB3LYP) =  -819.418184438     a.u. after    2 cycles

 The electronic state is 2-A.
 Alpha  occ. eigenvalues --  -18.98047 -18.94660 -14.23505 -14.21907 -14.18773
 Alpha  occ. eigenvalues --  -10.15686 -10.12693 -10.10192 -10.09677 -10.08745
 Alpha  occ. eigenvalues --  -10.08578 -10.07794 -10.06829 -10.06176 -10.03777
 Alpha  occ. eigenvalues --  -10.03459 -10.03304 -10.02977  -0.93334  -0.90446
 Alpha  occ. eigenvalues --   -0.83328  -0.81572  -0.79319  -0.70483  -0.68504
 Alpha  occ. eigenvalues --   -0.63622  -0.62761  -0.60412  -0.58537  -0.57016
 Alpha  occ. eigenvalues --   -0.51613  -0.48263  -0.46074  -0.44964  -0.44020
 Alpha  occ. eigenvalues --   -0.40500  -0.39604  -0.38084  -0.37986  -0.37062
 Alpha  occ. eigenvalues --   -0.35136  -0.34436  -0.33365  -0.33273  -0.32143
 Alpha  occ. eigenvalues --   -0.30685  -0.30589  -0.29806  -0.28300  -0.27971
 Alpha  occ. eigenvalues --   -0.27715  -0.27038  -0.25896  -0.25517  -0.24159
 Alpha  occ. eigenvalues --   -0.23441  -0.23109  -0.19821  -0.17016  -0.16436
 Alpha  occ. eigenvalues --   -0.16075  -0.12827  -0.12167  -0.10898  -0.08155
 Alpha  occ. eigenvalues --    0.05386
 Alpha virt. eigenvalues --    0.07647   0.08000   0.08380   0.08985   0.09399
 Alpha virt. eigenvalues --    0.09681   0.10408   0.10685   0.11028   0.11646
 Alpha virt. eigenvalues --    0.12036   0.12558   0.12694   0.13294   0.13778

  Beta  occ. eigenvalues --  -18.98021 -18.94452 -14.23529 -14.21835 -14.18763
  Beta  occ. eigenvalues --  -10.15653 -10.12492 -10.10188 -10.09678 -10.08708
  Beta  occ. eigenvalues --  -10.08533 -10.07515 -10.06797 -10.06151 -10.03639
  Beta  occ. eigenvalues --  -10.03544 -10.03035 -10.02909  -0.93270  -0.90076
  Beta  occ. eigenvalues --   -0.83189  -0.81393  -0.79225  -0.70204  -0.68422
  Beta  occ. eigenvalues --   -0.63509  -0.62344  -0.60158  -0.58464  -0.56865
  Beta  occ. eigenvalues --   -0.51217  -0.48093  -0.45952  -0.44845  -0.43853
  Beta  occ. eigenvalues --   -0.40396  -0.39464  -0.37915  -0.37828  -0.36962
  Beta  occ. eigenvalues --   -0.35035  -0.34339  -0.33262  -0.33162  -0.32010
  Beta  occ. eigenvalues --   -0.30614  -0.30477  -0.29585  -0.28214  -0.27666
  Beta  occ. eigenvalues --   -0.27607  -0.26683  -0.25577  -0.25290  -0.24021
  Beta  occ. eigenvalues --   -0.23179  -0.22629  -0.19308  -0.16742  -0.16266
  Beta  occ. eigenvalues --   -0.15520  -0.12559  -0.11675  -0.09824  -0.07716
  Beta virt. eigenvalues --    0.07689   0.08063   0.08430   0.08951   0.09504
  Beta virt. eigenvalues --    0.09799   0.10315   0.10601   0.10865   0.11129
  Beta virt. eigenvalues --    0.11797   0.12046   0.12548   0.12696   0.13345

 Mulliken charges and spin densities:
               1          2
     1  C    0.193739  -0.472615
     2  N    0.192325   0.045896
     3  C    0.035198   0.039197
     4  O   -0.341498   0.010749
     5  C   -0.427425  -0.068585
     6  N    0.249368   0.030700
     7  C   -0.678128  -0.020145
     8  O   -0.409291   0.067767
     9  C    0.883637   0.180486
    10  C   -0.527750   0.086216
    11  C   -0.269903  -0.040738
    12  C   -0.053205   0.019648
    13  C   -0.097901  -0.115677
    14  C   -0.089756   0.082323
    15  N   -0.274962   0.013560
    16  C   -0.389507  -0.213076
    17  C    0.339226   0.085993
    18  C   -0.524010   0.025745
    19  H   -0.084001   0.251858
    20  H    0.105326   0.057053
    21  H    0.090545   0.066258
    22  H    0.128541   0.088086
    23  H    0.089659   0.097490
    24  H    0.063069   0.019429
    25  H   -0.155994   0.265904
    26  H   -0.132153   0.254813
    27  H    0.264913   0.001650
    28  H    0.220838   0.005227
    29  H    0.209938  -0.021954
    30  H    0.063798   0.077910
    31  H    0.142414   0.038980
    32  H    0.083831   0.015565
    33  H    0.099115   0.024286
 Sum of Mulliken charges =  -1.00000   1.00000

 Dipole moment (field-independent basis, Debye):
    X=              1.4252    Y=              2.1038    Z=              0.3336  Tot=              2.5629
 Quadrupole moment (field-independent basis, Debye-Ang):
   XX=           -150.2535   YY=           -142.0358   ZZ=           -120.8634
   XY=             -3.3743   XZ=              2.3931   YZ=              2.8036

 Summary of Natural Population Analysis:

                                       Natural Population
                Natural  -----------------------------------------------
    Atom  No    Charge         Core      Valence    Rydberg      Total
 -----------------------------------------------------------------------
      C    1   -0.17784      0.99964     2.17002    0.00817     3.17784
      N    2   -0.24675      0.99961     2.73794    0.00920     3.74675
      C    3    0.34709      0.99964     1.63037    0.02289     2.65291
      O    4   -0.32875      0.99988     3.32308    0.00579     4.32875
      C    5   -0.12516      0.99958     2.11547    0.01010     3.12516
      N    6   -0.24196      0.99964     2.73161    0.01071     3.74196
      C    7    0.37494      0.99958     1.60355    0.02193     2.62506
      O    8   -0.33226      0.99988     3.32726    0.00513     4.33226
      C    9   -0.07817      0.99941     2.06804    0.01072     3.07817
      C   10    0.11717      0.99949     1.87258    0.01076     2.88283
      C   11   -0.13112      0.99953     2.12353    0.00807     3.13112
      C   12   -0.03890      0.99958     2.02840    0.01092     3.03890
      C   13   -0.16188      0.99953     2.15261    0.00975     3.16188
      C   14    0.13818      0.99945     1.85179    0.01058     2.86182
      N   15   -0.40172      0.99970     2.89317    0.00885     3.90172
      C   16   -0.10278      0.99960     2.09044    0.01274     3.10278
      C   17   -0.08962      0.99957     2.08156    0.00850     3.08962
      C   18   -0.18587      0.99957     2.17918    0.00711     3.18587
      H   19    0.09213      0.00000     0.40684    0.00102     0.40787
      H   20    0.10828      0.00000     0.39078    0.00094     0.39172
      H   21    0.10056      0.00000     0.39869    0.00075     0.39944
      H   22    0.11313      0.00000     0.38587    0.00100     0.38687
      H   23    0.10493      0.00000     0.39381    0.00126     0.39507
      H   24    0.08782      0.00000     0.41049    0.00169     0.41218
      H   25    0.09097      0.00000     0.40818    0.00085     0.40903
      H   26    0.09927      0.00000     0.39954    0.00119     0.40073
      H   27    0.20565      0.00000     0.29267    0.00168     0.29435
      H   28    0.17665      0.00000     0.32178    0.00156     0.32335
      H   29    0.11330      0.00000     0.38501    0.00169     0.38670
      H   30    0.09291      0.00000     0.40605    0.00103     0.40709
      H   31    0.09907      0.00000     0.39905    0.00188     0.40093
      H   32    0.08898      0.00000     0.40994    0.00109     0.41102
      H   33    0.09172      0.00000     0.40695    0.00133     0.40828
 =======================================================================
   * Total *    0.00000     17.99286    46.79626    0.21087    65.00000

 Normal termination of Gaussian 16 at Fri Dec 11 21:03:44 2020.
