 Gaussian 16, Revision A.03,

 -----------------------------------------------------------
 # opt freq B3LYP/6-31G(d) empiricaldispersion=gd3bj scf=xqc
 -----------------------------------------------------------

 ------------------------------
 CID_17221145_JID_8344_neutraal
 ------------------------------
 Symbolic Z-matrix:
 Charge =  0 Multiplicity = 1

 SCF Done:  E(RB3LYP) =  -1592.63347528     A.U. after   15 cycles
 SCF Done:  E(RB3LYP) =  -1592.63678920     A.U. after   15 cycles
 SCF Done:  E(RB3LYP) =  -1592.64156217     A.U. after   14 cycles
 SCF Done:  E(RB3LYP) =  -1592.64356514     A.U. after   13 cycles
 SCF Done:  E(RB3LYP) =  -1592.64488750     A.U. after   13 cycles
 SCF Done:  E(RB3LYP) =  -1592.64526077     A.U. after   12 cycles
 SCF Done:  E(RB3LYP) =  -1592.64551052     A.U. after   12 cycles
 SCF Done:  E(RB3LYP) =  -1592.64563814     A.U. after   12 cycles
 SCF Done:  E(RB3LYP) =  -1592.64568065     A.U. after   11 cycles
 SCF Done:  E(RB3LYP) =  -1592.64571696     A.U. after   11 cycles
 SCF Done:  E(RB3LYP) =  -1592.64574286     A.U. after   10 cycles
 SCF Done:  E(RB3LYP) =  -1592.64574403     A.U. after   10 cycles
 SCF Done:  E(RB3LYP) =  -1592.64574465     A.U. after    9 cycles
 SCF Done:  E(RB3LYP) =  -1592.64574485     A.U. after    8 cycles
 SCF Done:  E(RB3LYP) =  -1592.64574491     A.U. after    8 cycles
 Optimization completed.
    -- Stationary point found.
 Normal termination of Gaussian 16 at Fri Dec 11 20:10:29 2020.

 --------------------------------------------------------------------
 #N Geom=AllCheck Guess=TCheck SCRF=Check GenChk RB3LYP/6-31G(d) Freq
 --------------------------------------------------------------------

 Structure from the checkpoint file:  "JID_8344.chk"
 ------------------------------
 CID_17221145_JID_8344_neutraal
 ------------------------------
 Charge =  0 Multiplicity = 1

 SCF Done:  E(RB3LYP) =  -1592.64574491     A.U. after    1 cycles

  Exact polarizability: 148.156   2.056 144.405  -8.212   8.611 166.503
 Approx polarizability: 213.807  -7.704 258.888  -4.739  10.756 312.963

                      1                      2                      3
                      A                      A                      A
 Frequencies --     16.5838                33.1086                53.6370
 Red. masses --      7.6554                 6.1674                 5.6911
 Frc consts  --      0.0012                 0.0040                 0.0096
 IR Inten    --      0.7547                 1.2830                 1.3960

                      4                      5                      6
                      A                      A                      A
 Frequencies --     60.7913               121.6250               125.1527
 Red. masses --      8.2885                 7.7025                 8.0808
 Frc consts  --      0.0180                 0.0671                 0.0746
 IR Inten    --      2.2409                 0.4998                 0.8474

                      7                      8                      9
                      A                      A                      A
 Frequencies --    155.5441               163.2214               194.6947
 Red. masses --      9.5532                 5.5519                 9.4676
 Frc consts  --      0.1362                 0.0871                 0.2114
 IR Inten    --      1.8262                 0.8008                 0.9609

                     10                     11                     12
                      A                      A                      A
 Frequencies --    220.3595               255.6242               295.7666
 Red. masses --      5.0373                 7.8008                 9.0065
 Frc consts  --      0.1441                 0.3003                 0.4642
 IR Inten    --      6.9276                 0.4483                 0.1006

                     13                     14                     15
                      A                      A                      A
 Frequencies --    311.8562               326.9872               352.5741
 Red. masses --      9.3194                 8.2547                11.2731
 Frc consts  --      0.5340                 0.5200                 0.8256
 IR Inten    --      1.5822                 2.6434                12.2407

                     16                     17                     18
                      A                      A                      A
 Frequencies --    410.0631               419.4180               462.5159
 Red. masses --      6.5307                 4.2171                 4.3656
 Frc consts  --      0.6470                 0.4371                 0.5502
 IR Inten    --      3.4955                 2.0618                 9.6757

                     19                     20                     21
                      A                      A                      A
 Frequencies --    480.0579               502.8751               525.2635
 Red. masses --      2.3638                 3.5235                 7.7719
 Frc consts  --      0.3210                 0.5250                 1.2634
 IR Inten    --     38.0979                34.1316                47.4961

                     22                     23                     24
                      A                      A                      A
 Frequencies --    531.3816               567.3447               607.9142
 Red. masses --      3.5653                 1.4566                 4.4527
 Frc consts  --      0.5931                 0.2762                 0.9695
 IR Inten    --     15.1403                34.9819               191.5281

                     25                     26                     27
                      A                      A                      A
 Frequencies --    625.9869               644.3053               665.8706
 Red. masses --      5.1500                 5.3331                 5.8491
 Frc consts  --      1.1890                 1.3044                 1.5280
 IR Inten    --     11.1240                44.9273                34.9141

                     28                     29                     30
                      A                      A                      A
 Frequencies --    680.2675               727.6133               743.9869
 Red. masses --      4.4127                 5.0993                 1.9090
 Frc consts  --      1.2031                 1.5906                 0.6226
 IR Inten    --     81.3533                30.3063                 3.7948

                     31                     32                     33
                      A                      A                      A
 Frequencies --    751.1964               773.0945               782.8761
 Red. masses --      2.2466                 2.8698                 1.9386
 Frc consts  --      0.7469                 1.0106                 0.7000
 IR Inten    --      2.3393                44.4721                68.6549

                     34                     35                     36
                      A                      A                      A
 Frequencies --    835.7679               848.9349               874.2262
 Red. masses --      4.5863                 5.2902                 1.3583
 Frc consts  --      1.8875                 2.2463                 0.6116
 IR Inten    --     77.7152                49.5327                 5.2908

                     37                     38                     39
                      A                      A                      A
 Frequencies --    906.5976               917.7590               919.8096
 Red. masses --      4.9585                 2.8649                 1.6532
 Frc consts  --      2.4012                 1.4217                 0.8241
 IR Inten    --     66.3669                13.2340                 2.3160

                     40                     41                     42
                      A                      A                      A
 Frequencies --    973.9980               994.9872              1011.9353
 Red. masses --      1.3867                 1.2812                 6.8702
 Frc consts  --      0.7751                 0.7473                 4.1450
 IR Inten    --      0.1032                 0.0589                 2.6189

                     43                     44                     45
                      A                      A                      A
 Frequencies --   1062.4340              1079.2135              1128.5607
 Red. masses --      6.8075                 2.1505                 1.4386
 Frc consts  --      4.5274                 1.4757                 1.0796
 IR Inten    --     78.3763                 5.1621                41.5313

                     46                     47                     48
                      A                      A                      A
 Frequencies --   1136.0482              1139.9746              1186.1947
 Red. masses --      1.5021                 5.2348                 1.1334
 Frc consts  --      1.1422                 4.0081                 0.9396
 IR Inten    --      2.0255               235.3540                 5.4386

                     49                     50                     51
                      A                      A                      A
 Frequencies --   1202.8096              1227.8718              1269.7645
 Red. masses --      2.1988                 2.0223                 1.9330
 Frc consts  --      1.8743                 1.7964                 1.8362
 IR Inten    --     37.2379               217.4833                41.8490

                     52                     53                     54
                      A                      A                      A
 Frequencies --   1334.9232              1338.6430              1355.6904
 Red. masses --      3.6134                 6.0940                 2.7350
 Frc consts  --      3.7938                 6.4340                 2.9616
 IR Inten    --     11.3269                80.6164                49.9490

                     55                     56                     57
                      A                      A                      A
 Frequencies --   1386.2358              1402.1138              1445.6464
 Red. masses --      2.9247                 2.6048                 1.6181
 Frc consts  --      3.3114                 3.0171                 1.9925
 IR Inten    --     41.7554                11.6541                54.1077

                     58                     59                     60
                      A                      A                      A
 Frequencies --   1476.7083              1498.1139              1530.5276
 Red. masses --      6.0729                 2.3326                 2.1964
 Frc consts  --      7.8026                 3.0844                 3.0314
 IR Inten    --    130.3324               258.5892                35.8945

                     61                     62                     63
                      A                      A                      A
 Frequencies --   1564.1986              1639.5154              1655.1819
 Red. masses --      7.3989                 5.9019                 5.4800
 Frc consts  --     10.6659                 9.3470                 8.8455
 IR Inten    --     21.6599                22.6506               149.9921

                     64                     65                     66
                      A                      A                      A
 Frequencies --   1806.6683              3182.1276              3196.3085
 Red. masses --      9.6963                 1.0894                 1.0879
 Frc consts  --     18.6472                 6.4996                 6.5482
 IR Inten    --    325.2737                17.3505                 4.8979

                     67                     68                     69
                      A                      A                      A
 Frequencies --   3210.5205              3226.0212              3262.6933
 Red. masses --      1.0939                 1.0970                 1.0882
 Frc consts  --      6.6434                 6.7265                 6.8251
 IR Inten    --     14.0947                12.8973                 2.3015

                     70                     71                     72
                      A                      A                      A
 Frequencies --   3277.6371              3592.4087              3688.6626
 Red. masses --      1.1006                 1.0752                 1.0640
 Frc consts  --      6.9664                 8.1758                 8.5296
 IR Inten    --      1.9020                56.9613                93.6385

 - Thermochemistry -
 -------------------
 Temperature   298.150 Kelvin.  Pressure   1.00000 Atm.
 Atom     1 has atomic number  6 and mass  12.00000

 Molecular mass:   283.99255 amu.
 Principal axes and moments of inertia in atomic units:
                           1         2         3
     Eigenvalues --  3918.409415792.988986205.02081
           X            0.99923   0.03580  -0.01623
           Y           -0.03455   0.99686   0.07122
           Z            0.01872  -0.07061   0.99733
 This molecule is an asymmetric top.
 Rotational symmetry number  1.
 Warning -- assumption of classical behavior for rotation
           may cause significant error
 Rotational temperatures (Kelvin)      0.02210     0.01495     0.01396
 Rotational constants (GHZ):           0.46058     0.31154     0.29085
 Zero-point vibrational energy     468798.5 (Joules/Mol)
                                  112.04553 (Kcal/Mol)
 Warning -- explicit consideration of  24 degrees of freedom as
           vibrations may cause significant error
 Vibrational temperatures:     23.86    47.64    77.17    87.47   174.99
          (Kelvin)            180.07   223.79   234.84   280.12   317.05
                              367.79   425.54   448.69   470.46   507.28
                              589.99   603.45   665.46   690.70   723.53
                              755.74   764.54   816.28   874.65   900.66
                              927.01   958.04   978.75  1046.87  1070.43
                             1080.80  1112.31  1126.38  1202.48  1221.43
                             1257.82  1304.39  1320.45  1323.40  1401.37
                             1431.56  1455.95  1528.61  1552.75  1623.75
                             1634.52  1640.17  1706.67  1730.57  1766.63
                             1826.91  1920.66  1926.01  1950.54  1994.48
                             2017.33  2079.96  2124.65  2155.45  2202.09
                             2250.53  2358.90  2381.44  2599.39  4578.37
                             4598.78  4619.22  4641.52  4694.29  4715.79
                             5168.67  5307.16

 Zero-point correction=                           0.178556 (Hartree/Particle)
 Thermal correction to Energy=                    0.194355
 Thermal correction to Enthalpy=                  0.195299
 Thermal correction to Gibbs Free Energy=         0.133178
 Sum of electronic and zero-point Energies=          -1592.467189
 Sum of electronic and thermal Energies=             -1592.451390
 Sum of electronic and thermal Enthalpies=           -1592.450446
 Sum of electronic and thermal Free Energies=        -1592.512567

                     E (Thermal)             CV                S
                      KCal/Mol        Cal/Mol-Kelvin    Cal/Mol-Kelvin
 Total                  121.960             59.533            130.745
 Electronic               0.000              0.000              0.000
 Translational            0.889              2.981             42.829
 Rotational               0.889              2.981             33.310
 Vibrational            120.182             53.571             54.606
 Vibration     1          0.593              1.986              7.006
 Vibration     2          0.594              1.983              5.634
 Vibration     3          0.596              1.976              4.679
 Vibration     4          0.597              1.973              4.431
 Vibration     5          0.609              1.931              3.074
 Vibration     6          0.610              1.928              3.019
 Vibration     7          0.620              1.896              2.603
 Vibration     8          0.623              1.888              2.512
 Vibration     9          0.635              1.847              2.183
 Vibration    10          0.647              1.810              1.956
 Vibration    11          0.666              1.753              1.691
 Vibration    12          0.690              1.682              1.441
 Vibration    13          0.700              1.651              1.352
 Vibration    14          0.711              1.622              1.275
 Vibration    15          0.729              1.570              1.155
 Vibration    16          0.774              1.448              0.926
 Vibration    17          0.782              1.428              0.894
 Vibration    18          0.820              1.333              0.759
 Vibration    19          0.836              1.294              0.710
 Vibration    20          0.858              1.244              0.651
 Vibration    21          0.880              1.194              0.598
 Vibration    22          0.886              1.181              0.584
 Vibration    23          0.923              1.102              0.509
 Vibration    24          0.967              1.015              0.436

 Optimization completed.
    -- Stationary point found.
 Normal termination of Gaussian 16 at Fri Dec 11 20:20:46 2020.

 ----------------------------------------------------------------------
 # B3LYP/6-311++G(d,p) empiricaldispersion=gd3bj scf=xqc pop=npa geom=c
 heck
 ----------------------------------------------------------------------

 --------------------------------------
 CID_17221145_JID_8344_Energie_neutraal
 --------------------------------------
 Structure from the checkpoint file:  "JID_8344.chk"
 Charge =  0 Multiplicity = 1

 SCF Done:  E(RB3LYP) =  -1592.92910229     A.U. after   17 cycles
 Normal termination of Gaussian 16 at Fri Dec 11 20:25:06 2020.

 ----------------------------------------------------------------------
 # B3LYP/6-311++G(d,p) empiricaldispersion=gd3bj scf=xqc pop=npa geom=c
 heck
 ----------------------------------------------------------------------

 ------------------------------------
 CID_17221145_JID_8344_Energie_kation
 ------------------------------------
 Structure from the checkpoint file:  "JID_8344.chk"
 Charge =  1 Multiplicity = 2

 SCF Done:  E(UB3LYP) =  -1592.60882925     A.U. after   33 cycles
 SCF Done:  E(UB3LYP) =  -1592.60969991     a.u. after    7 cycles
 Normal termination of Gaussian 16 at Fri Dec 11 21:38:14 2020.
 Gaussian 16:  ES64L-G16RevA.03 25-Dec-2016

 ----------------------------------------------------------------------
 # B3LYP/6-311++G(d,p) empiricaldispersion=gd3bj scf=xqc pop=npa geom=c
 heck
 ----------------------------------------------------------------------

 -----------------------------------
 CID_17221145_JID_8344_Energie_anion
 -----------------------------------
 Structure from the checkpoint file:  "JID_8344.chk"
 Charge = -1 Multiplicity = 2

                         Standard orientation:
 ---------------------------------------------------------------------
 Center     Atomic      Atomic             Coordinates (Angstroms)
 Number     Number       Type             X           Y           Z
 ---------------------------------------------------------------------
      1          6           0       -3.642951   -1.353150    0.817209
      2          6           0       -3.537395   -1.826478   -0.493974
      3          6           0       -2.631615   -1.196277   -1.340968
      4          7           0       -1.860977   -0.166263   -0.970981
      5          6           0       -1.978532    0.277528    0.279567
      6          6           0       -2.855271   -0.284251    1.221752
      7          7           0       -1.178648    1.369331    0.657098
      8         16           0        0.159493    1.889604   -0.243787
      9          8           0       -0.289689    2.446528   -1.511631
     10          8           0        0.930796    2.687934    0.705445
     11          6           0        1.067881    0.394574   -0.641310
     12          6           0        1.636150   -0.508618    0.240484
     13         16           0        2.491639   -1.752425   -0.630062
     14          6           0        2.067895   -1.048949   -2.145574
     15          6           0        1.311509    0.084141   -2.005713
     16          6           0        1.667920   -0.635941    1.703400
     17          8           0        2.356104   -1.449471    2.287443
     18          8           0        0.845424    0.216142    2.364295
     19          1           0       -4.333724   -1.813032    1.517931
     20          1           0       -4.136094   -2.659736   -0.845409
     21          1           0       -2.506379   -1.529466   -2.368994
     22          1           0       -2.915926    0.115316    2.229306
     23          1           0       -0.950785    1.423198    1.644074
     24          1           0        2.395169   -1.512226   -3.066829
     25          1           0        0.919725    0.682869   -2.816469
     26          1           0        1.012647    0.052212    3.311512
 ---------------------------------------------------------------------

 SCF Done:  E(UB3LYP) =  -1592.96707744     A.U. after   25 cycles

 The electronic state is 2-A.
 Alpha  occ. eigenvalues --  -88.93817 -88.73098 -19.03537 -18.98850 -18.98716
 Alpha  occ. eigenvalues --  -18.95680 -14.23620 -14.20224 -10.15227 -10.14938
 Alpha  occ. eigenvalues --  -10.11108 -10.09774 -10.08806 -10.08252 -10.05992
 Alpha  occ. eigenvalues --  -10.05756 -10.05602 -10.04658  -7.99863  -7.81757
 Alpha  occ. eigenvalues --   -5.96213  -5.96106  -5.95929  -5.78056  -5.77682
 Alpha  occ. eigenvalues --   -5.77388  -0.99514  -0.97157  -0.88420  -0.87545
 Alpha  occ. eigenvalues --   -0.86963  -0.80239  -0.74919  -0.71199  -0.66074
 Alpha  occ. eigenvalues --   -0.62344  -0.61156  -0.55937  -0.54414  -0.52316
 Alpha  occ. eigenvalues --   -0.50124  -0.45378  -0.43829  -0.42602  -0.41527
 Alpha  occ. eigenvalues --   -0.40106  -0.39002  -0.36498  -0.35492  -0.34760
 Alpha  occ. eigenvalues --   -0.32894  -0.32644  -0.31915  -0.31417  -0.31239
 Alpha  occ. eigenvalues --   -0.30017  -0.28709  -0.26482  -0.25701  -0.25011
 Alpha  occ. eigenvalues --   -0.23223  -0.22711  -0.22105  -0.19798  -0.19718
 Alpha  occ. eigenvalues --   -0.19315  -0.18388  -0.17915  -0.15959  -0.14381
 Alpha  occ. eigenvalues --   -0.13698  -0.12538  -0.11519   0.02122
 Alpha virt. eigenvalues --    0.06225   0.06599   0.08068   0.08220   0.08970
 Alpha virt. eigenvalues --    0.09636   0.10783   0.11600   0.12401   0.13460
 Alpha virt. eigenvalues --    0.13815   0.14087   0.14419   0.14585   0.15251

  Beta  occ. eigenvalues --  -88.93810 -88.73013 -19.03463 -18.98821 -18.98682
  Beta  occ. eigenvalues --  -18.95373 -14.23610 -14.20163 -10.15205 -10.14699
  Beta  occ. eigenvalues --  -10.11088 -10.09713 -10.08814 -10.08258 -10.05730
  Beta  occ. eigenvalues --  -10.05481 -10.05327 -10.04781  -7.99856  -7.81681
  Beta  occ. eigenvalues --   -5.96184  -5.96097  -5.95930  -5.78016  -5.77644
  Beta  occ. eigenvalues --   -5.77111  -0.99422  -0.96860  -0.88348  -0.87102
  Beta  occ. eigenvalues --   -0.86866  -0.80175  -0.74534  -0.71114  -0.66006
  Beta  occ. eigenvalues --   -0.61813  -0.60602  -0.55760  -0.54387  -0.51886
  Beta  occ. eigenvalues --   -0.49867  -0.45262  -0.43667  -0.42341  -0.41197
  Beta  occ. eigenvalues --   -0.40074  -0.38929  -0.36384  -0.35391  -0.34527
  Beta  occ. eigenvalues --   -0.32804  -0.32356  -0.31418  -0.31360  -0.30422
  Beta  occ. eigenvalues --   -0.29792  -0.28669  -0.26207  -0.25472  -0.24150
  Beta  occ. eigenvalues --   -0.23048  -0.22405  -0.21858  -0.19634  -0.19053
  Beta  occ. eigenvalues --   -0.18976  -0.17852  -0.17583  -0.15810  -0.14061
  Beta  occ. eigenvalues --   -0.13507  -0.11299  -0.09742
  Beta virt. eigenvalues --    0.06420   0.06567   0.07963   0.08089   0.08803
  Beta virt. eigenvalues --    0.08997   0.09621   0.10774   0.11603   0.12388
  Beta virt. eigenvalues --    0.13484   0.13825   0.14088   0.14617   0.14971

 Mulliken charges and spin densities:
               1          2
     1  C   -0.690183   0.039994
     2  C    0.032741   0.000042
     3  C   -0.266812   0.012052
     4  N    0.077907   0.030583
     5  C   -0.961029   0.019841
     6  C    0.795429  -0.016939
     7  N   -0.163601   0.014599
     8  S    0.885505   0.058319
     9  O   -0.222200   0.007555
    10  O   -0.185807  -0.013168
    11  C   -0.874197   0.141378
    12  C   -0.010516   0.230782
    13  S   -0.381877   0.139723
    14  C   -0.326883   0.189324
    15  C    0.212014  -0.099126
    16  C    0.219795   0.127579
    17  O   -0.390937   0.106905
    18  O   -0.317391   0.011126
    19  H    0.142535  -0.004433
    20  H    0.146075   0.002281
    21  H    0.152134  -0.001008
    22  H    0.164852   0.006507
    23  H    0.257671   0.000627
    24  H    0.207888  -0.013210
    25  H    0.180987   0.010306
    26  H    0.315899  -0.001637
 Sum of Mulliken charges =  -1.00000   1.00000

 Dipole moment (field-independent basis, Debye):
    X=             -6.4176    Y=             -2.1683    Z=              0.7584  Tot=              6.8163
 Quadrupole moment (field-independent basis, Debye-Ang):
   XX=           -144.1937   YY=           -148.5597   ZZ=           -124.9686
   XY=              9.4918   XZ=            -12.4367   YZ=             10.7402

 Summary of Natural Population Analysis:

                                       Natural Population
                Natural  -----------------------------------------------
    Atom  No    Charge         Core      Valence    Rydberg      Total
 -----------------------------------------------------------------------
      C    1   -0.07178      0.99958     2.06340    0.00880     3.07178
      C    2   -0.14723      0.99957     2.13898    0.00868     3.14723
      C    3    0.04129      0.99960     1.94565    0.01346     2.95871
      N    4   -0.23275      0.99967     2.72019    0.01290     3.73275
      C    5    0.20539      0.99954     1.78082    0.01426     2.79461
      C    6   -0.13728      0.99952     2.12963    0.00814     3.13728
      N    7   -0.42244      0.99967     2.90797    0.01479     3.92244
      S    8    1.12722      4.99918     1.77286    0.10074     6.87278
      O    9   -0.46000      0.99990     3.45248    0.00762     4.46000
      O   10   -0.46200      0.99990     3.45668    0.00542     4.46200
      C   11   -0.10080      0.99926     2.08446    0.01709     3.10080
      C   12   -0.10222      0.99938     2.09025    0.01259     3.10222
      S   13    0.25708      4.99943     2.71997    0.02352     7.74292
      C   14   -0.14859      0.99956     2.13750    0.01153     3.14859
      C   15   -0.14960      0.99949     2.13979    0.01032     3.14960
      C   16    0.41417      0.99961     1.56257    0.02364     2.58583
      O   17   -0.29622      0.99987     3.28961    0.00674     4.29622
      O   18   -0.35620      0.99987     3.34757    0.00876     4.35620
      H   19    0.09640      0.00000     0.40266    0.00094     0.40360
      H   20    0.09900      0.00000     0.39995    0.00105     0.40100
      H   21    0.08888      0.00000     0.40992    0.00119     0.41112
      H   22    0.10134      0.00000     0.39761    0.00105     0.39866
      H   23    0.21024      0.00000     0.28795    0.00181     0.28976
      H   24    0.09773      0.00000     0.40127    0.00100     0.40227
      H   25    0.11416      0.00000     0.38472    0.00112     0.38584
      H   26    0.23422      0.00000     0.26311    0.00268     0.26578
 =======================================================================
   * Total *   -0.00000     25.99261    46.68757    0.31982    73.00000

 Normal termination of Gaussian 16 at Fri Dec 11 21:47:06 2020.
