 Gaussian 16, Revision A.03,

 -----------------------------------------------------------
 # opt freq B3LYP/6-31G(d) empiricaldispersion=gd3bj scf=xqc
 -----------------------------------------------------------

 --------------------------------
 CID_102931734_JID_10121_neutraal
 --------------------------------
 Symbolic Z-matrix:
 Charge =  0 Multiplicity = 1

 SCF Done:  E(RB3LYP) =  -1350.70046853     A.U. after   15 cycles
 SCF Done:  E(RB3LYP) =  -1350.70163823     A.U. after   14 cycles
 SCF Done:  E(RB3LYP) =  -1350.70715387     A.U. after   12 cycles
 SCF Done:  E(RB3LYP) =  -1350.71200847     A.U. after   13 cycles
 SCF Done:  E(RB3LYP) =  -1350.71452602     A.U. after   13 cycles
 SCF Done:  E(RB3LYP) =  -1350.71509093     A.U. after   12 cycles
 SCF Done:  E(RB3LYP) =  -1350.71551575     A.U. after   12 cycles
 SCF Done:  E(RB3LYP) =  -1350.71574775     A.U. after   12 cycles
 SCF Done:  E(RB3LYP) =  -1350.71580518     A.U. after   12 cycles
 SCF Done:  E(RB3LYP) =  -1350.71584766     A.U. after   10 cycles
 SCF Done:  E(RB3LYP) =  -1350.71585452     A.U. after   10 cycles
 SCF Done:  E(RB3LYP) =  -1350.71585830     A.U. after    9 cycles
 SCF Done:  E(RB3LYP) =  -1350.71585919     A.U. after    8 cycles
 SCF Done:  E(RB3LYP) =  -1350.71585936     A.U. after    7 cycles
 SCF Done:  E(RB3LYP) =  -1350.71585945     A.U. after    7 cycles
 SCF Done:  E(RB3LYP) =  -1350.71585948     A.U. after    6 cycles
 Optimization completed.
    -- Stationary point found.
 Normal termination of Gaussian 16 at Sun Dec 13 12:44:54 2020.

 --------------------------------------------------------------------
 #N Geom=AllCheck Guess=TCheck SCRF=Check GenChk RB3LYP/6-31G(d) Freq
 --------------------------------------------------------------------

 Structure from the checkpoint file:  "JID_10121.chk"
 --------------------------------
 CID_102931734_JID_10121_neutraal
 --------------------------------
 Charge =  0 Multiplicity = 1

 SCF Done:  E(RB3LYP) =  -1350.71585948     A.U. after    1 cycles

  Exact polarizability: 190.547  18.743 186.812  26.614   2.614 136.189
 Approx polarizability: 260.889  33.002 321.572  56.418   8.305 214.658

                      1                      2                      3
                      A                      A                      A
 Frequencies --     18.2144                28.6643                33.3177
 Red. masses --      5.1039                 5.0181                 4.2482
 Frc consts  --      0.0010                 0.0024                 0.0028
 IR Inten    --      0.2788                 0.6494                 0.2411

                      4                      5                      6
                      A                      A                      A
 Frequencies --     60.6555                84.4180                90.5630
 Red. masses --      8.3376                 2.6506                 3.5989
 Frc consts  --      0.0181                 0.0111                 0.0174
 IR Inten    --      1.3349                 0.7429                 2.7416

                      7                      8                      9
                      A                      A                      A
 Frequencies --    104.2065               122.6659               156.9425
 Red. masses --      4.9744                 4.6974                 6.7329
 Frc consts  --      0.0318                 0.0416                 0.0977
 IR Inten    --      1.1583                 4.9586                 0.9749

                     10                     11                     12
                      A                      A                      A
 Frequencies --    172.7473               201.8493               219.5201
 Red. masses --      5.2153                 5.6477                 7.0254
 Frc consts  --      0.0917                 0.1356                 0.1995
 IR Inten    --      2.2675                 2.5844                 0.5464

                     13                     14                     15
                      A                      A                      A
 Frequencies --    254.2523               269.7366               279.4299
 Red. masses --      7.0383                 5.3803                 3.5075
 Frc consts  --      0.2681                 0.2306                 0.1614
 IR Inten    --      3.8551                 1.1470                 0.4420

                     16                     17                     18
                      A                      A                      A
 Frequencies --    321.0970               333.3570               359.4861
 Red. masses --      4.5559                 6.6216                 4.8247
 Frc consts  --      0.2768                 0.4335                 0.3674
 IR Inten    --      1.4097                 6.1644                 1.5799

                     19                     20                     21
                      A                      A                      A
 Frequencies --    373.0838               385.2092               400.2280
 Red. masses --      2.4030                 1.2395                 2.2289
 Frc consts  --      0.1971                 0.1084                 0.2104
 IR Inten    --      5.4227                11.8380                 6.9872

                     22                     23                     24
                      A                      A                      A
 Frequencies --    418.1235               436.4681               443.0685
 Red. masses --      3.4575                 3.5517                 3.3464
 Frc consts  --      0.3561                 0.3986                 0.3871
 IR Inten    --      2.0217                11.9947                 6.8979

                     25                     26                     27
                      A                      A                      A
 Frequencies --    467.9498               477.2885               506.1328
 Red. masses --      1.5542                 1.7873                 5.2321
 Frc consts  --      0.2005                 0.2399                 0.7897
 IR Inten    --    297.3176               189.6931                67.7221

                     28                     29                     30
                      A                      A                      A
 Frequencies --    513.7012               557.4097               580.1930
 Red. masses --      1.8093                 5.7664                 7.0677
 Frc consts  --      0.2813                 1.0556                 1.4018
 IR Inten    --     50.4997                29.1313                53.3209

                     31                     32                     33
                      A                      A                      A
 Frequencies --    609.5579               615.4430               630.0329
 Red. masses --      1.7934                 3.5730                 2.8011
 Frc consts  --      0.3926                 0.7974                 0.6551
 IR Inten    --     16.8379                33.9785                31.7589

                     34                     35                     36
                      A                      A                      A
 Frequencies --    674.1725               702.9646               711.6663
 Red. masses --      2.2997                 4.7392                 3.7290
 Frc consts  --      0.6158                 1.3798                 1.1127
 IR Inten    --      7.6853                 1.2157                34.9761

                     37                     38                     39
                      A                      A                      A
 Frequencies --    740.0830               759.6501               774.1811
 Red. masses --      2.0374                 4.2112                 1.7862
 Frc consts  --      0.6575                 1.4318                 0.6308
 IR Inten    --     29.1880                28.0037               113.0861

                     40                     41                     42
                      A                      A                      A
 Frequencies --    778.4929               807.8699               845.7838
 Red. masses --      5.0966                 2.1930                 1.6055
 Frc consts  --      1.8199                 0.8433                 0.6767
 IR Inten    --     46.2883               214.5118                20.4786

                     43                     44                     45
                      A                      A                      A
 Frequencies --    873.8221               902.3662               904.4802
 Red. masses --      2.1952                 1.5047                 1.3962
 Frc consts  --      0.9876                 0.7219                 0.6730
 IR Inten    --      1.5103                25.5643                15.3841

                     46                     47                     48
                      A                      A                      A
 Frequencies --    926.9493               948.2808               951.8685
 Red. masses --      5.2659                 2.4252                 2.5072
 Frc consts  --      2.6659                 1.2849                 1.3384
 IR Inten    --     10.9911                36.0829                 6.5239

                     49                     50                     51
                      A                      A                      A
 Frequencies --    965.7569               970.4098               976.7867
 Red. masses --      1.7436                 1.3157                 2.4172
 Frc consts  --      0.9581                 0.7300                 1.3588
 IR Inten    --     14.3239                 1.3303                 6.3327

                     52                     53                     54
                      A                      A                      A
 Frequencies --   1050.3128              1057.8333              1069.2798
 Red. masses --      2.7256                 2.9605                 1.3875
 Frc consts  --      1.7715                 1.9519                 0.9347
 IR Inten    --     17.0221                18.1947                19.7554

                     55                     56                     57
                      A                      A                      A
 Frequencies --   1096.9858              1100.1218              1136.9340
 Red. masses --      2.3557                 1.9128                 5.3989
 Frc consts  --      1.6702                 1.3640                 4.1117
 IR Inten    --     75.9587                11.3155               133.5123

                     58                     59                     60
                      A                      A                      A
 Frequencies --   1152.3334              1172.9906              1195.8923
 Red. masses --      3.3930                 2.4560                 1.3087
 Frc consts  --      2.6546                 1.9910                 1.1028
 IR Inten    --    258.5288                10.0386                40.6591

                     61                     62                     63
                      A                      A                      A
 Frequencies --   1212.1717              1220.4277              1227.7768
 Red. masses --      1.7673                 1.4719                 1.8980
 Frc consts  --      1.5300                 1.2917                 1.6858
 IR Inten    --      2.6432                 8.3662               268.0577

                     64                     65                     66
                      A                      A                      A
 Frequencies --   1257.4309              1272.7335              1287.8601
 Red. masses --      1.3059                 1.2918                 1.3315
 Frc consts  --      1.2165                 1.2329                 1.3012
 IR Inten    --      7.2231                 8.7161                17.0975

                     67                     68                     69
                      A                      A                      A
 Frequencies --   1296.6189              1307.4682              1327.3637
 Red. masses --      1.5247                 1.5838                 2.2830
 Frc consts  --      1.5103                 1.5952                 2.3699
 IR Inten    --      7.4359                27.2826                51.9327

                     70                     71                     72
                      A                      A                      A
 Frequencies --   1340.1548              1358.4359              1364.4635
 Red. masses --      3.7051                 2.9487                 1.2964
 Frc consts  --      3.9206                 3.2059                 1.4220
 IR Inten    --    134.8485                76.9653                38.2011

                     73                     74                     75
                      A                      A                      A
 Frequencies --   1377.3072              1403.8070              1434.4644
 Red. masses --      3.6764                 3.0066                 1.6976
 Frc consts  --      4.1090                 3.4909                 2.0581
 IR Inten    --     34.6033               157.3358                88.7464

                     76                     77                     78
                      A                      A                      A
 Frequencies --   1482.2234              1490.8034              1496.2783
 Red. masses --      2.8932                 1.1022                 1.2827
 Frc consts  --      3.7450                 1.4433                 1.6919
 IR Inten    --     14.7795                 9.7788                76.4155

                     79                     80                     81
                      A                      A                      A
 Frequencies --   1501.8598              1524.2148              1530.2419
 Red. masses --      1.0926                 1.0991                 1.1385
 Frc consts  --      1.4521                 1.5045                 1.5707
 IR Inten    --      2.8794                36.5729                 0.7441

                     82                     83                     84
                      A                      A                      A
 Frequencies --   1547.6825              1612.3008              1661.9980
 Red. masses --      3.4542                 5.8625                 3.8284
 Frc consts  --      4.8748                 8.9789                 6.2305
 IR Inten    --      8.5404                14.0356               181.7559

                     85                     86                     87
                      A                      A                      A
 Frequencies --   1694.9311              1793.1828              3025.3499
 Red. masses --      1.3135                 9.0904                 1.0689
 Frc consts  --      2.2233                17.2220                 5.7644
 IR Inten    --    251.4865               344.1435                25.9508

                     88                     89                     90
                      A                      A                      A
 Frequencies --   3062.2114              3072.5010              3086.1276
 Red. masses --      1.0613                 1.0625                 1.0600
 Frc consts  --      5.8633                 5.9095                 5.9481
 IR Inten    --     31.7406                23.8983                48.3706

                     91                     92                     93
                      A                      A                      A
 Frequencies --   3121.9665              3133.6593              3135.3411
 Red. masses --      1.1055                 1.1057                 1.0951
 Frc consts  --      6.3487                 6.3973                 6.3428
 IR Inten    --      6.3674                12.6494                 3.6775

                     94                     95                     96
                      A                      A                      A
 Frequencies --   3146.1589              3193.4468              3221.0617
 Red. masses --      1.1070                 1.0900                 1.0900
 Frc consts  --      6.4560                 6.5495                 6.6632
 IR Inten    --     49.0609                13.6599                 6.2098

                     97                     98                     99
                      A                      A                      A
 Frequencies --   3238.0742              3438.2523              3580.3736
 Red. masses --      1.0921                 1.0743                 1.0470
 Frc consts  --      6.7469                 7.4823                 7.9078
 IR Inten    --      2.3868               132.0264                62.9690

                    100                    101                    102
                      A                      A                      A
 Frequencies --   3674.9562              3685.0696              3694.4779
 Red. masses --      1.0650                 1.1011                 1.0641
 Frc consts  --      8.4739                 8.8097                 8.5574
 IR Inten    --     45.9408                21.4844                91.8231

 - Thermochemistry -
 -------------------
 Temperature   298.150 Kelvin.  Pressure   1.00000 Atm.
 Atom     1 has atomic number  6 and mass  12.00000

 Molecular mass:   300.07799 amu.
 Principal axes and moments of inertia in atomic units:
                           1         2         3
     Eigenvalues --  4133.128858878.654429597.39235
           X            0.99991   0.01143  -0.00639
           Y           -0.01130   0.99973   0.02043
           Z            0.00662  -0.02035   0.99977
 This molecule is an asymmetric top.
 Rotational symmetry number  1.
 Warning -- assumption of classical behavior for rotation
           may cause significant error
 Rotational temperatures (Kelvin)      0.02096     0.00976     0.00902
 Rotational constants (GHZ):           0.43665     0.20327     0.18804
 Zero-point vibrational energy     749499.4 (Joules/Mol)
                                  179.13465 (Kcal/Mol)
 Warning -- explicit consideration of  32 degrees of freedom as
           vibrations may cause significant error
 Vibrational temperatures:     26.21    41.24    47.94    87.27   121.46
          (Kelvin)            130.30   149.93   176.49   225.81   248.54
                              290.42   315.84   365.81   388.09   402.04
                              461.99   479.63   517.22   536.78   554.23
                              575.84   601.59   627.98   637.48   673.28
                              686.71   728.21   739.10   801.99   834.77
                              877.02   885.49   906.48   969.98  1011.41
                             1023.93  1064.81  1092.97  1113.87  1120.08
                             1162.34  1216.89  1257.24  1298.30  1301.35
                             1333.67  1364.36  1369.53  1389.51  1396.20
                             1405.38  1511.17  1521.99  1538.46  1578.32
                             1582.83  1635.79  1657.95  1687.67  1720.62
                             1744.04  1755.92  1766.50  1809.16  1831.18
                             1852.94  1865.55  1881.16  1909.78  1928.18
                             1954.49  1963.16  1981.64  2019.77  2063.87
                             2132.59  2144.93  2152.81  2160.84  2193.01
                             2201.68  2226.77  2319.74  2391.24  2438.63
                             2579.99  4352.80  4405.84  4420.64  4440.25
                             4491.81  4508.64  4511.06  4526.62  4594.66
                             4634.39  4658.87  4946.88  5151.36  5287.44
                             5301.99  5315.53

 Zero-point correction=                           0.285469 (Hartree/Particle)
 Thermal correction to Energy=                    0.304775
 Thermal correction to Enthalpy=                  0.305719
 Thermal correction to Gibbs Free Energy=         0.236128
 Sum of electronic and zero-point Energies=          -1350.430390
 Sum of electronic and thermal Energies=             -1350.411085
 Sum of electronic and thermal Enthalpies=           -1350.410140
 Sum of electronic and thermal Free Energies=        -1350.479731

                     E (Thermal)             CV                S
                      KCal/Mol        Cal/Mol-Kelvin    Cal/Mol-Kelvin
 Total                  191.249             73.989            146.466
 Electronic               0.000              0.000              0.000
 Translational            0.889              2.981             42.994
 Rotational               0.889              2.981             34.220
 Vibrational            189.472             68.028             69.252
 Vibration     1          0.593              1.986              6.820
 Vibration     2          0.593              1.984              5.920
 Vibration     3          0.594              1.983              5.621
 Vibration     4          0.597              1.973              4.436
 Vibration     5          0.601              1.960              3.785
 Vibration     6          0.602              1.956              3.648
 Vibration     7          0.605              1.946              3.374
 Vibration     8          0.610              1.930              3.058
 Vibration     9          0.621              1.895              2.586
 Vibration    10          0.626              1.876              2.405
 Vibration    11          0.639              1.837              2.116
 Vibration    12          0.647              1.811              1.963
 Vibration    13          0.665              1.756              1.701
 Vibration    14          0.674              1.729              1.598
 Vibration    15          0.680              1.712              1.537
 Vibration    16          0.707              1.633              1.305
 Vibration    17          0.715              1.609              1.244
 Vibration    18          0.734              1.556              1.124
 Vibration    19          0.744              1.527              1.067
 Vibration    20          0.754              1.502              1.019
 Vibration    21          0.766              1.470              0.962
 Vibration    22          0.781              1.431              0.898
 Vibration    23          0.797              1.391              0.838
 Vibration    24          0.803              1.376              0.817
 Vibration    25          0.825              1.321              0.743
 Vibration    26          0.834              1.300              0.717
 Vibration    27          0.861              1.236              0.643
 Vibration    28          0.869              1.220              0.625
 Vibration    29          0.913              1.123              0.529
 Vibration    30          0.937              1.074              0.485
 Vibration    31          0.969              1.012              0.434
 Vibration    32          0.975              0.999              0.424

                           ! Non-Optimized Parameters !
 Normal termination of Gaussian 16 at Sun Dec 13 13:05:27 2020.

 ----------------------------------------------------------------------
 # B3LYP/6-311++G(d,p) empiricaldispersion=gd3bj scf=xqc pop=npa geom=c
 heck
 ----------------------------------------------------------------------

 ----------------------------------------
 CID_102931734_JID_10121_Energie_neutraal
 ----------------------------------------
 Structure from the checkpoint file:  "JID_10121.chk"
 Charge =  0 Multiplicity = 1

 SCF Done:  E(RB3LYP) =  -1351.03649070     A.U. after   16 cycles
 Normal termination of Gaussian 16 at Sun Dec 13 13:15:25 2020.

 ----------------------------------------------------------------------
 # B3LYP/6-311++G(d,p) empiricaldispersion=gd3bj scf=xqc pop=npa geom=c
 heck
 ----------------------------------------------------------------------

 --------------------------------------
 CID_102931734_JID_10121_Energie_kation
 --------------------------------------
 Structure from the checkpoint file:  "JID_10121.chk"
 Charge =  1 Multiplicity = 2

 SCF Done:  E(UB3LYP) =  -1350.72746711     A.U. after   28 cycles
 Normal termination of Gaussian 16 at Sun Dec 13 13:39:41 2020.
 Gaussian 16:  ES64L-G16RevA.03 25-Dec-2016

 ----------------------------------------------------------------------
 # B3LYP/6-311++G(d,p) empiricaldispersion=gd3bj scf=xqc pop=npa geom=c
 heck
 ----------------------------------------------------------------------

 -------------------------------------
 CID_102931734_JID_10121_Energie_anion
 -------------------------------------
 Structure from the checkpoint file:  "JID_10121.chk"
 Charge = -1 Multiplicity = 2

                         Standard orientation:
 ---------------------------------------------------------------------
 Center     Atomic      Atomic             Coordinates (Angstroms)
 Number     Number       Type             X           Y           Z
 ---------------------------------------------------------------------
      1          6           0        4.596067    0.241051   -1.837253
      2          6           0        3.909846   -1.122926   -1.558067
      3          6           0        3.176623   -0.482417   -0.356534
      4          6           0        3.547732    0.927390   -0.921051
      5          6           0        1.694414   -0.788022   -0.180751
      6          7           0        1.200814    0.056265    0.920162
      7         16           0       -0.259544   -0.356085    1.619826
      8          8           0       -0.177214   -1.774349    1.978147
      9          8           0       -0.573804    0.665405    2.614656
     10          6           0       -1.509396   -0.238912    0.301433
     11          6           0       -1.912796    0.974691   -0.301359
     12          6           0       -2.989036    0.917283   -1.202942
     13          6           0       -3.620871   -0.273634   -1.521215
     14          6           0       -3.201781   -1.477128   -0.929404
     15          6           0       -2.141067   -1.432576   -0.003053
     16          7           0       -3.781102   -2.680553   -1.264630
     17          6           0       -1.240305    2.274871   -0.092353
     18          8           0       -0.076079    2.459561    0.225250
     19          8           0       -2.056700    3.324545   -0.346383
     20          8           0        3.877985   -0.795501    0.833124
     21          1           0        5.601630    0.284964   -1.411600
     22          1           0        4.637422    0.573066   -2.878459
     23          1           0        4.546461   -1.972632   -1.299447
     24          1           0        3.216837   -1.417237   -2.353748
     25          1           0        2.727129    1.382732   -1.487624
     26          1           0        3.915276    1.645440   -0.182837
     27          1           0        1.143297   -0.606216   -1.114551
     28          1           0        1.567217   -1.833526    0.110095
     29          1           0        1.132751    1.046066    0.665304
     30          1           0       -3.322866    1.836786   -1.668765
     31          1           0       -4.441419   -0.278601   -2.233346
     32          1           0       -1.814665   -2.334758    0.502517
     33          1           0       -3.640078   -3.454251   -0.629775
     34          1           0       -4.701412   -2.654247   -1.681157
     35          1           0       -1.505687    4.120042   -0.224295
     36          1           0        3.342744   -0.425569    1.558692
 ---------------------------------------------------------------------

 SCF Done:  E(UB3LYP) =  -1351.05721928     A.U. after   30 cycles

 The electronic state is 2-A.
 Alpha  occ. eigenvalues --  -88.92546 -19.02888 -19.02281 -18.98308 -18.97905
 Alpha  occ. eigenvalues --  -18.95961 -14.21175 -14.20595 -10.14267 -10.13352
 Alpha  occ. eigenvalues --  -10.09765 -10.08409 -10.08038 -10.07522 -10.07386
 Alpha  occ. eigenvalues --  -10.05492 -10.04716 -10.04128 -10.03901 -10.03777
 Alpha  occ. eigenvalues --   -7.98673  -5.94972  -5.94932  -5.94746  -0.98572
 Alpha  occ. eigenvalues --   -0.96832  -0.93249  -0.87691  -0.87200  -0.80764
 Alpha  occ. eigenvalues --   -0.80277  -0.74688  -0.71924  -0.63565  -0.62101
 Alpha  occ. eigenvalues --   -0.61665  -0.57848  -0.54261  -0.52813  -0.50781
 Alpha  occ. eigenvalues --   -0.48016  -0.46311  -0.45816  -0.42699  -0.40921
 Alpha  occ. eigenvalues --   -0.40161  -0.39402  -0.38524  -0.38116  -0.36782
 Alpha  occ. eigenvalues --   -0.35668  -0.34953  -0.33980  -0.32764  -0.32035
 Alpha  occ. eigenvalues --   -0.31405  -0.31288  -0.30640  -0.29513  -0.28435
 Alpha  occ. eigenvalues --   -0.28256  -0.26625  -0.25477  -0.25204  -0.24954
 Alpha  occ. eigenvalues --   -0.23727  -0.23437  -0.22337  -0.20931  -0.20575
 Alpha  occ. eigenvalues --   -0.19255  -0.18890  -0.17928  -0.17532  -0.17210
 Alpha  occ. eigenvalues --   -0.16234  -0.14058  -0.13361  -0.09386   0.03727
 Alpha virt. eigenvalues --    0.06907   0.07060   0.08760   0.08989   0.09298
 Alpha virt. eigenvalues --    0.09561   0.10332   0.10529   0.11192   0.12206
 Alpha virt. eigenvalues --    0.12254   0.12811   0.13008   0.14054   0.14713

  Beta  occ. eigenvalues --  -88.92545 -19.02804 -19.02278 -18.98284 -18.97869
  Beta  occ. eigenvalues --  -18.95686 -14.21145 -14.20515 -10.13951 -10.13352
  Beta  occ. eigenvalues --  -10.09762 -10.08409 -10.08038 -10.07385 -10.07161
  Beta  occ. eigenvalues --  -10.05090 -10.04688 -10.04222 -10.03880 -10.03620
  Beta  occ. eigenvalues --   -7.98672  -5.94967  -5.94917  -5.94756  -0.98487
  Beta  occ. eigenvalues --   -0.96497  -0.93242  -0.87592  -0.86805  -0.80458
  Beta  occ. eigenvalues --   -0.80207  -0.74683  -0.71531  -0.63245  -0.61887
  Beta  occ. eigenvalues --   -0.61221  -0.57844  -0.54054  -0.52432  -0.50506
  Beta  occ. eigenvalues --   -0.47870  -0.46278  -0.45605  -0.42551  -0.40887
  Beta  occ. eigenvalues --   -0.40033  -0.39359  -0.38433  -0.37972  -0.36562
  Beta  occ. eigenvalues --   -0.35563  -0.34701  -0.33840  -0.32599  -0.31777
  Beta  occ. eigenvalues --   -0.31246  -0.30647  -0.30554  -0.29003  -0.28287
  Beta  occ. eigenvalues --   -0.28142  -0.25723  -0.25393  -0.25188  -0.24663
  Beta  occ. eigenvalues --   -0.23709  -0.23306  -0.22285  -0.20691  -0.19832
  Beta  occ. eigenvalues --   -0.19069  -0.18140  -0.17724  -0.17219  -0.16862
  Beta  occ. eigenvalues --   -0.16056  -0.13736  -0.12468  -0.07998
  Beta virt. eigenvalues --    0.06905   0.07040   0.08691   0.08969   0.09275
  Beta virt. eigenvalues --    0.09497   0.09888   0.10382   0.11098   0.11186
  Beta virt. eigenvalues --    0.12199   0.12240   0.12791   0.12976   0.14028

 Mulliken charges and spin densities:
               1          2
     1  C   -0.092888   0.013279
     2  C   -0.572047  -0.015197
     3  C    0.512341   0.024129
     4  C   -0.462107  -0.030103
     5  C   -1.013812  -0.022807
     6  N   -0.210212   0.001087
     7  S    0.542008   0.053546
     8  O   -0.226436   0.006729
     9  O   -0.096734  -0.005450
    10  C   -0.132933   0.257347
    11  C    0.092023   0.040413
    12  C   -0.183289   0.036932
    13  C    0.093803   0.104507
    14  C   -0.683135   0.242563
    15  C   -0.268412  -0.184414
    16  N   -0.347666   0.027351
    17  C   -0.158567   0.241050
    18  O   -0.419341   0.098062
    19  O   -0.201269   0.017300
    20  O   -0.176696  -0.002234
    21  H    0.121204   0.000105
    22  H    0.127334   0.000079
    23  H    0.147880   0.000193
    24  H    0.127570  -0.000656
    25  H    0.155734   0.004886
    26  H    0.166104   0.001864
    27  H    0.156178   0.008706
    28  H    0.243838  -0.002170
    29  H    0.353740  -0.007080
    30  H    0.181439   0.000651
    31  H    0.099804  -0.000182
    32  H    0.184431   0.014201
    33  H    0.208681   0.015029
    34  H    0.181083   0.051590
    35  H    0.246113   0.004519
    36  H    0.304236   0.004175
 Sum of Mulliken charges =  -1.00000   1.00000

 Dipole moment (field-independent basis, Debye):
    X=              2.5434    Y=             -0.7775    Z=             -4.8585  Tot=              5.5388
 Quadrupole moment (field-independent basis, Debye-Ang):
   XX=           -159.1223   YY=           -141.1025   ZZ=           -150.5417
   XY=              7.9478   XZ=             -2.5357   YZ=              0.1744

 Summary of Natural Population Analysis:

                                       Natural Population
                Natural  -----------------------------------------------
    Atom  No    Charge         Core      Valence    Rydberg      Total
 -----------------------------------------------------------------------
      C    1   -0.19282      0.99966     2.18635    0.00681     3.19282
      C    2   -0.19316      0.99960     2.18588    0.00768     3.19316
      C    3    0.13095      0.99952     1.85417    0.01536     2.86905
      C    4   -0.20172      0.99961     2.19414    0.00797     3.20172
      C    5   -0.10493      0.99955     2.09469    0.01069     3.10493
      N    6   -0.46279      0.99972     2.94540    0.01767     3.96279
      S    7    1.11881      4.99921     1.78312    0.09885     6.88119
      O    8   -0.48024      0.99990     3.47301    0.00732     4.48024
      O    9   -0.45711      0.99990     3.45176    0.00544     4.45711
      C   10   -0.03611      0.99934     2.02139    0.01538     3.03611
      C   11   -0.07829      0.99941     2.06576    0.01312     3.07829
      C   12   -0.06519      0.99956     2.05738    0.00826     3.06519
      C   13   -0.13456      0.99954     2.12622    0.00881     3.13456
      C   14    0.14523      0.99951     1.84517    0.01008     2.85477
      C   15   -0.14444      0.99942     2.13611    0.00891     3.14444
      N   16   -0.38857      0.99971     2.87954    0.00932     3.88857
      C   17    0.44521      0.99966     1.53181    0.02332     2.55479
      O   18   -0.32425      0.99985     3.31643    0.00797     4.32425
      O   19   -0.34839      0.99988     3.34281    0.00570     4.34839
      O   20   -0.38166      0.99988     3.37461    0.00716     4.38166
      H   21    0.09618      0.00000     0.40258    0.00124     0.40382
      H   22    0.09150      0.00000     0.40737    0.00114     0.40850
      H   23    0.10200      0.00000     0.39693    0.00106     0.39800
      H   24    0.09814      0.00000     0.40086    0.00100     0.40186
      H   25    0.10337      0.00000     0.39564    0.00099     0.39663
      H   26    0.10141      0.00000     0.39760    0.00099     0.39859
      H   27    0.09524      0.00000     0.40351    0.00124     0.40476
      H   28    0.11007      0.00000     0.38867    0.00126     0.38993
      H   29    0.21910      0.00000     0.27818    0.00271     0.28090
      H   30    0.10264      0.00000     0.39631    0.00105     0.39736
      H   31    0.08979      0.00000     0.40878    0.00143     0.41021
      H   32    0.10977      0.00000     0.38899    0.00124     0.39023
      H   33    0.18241      0.00000     0.31571    0.00188     0.31759
      H   34    0.18109      0.00000     0.31725    0.00166     0.31891
      H   35    0.23219      0.00000     0.26488    0.00293     0.26781
      H   36    0.23909      0.00000     0.25846    0.00245     0.26091
 =======================================================================
   * Total *    0.00000     23.99244    54.68747    0.32008    79.00000

 Normal termination of Gaussian 16 at Sun Dec 13 14:06:01 2020.
