 Gaussian 16, Revision A.03,

 -----------------------------------------------------------
 # opt freq B3LYP/6-31G(d) empiricaldispersion=gd3bj scf=xqc
 -----------------------------------------------------------

 ------------------------------
 CID_66381265_JID_6327_neutraal
 ------------------------------
 Symbolic Z-matrix:
 Charge =  0 Multiplicity = 1

 SCF Done:  E(RB3LYP) =  -1155.19992499     A.U. after   15 cycles
 SCF Done:  E(RB3LYP) =  -1155.21024244     A.U. after   13 cycles
 SCF Done:  E(RB3LYP) =  -1155.21106392     A.U. after   13 cycles
 SCF Done:  E(RB3LYP) =  -1155.21121187     A.U. after   12 cycles
 SCF Done:  E(RB3LYP) =  -1155.21132928     A.U. after   13 cycles
 SCF Done:  E(RB3LYP) =  -1155.21142935     A.U. after   12 cycles
 SCF Done:  E(RB3LYP) =  -1155.21149839     A.U. after   13 cycles
 SCF Done:  E(RB3LYP) =  -1155.21158067     A.U. after   12 cycles
 SCF Done:  E(RB3LYP) =  -1155.21164021     A.U. after   12 cycles
 SCF Done:  E(RB3LYP) =  -1155.21171122     A.U. after   12 cycles
 SCF Done:  E(RB3LYP) =  -1155.21234383     A.U. after   11 cycles
 SCF Done:  E(RB3LYP) =  -1155.21235334     A.U. after   11 cycles
 SCF Done:  E(RB3LYP) =  -1155.21235840     A.U. after   11 cycles
 SCF Done:  E(RB3LYP) =  -1155.21235968     A.U. after   10 cycles
 SCF Done:  E(RB3LYP) =  -1155.21236012     A.U. after    8 cycles
 SCF Done:  E(RB3LYP) =  -1155.21236019     A.U. after    8 cycles
 Optimization completed.
    -- Stationary point found.
 Normal termination of Gaussian 16 at Thu Dec 10 22:11:59 2020.

 --------------------------------------------------------------------
 #N Geom=AllCheck Guess=TCheck SCRF=Check GenChk RB3LYP/6-31G(d) Freq
 --------------------------------------------------------------------

 Structure from the checkpoint file:  "JID_6327.chk"
 ------------------------------
 CID_66381265_JID_6327_neutraal
 ------------------------------
 Charge =  0 Multiplicity = 1

 SCF Done:  E(RB3LYP) =  -1155.21236019     A.U. after    1 cycles

  Exact polarizability: 127.705   9.500 136.874  -0.009   0.006 104.301
 Approx polarizability: 191.780  17.132 226.447  -0.021   0.034 211.481

                      1                      2                      3
                      A                      A                      A
 Frequencies --     17.1532                29.1299                41.7373
 Red. masses --      7.3303                11.0871                 6.5802
 Frc consts  --      0.0013                 0.0055                 0.0068
 IR Inten    --      0.0949                 0.0003                 1.1299

                      4                      5                      6
                      A                      A                      A
 Frequencies --     64.7565               122.9814               144.2879
 Red. masses --     11.9961                 8.2621                 8.8088
 Frc consts  --      0.0296                 0.0736                 0.1081
 IR Inten    --      2.3776                 9.5856                 1.4142

                      7                      8                      9
                      A                      A                      A
 Frequencies --    144.7650               220.7352               250.8076
 Red. masses --     11.6603                 6.6269                10.6606
 Frc consts  --      0.1440                 0.1902                 0.3951
 IR Inten    --      2.3055                 0.0196                 2.8654

                     10                     11                     12
                      A                      A                      A
 Frequencies --    263.1930               296.4519               314.9289
 Red. masses --      2.0905                 4.1698                10.7151
 Frc consts  --      0.0853                 0.2159                 0.6261
 IR Inten    --      5.0936                 0.0377                 0.0827

                     13                     14                     15
                      A                      A                      A
 Frequencies --    379.3546               413.5608               494.2427
 Red. masses --     10.4235                 9.8640                 4.2674
 Frc consts  --      0.8838                 0.9940                 0.6142
 IR Inten    --      4.1457                27.9522                 1.1517

                     16                     17                     18
                      A                      A                      A
 Frequencies --    502.3605               567.7290               583.1892
 Red. masses --      8.6389                 3.4114                 2.3683
 Frc consts  --      1.2845                 0.6478                 0.4746
 IR Inten    --      1.7904                 3.0098                21.1838

                     19                     20                     21
                      A                      A                      A
 Frequencies --    588.7118               623.8229               636.2145
 Red. masses --      8.3982                 8.7559                 2.3164
 Frc consts  --      1.7149                 2.0076                 0.5524
 IR Inten    --      4.1575                15.2596                 1.4431

                     22                     23                     24
                      A                      A                      A
 Frequencies --    673.8602               681.1877               709.1966
 Red. masses --      2.0422                 4.1842                 7.8801
 Frc consts  --      0.5464                 1.1439                 2.3352
 IR Inten    --     65.7591                74.4797                26.1694

                     25                     26                     27
                      A                      A                      A
 Frequencies --    751.6927               767.7333               768.7554
 Red. masses --      6.0898                 8.1704                 2.2141
 Frc consts  --      2.0274                 2.8373                 0.7709
 IR Inten    --      6.9381                 0.7508                63.2838

                     28                     29                     30
                      A                      A                      A
 Frequencies --    810.7916               824.6314               845.7418
 Red. masses --      4.8254                 2.1213                 2.4894
 Frc consts  --      1.8690                 0.8499                 1.0491
 IR Inten    --      2.9266                 3.6601                79.2371

                     31                     32                     33
                      A                      A                      A
 Frequencies --    866.2523               901.2491               966.8452
 Red. masses --      4.2124                 2.2707                 8.4095
 Frc consts  --      1.8624                 1.0867                 4.6316
 IR Inten    --     10.2175                16.2401                 8.1509

                     34                     35                     36
                      A                      A                      A
 Frequencies --    968.5881              1065.2846              1078.2733
 Red. masses --      1.2845                 1.5752                 2.6348
 Frc consts  --      0.7100                 1.0532                 1.8049
 IR Inten    --      0.1199                 2.8564                 0.0018

                     37                     38                     39
                      A                      A                      A
 Frequencies --   1099.5580              1131.7029              1168.5282
 Red. masses --      2.2969                 2.5257                 2.7012
 Frc consts  --      1.6362                 1.9059                 2.1731
 IR Inten    --     42.6839                86.9256                26.4288

                     40                     41                     42
                      A                      A                      A
 Frequencies --   1169.0550              1208.8358              1329.2872
 Red. masses --      2.6673                 1.9912                 3.2651
 Frc consts  --      2.1478                 1.7143                 3.3992
 IR Inten    --     44.1382               251.8989                22.0977

                     43                     44                     45
                      A                      A                      A
 Frequencies --   1338.2894              1361.2596              1405.4419
 Red. masses --      1.7847                 1.4404                 1.7745
 Frc consts  --      1.8833                 1.5726                 2.0652
 IR Inten    --      0.0065                18.8318                18.1638

                     46                     47                     48
                      A                      A                      A
 Frequencies --   1419.4057              1433.1824              1481.8693
 Red. masses --      2.9422                 6.2321                 1.1602
 Frc consts  --      3.4925                 7.5420                 1.5010
 IR Inten    --     46.7606               253.0044                63.8913

                     49                     50                     51
                      A                      A                      A
 Frequencies --   1554.1451              1583.9787              1657.3593
 Red. masses --      8.0022                 8.0350                 6.7106
 Frc consts  --     11.3879                11.8777                10.8603
 IR Inten    --     88.1987                15.5425                 2.8300

                     52                     53                     54
                      A                      A                      A
 Frequencies --   1816.4741              1821.2629              1869.3497
 Red. masses --     12.4270                 9.9698                11.9113
 Frc consts  --     24.1588                19.4843                24.5239
 IR Inten    --    538.7752               308.9002                 5.3380

                     55                     56                     57
                      A                      A                      A
 Frequencies --   3087.7991              3133.5634              3259.0279
 Red. masses --      1.0584                 1.1061                 1.0891
 Frc consts  --      5.9454                 6.3991                 6.8154
 IR Inten    --      6.9000                 0.0134                 0.1773

                     58                     59                     60
                      A                      A                      A
 Frequencies --   3279.0649              3295.3766              3692.0976
 Red. masses --      1.1077                 1.0949                 1.0640
 Frc consts  --      7.0175                 7.0055                 8.5452
 IR Inten    --      0.3810                 7.7675                70.7114

 - Thermochemistry -
 -------------------
 Temperature   298.150 Kelvin.  Pressure   1.00000 Atm.
 Atom     1 has atomic number  6 and mass  12.00000

 Molecular mass:   238.00483 amu.
 Principal axes and moments of inertia in atomic units:
                           1         2         3
     Eigenvalues --  2547.203435176.192536183.08637
           X            0.99998   0.00680  -0.00000
           Y           -0.00680   0.99998  -0.00002
           Z            0.00000   0.00002   1.00000
 This molecule is an asymmetric top.
 Rotational symmetry number  1.
 Warning -- assumption of classical behavior for rotation
           may cause significant error
 Rotational temperatures (Kelvin)      0.03400     0.01673     0.01401
 Rotational constants (GHZ):           0.70852     0.34866     0.29188
 Zero-point vibrational energy     388643.5 (Joules/Mol)
                                   92.88802 (Kcal/Mol)
 Warning -- explicit consideration of  19 degrees of freedom as
           vibrations may cause significant error
 Vibrational temperatures:     24.68    41.91    60.05    93.17   176.94
          (Kelvin)            207.60   208.28   317.59   360.86   378.68
                              426.53   453.11   545.81   595.02   711.10
                              722.78   816.84   839.08   847.02   897.54
                              915.37   969.53   980.08  1020.38  1081.52
                             1104.60  1106.07  1166.55  1186.46  1216.83
                             1246.34  1296.70  1391.07  1393.58  1532.71
                             1551.39  1582.02  1628.27  1681.25  1682.01
                             1739.25  1912.55  1925.50  1958.55  2022.12
                             2042.21  2062.03  2132.08  2236.07  2278.99
                             2384.57  2613.50  2620.39  2689.58  4442.65
                             4508.50  4689.01  4717.84  4741.31  5312.10

 Zero-point correction=                           0.148026 (Hartree/Particle)
 Thermal correction to Energy=                    0.161746
 Thermal correction to Enthalpy=                  0.162690
 Thermal correction to Gibbs Free Energy=         0.104316
 Sum of electronic and zero-point Energies=          -1155.064334
 Sum of electronic and thermal Energies=             -1155.050614
 Sum of electronic and thermal Enthalpies=           -1155.049670
 Sum of electronic and thermal Free Energies=        -1155.108044

                     E (Thermal)             CV                S
                      KCal/Mol        Cal/Mol-Kelvin    Cal/Mol-Kelvin
 Total                  101.497             50.074            122.857
 Electronic               0.000              0.000              0.000
 Translational            0.889              2.981             42.303
 Rotational               0.889              2.981             32.766
 Vibrational             99.720             44.113             47.788
 Vibration     1          0.593              1.986              6.939
 Vibration     2          0.593              1.984              5.888
 Vibration     3          0.594              1.980              5.175
 Vibration     4          0.597              1.971              4.307
 Vibration     5          0.610              1.930              3.053
 Vibration     6          0.616              1.909              2.746
 Vibration     7          0.616              1.908              2.740
 Vibration     8          0.647              1.810              1.953
 Vibration     9          0.663              1.761              1.725
 Vibration    10          0.670              1.740              1.640
 Vibration    11          0.690              1.680              1.437
 Vibration    12          0.702              1.645              1.336
 Vibration    13          0.749              1.514              1.042
 Vibration    14          0.777              1.441              0.914
 Vibration    15          0.850              1.263              0.673
 Vibration    16          0.858              1.245              0.652
 Vibration    17          0.924              1.101              0.509
 Vibration    18          0.940              1.068              0.479
 Vibration    19          0.946              1.056              0.469

 Optimization completed.
    -- Stationary point found.
 Normal termination of Gaussian 16 at Thu Dec 10 22:18:29 2020.

 ----------------------------------------------------------------------
 # B3LYP/6-311++G(d,p) empiricaldispersion=gd3bj scf=xqc pop=npa geom=c
 heck
 ----------------------------------------------------------------------

 --------------------------------------
 CID_66381265_JID_6327_Energie_neutraal
 --------------------------------------
 Structure from the checkpoint file:  "JID_6327.chk"
 Charge =  0 Multiplicity = 1

 SCF Done:  E(RB3LYP) =  -1155.46231512     A.U. after   15 cycles
 Normal termination of Gaussian 16 at Thu Dec 10 22:20:47 2020.

 ----------------------------------------------------------------------
 # B3LYP/6-311++G(d,p) empiricaldispersion=gd3bj scf=xqc pop=npa geom=c
 heck
 ----------------------------------------------------------------------

 ------------------------------------
 CID_66381265_JID_6327_Energie_kation
 ------------------------------------
 Structure from the checkpoint file:  "JID_6327.chk"
 Charge =  1 Multiplicity = 2

 SCF Done:  E(UB3LYP) =  -1155.12262502     A.U. after   28 cycles
 Normal termination of Gaussian 16 at Thu Dec 10 22:26:21 2020.
 Gaussian 16:  ES64L-G16RevA.03 25-Dec-2016

 ----------------------------------------------------------------------
 # B3LYP/6-311++G(d,p) empiricaldispersion=gd3bj scf=xqc pop=npa geom=c
 heck
 ----------------------------------------------------------------------

 -----------------------------------
 CID_66381265_JID_6327_Energie_anion
 -----------------------------------
 Structure from the checkpoint file:  "JID_6327.chk"
 Charge = -1 Multiplicity = 2

                         Standard orientation:
 ---------------------------------------------------------------------
 Center     Atomic      Atomic             Coordinates (Angstroms)
 Number     Number       Type             X           Y           Z
 ---------------------------------------------------------------------
      1          6           0       -3.036870   -1.428089   -0.668095
      2          6           0       -3.037169   -1.427411    0.668936
      3          6           0       -2.357353   -0.181144    1.152725
      4          8           0       -2.121539    0.165083    2.289772
      5          7           0       -2.042374    0.551640   -0.000330
      6          6           0       -2.356854   -0.182331   -1.152857
      7          8           0       -2.120577    0.162831   -2.290114
      8          6           0       -1.128375    1.664373   -0.000672
      9          6           0        0.303838    1.181933   -0.000283
     10          7           0        0.644316   -0.067419   -0.000044
     11          6           0        2.017516   -0.209465    0.000088
     12          6           0        2.734599    0.957115    0.000066
     13         16           0        1.663695    2.309892   -0.000245
     14          6           0        2.680435   -1.531786    0.000353
     15          8           0        3.886279   -1.681791    0.000454
     16          8           0        1.806298   -2.560673    0.000472
     17          1           0       -3.434225   -2.164248   -1.354346
     18          1           0       -3.434819   -2.162884    1.355753
     19          1           0       -1.325516    2.269417   -0.890436
     20          1           0       -1.325819    2.270240    0.888444
     21          1           0        3.809575    1.063608    0.000225
     22          1           0        2.355808   -3.366725    0.000649
 ---------------------------------------------------------------------

 SCF Done:  E(UB3LYP) =  -1155.50394260     A.U. after   26 cycles

 The electronic state is 2-A.
 Alpha  occ. eigenvalues --  -88.78439 -19.06765 -19.00753 -18.94707 -18.94706
 Alpha  occ. eigenvalues --  -14.21074 -14.20526 -10.20042 -10.13675 -10.11708
 Alpha  occ. eigenvalues --  -10.11707 -10.10949 -10.10892 -10.10414 -10.02485
 Alpha  occ. eigenvalues --  -10.02404  -7.87097  -5.83357  -5.83014  -5.82725
 Alpha  occ. eigenvalues --   -1.00810  -0.91708  -0.91234  -0.89133  -0.86711
 Alpha  occ. eigenvalues --   -0.80766  -0.70317  -0.69240  -0.65361  -0.59021
 Alpha  occ. eigenvalues --   -0.54776  -0.51077  -0.47894  -0.46388  -0.44822
 Alpha  occ. eigenvalues --   -0.41494  -0.41019  -0.38184  -0.35737  -0.34826
 Alpha  occ. eigenvalues --   -0.34105  -0.33792  -0.33014  -0.30552  -0.29804
 Alpha  occ. eigenvalues --   -0.29491  -0.28394  -0.27833  -0.27406  -0.27294
 Alpha  occ. eigenvalues --   -0.25805  -0.24281  -0.22558  -0.18929  -0.18790
 Alpha  occ. eigenvalues --   -0.17273  -0.14968  -0.14891  -0.13855  -0.12518
 Alpha  occ. eigenvalues --   -0.10965   0.02036
 Alpha virt. eigenvalues --    0.04051   0.08031   0.08569   0.09123   0.09166
 Alpha virt. eigenvalues --    0.10286   0.11597   0.11887   0.12695   0.13076
 Alpha virt. eigenvalues --    0.13751   0.14729   0.15374   0.16371   0.16378

  Beta  occ. eigenvalues --  -88.78428 -19.06742 -19.00697 -18.94316 -18.94316
  Beta  occ. eigenvalues --  -14.21086 -14.20604 -10.19960 -10.13668 -10.11547
  Beta  occ. eigenvalues --  -10.11547 -10.10950 -10.10882 -10.10244 -10.02243
  Beta  occ. eigenvalues --  -10.02160  -7.87086  -5.83355  -5.83011  -5.82683
  Beta  occ. eigenvalues --   -1.00723  -0.91619  -0.90731  -0.88458  -0.86662
  Beta  occ. eigenvalues --   -0.80517  -0.70166  -0.68976  -0.65052  -0.58805
  Beta  occ. eigenvalues --   -0.54579  -0.50160  -0.47786  -0.46285  -0.44415
  Beta  occ. eigenvalues --   -0.41355  -0.40931  -0.38095  -0.35408  -0.34701
  Beta  occ. eigenvalues --   -0.33782  -0.33595  -0.32645  -0.30466  -0.29501
  Beta  occ. eigenvalues --   -0.29352  -0.27654  -0.27487  -0.27040  -0.27015
  Beta  occ. eigenvalues --   -0.25420  -0.22405  -0.22224  -0.18744  -0.18659
  Beta  occ. eigenvalues --   -0.17257  -0.14391  -0.13511  -0.12668  -0.11770
  Beta  occ. eigenvalues --   -0.10578
  Beta virt. eigenvalues --    0.05280   0.08016   0.08503   0.08565   0.09140
  Beta virt. eigenvalues --    0.09447   0.10266   0.11613   0.11899   0.12702
  Beta virt. eigenvalues --    0.13083   0.13744   0.14741   0.15358   0.16382

 Mulliken charges and spin densities:
               1          2
     1  C   -0.042034   0.190145
     2  C   -0.042056   0.190214
     3  C   -0.168228   0.111168
     4  O   -0.412614   0.130669
     5  N    0.303132  -0.043303
     6  C   -0.168196   0.111209
     7  O   -0.412569   0.130687
     8  C   -0.521643   0.001711
     9  C    0.483427   0.015862
    10  N    0.267881  -0.012720
    11  C   -0.578737  -0.010456
    12  C    0.359866   0.125586
    13  S   -0.562418   0.018520
    14  C   -0.204461   0.053124
    15  O   -0.375454   0.019951
    16  O   -0.152310   0.004866
    17  H    0.136553  -0.013576
    18  H    0.136550  -0.013579
    19  H    0.198574  -0.000632
    20  H    0.198580  -0.000635
    21  H    0.277423  -0.008702
    22  H    0.278734  -0.000109
 Sum of Mulliken charges =  -1.00000   1.00000

 Dipole moment (field-independent basis, Debye):
    X=              4.1946    Y=              1.7435    Z=             -0.0005  Tot=              4.5426
 Quadrupole moment (field-independent basis, Debye-Ang):
   XX=           -139.6962   YY=            -97.3481   ZZ=           -126.5936
   XY=              2.3845   XZ=              0.0041   YZ=             -0.0130

 Summary of Natural Population Analysis:

                                       Natural Population
                Natural  -----------------------------------------------
    Atom  No    Charge         Core      Valence    Rydberg      Total
 -----------------------------------------------------------------------
      C    1   -0.08115      0.99951     2.07291    0.00873     3.08115
      C    2   -0.08112      0.99951     2.07289    0.00873     3.08112
      C    3    0.35864      0.99968     1.61889    0.02280     2.64136
      O    4   -0.27174      0.99987     3.26517    0.00670     4.27174
      N    5   -0.28752      0.99961     2.77579    0.01211     3.78752
      C    6    0.35866      0.99968     1.61887    0.02280     2.64134
      O    7   -0.27172      0.99987     3.26515    0.00670     4.27172
      C    8   -0.10950      0.99956     2.09793    0.01201     3.10950
      C    9    0.05024      0.99962     1.93394    0.01620     2.94976
      N   10   -0.21927      0.99962     2.70837    0.01129     3.71927
      C   11   -0.00090      0.99942     1.98774    0.01374     3.00090
      C   12   -0.14345      0.99951     2.13473    0.00922     3.14345
      S   13    0.18269      4.99943     2.79783    0.02005     7.81731
      C   14    0.40041      0.99966     1.57547    0.02447     2.59959
      O   15   -0.31814      0.99987     3.31121    0.00705     4.31814
      O   16   -0.32762      0.99988     3.32165    0.00610     4.32762
      H   17    0.09303      0.00000     0.40585    0.00112     0.40697
      H   18    0.09303      0.00000     0.40585    0.00112     0.40697
      H   19    0.11335      0.00000     0.38543    0.00122     0.38665
      H   20    0.11335      0.00000     0.38543    0.00122     0.38665
      H   21    0.11530      0.00000     0.38354    0.00116     0.38470
      H   22    0.23344      0.00000     0.26374    0.00281     0.26656
 =======================================================================
   * Total *   -0.00000     19.99428    40.78838    0.21735    61.00000

 Normal termination of Gaussian 16 at Thu Dec 10 22:31:40 2020.
