 Gaussian 16, Revision A.03,

 -----------------------------------------------------------
 # opt freq B3LYP/6-31G(d) empiricaldispersion=gd3bj scf=xqc
 -----------------------------------------------------------

 ------------------------------
 CID_28753467_JID_8565_neutraal
 ------------------------------
 Symbolic Z-matrix:
 Charge =  0 Multiplicity = 1

 SCF Done:  E(RB3LYP) =  -1150.75113086     A.U. after   14 cycles
 SCF Done:  E(RB3LYP) =  -1150.75526193     A.U. after   12 cycles
 SCF Done:  E(RB3LYP) =  -1150.75528428     A.U. after   12 cycles
 SCF Done:  E(RB3LYP) =  -1150.75609708     A.U. after   12 cycles
 SCF Done:  E(RB3LYP) =  -1150.75631169     A.U. after   11 cycles
 SCF Done:  E(RB3LYP) =  -1150.75634520     A.U. after   11 cycles
 SCF Done:  E(RB3LYP) =  -1150.75637432     A.U. after   10 cycles
 SCF Done:  E(RB3LYP) =  -1150.75637887     A.U. after    9 cycles
 SCF Done:  E(RB3LYP) =  -1150.75638070     A.U. after    9 cycles
 SCF Done:  E(RB3LYP) =  -1150.75638160     A.U. after    8 cycles
 SCF Done:  E(RB3LYP) =  -1150.75638194     A.U. after    8 cycles
 Optimization completed.
    -- Stationary point found.
 Normal termination of Gaussian 16 at Fri Dec 11 21:10:50 2020.

 --------------------------------------------------------------------
 #N Geom=AllCheck Guess=TCheck SCRF=Check GenChk RB3LYP/6-31G(d) Freq
 --------------------------------------------------------------------

 Structure from the checkpoint file:  "JID_8565.chk"
 ------------------------------
 CID_28753467_JID_8565_neutraal
 ------------------------------
 Charge =  0 Multiplicity = 1

 SCF Done:  E(RB3LYP) =  -1150.75638194     A.U. after    1 cycles

  Exact polarizability: 219.477  11.916 142.678   0.379   0.478 155.812
 Approx polarizability: 290.404  25.401 203.553  -1.410   2.552 280.656

                      1                      2                      3
                      A                      A                      A
 Frequencies --     22.7929                28.3503                37.1394
 Red. masses --      3.2761                 3.8814                 3.3986
 Frc consts  --      0.0010                 0.0018                 0.0028
 IR Inten    --      0.2266                 0.1488                 0.6250

                      4                      5                      6
                      A                      A                      A
 Frequencies --     68.1317                74.5863                96.9990
 Red. masses --      3.9248                 3.8451                 3.5520
 Frc consts  --      0.0107                 0.0126                 0.0197
 IR Inten    --      1.9174                 0.2011                 2.1338

                      7                      8                      9
                      A                      A                      A
 Frequencies --    124.2782               134.4842               165.4105
 Red. masses --      3.8796                 3.8390                 4.4383
 Frc consts  --      0.0353                 0.0409                 0.0715
 IR Inten    --      4.1577                 3.2541                 0.4845

                     10                     11                     12
                      A                      A                      A
 Frequencies --    198.0527               216.2124               228.3228
 Red. masses --      2.2310                 2.0988                 1.8331
 Frc consts  --      0.0516                 0.0578                 0.0563
 IR Inten    --      7.5042                18.4601                 0.8769

                     13                     14                     15
                      A                      A                      A
 Frequencies --    236.0717               254.1751               275.6976
 Red. masses --      2.2166                 2.3264                 2.0446
 Frc consts  --      0.0728                 0.0886                 0.0916
 IR Inten    --      1.0289                 1.5321                 8.3885

                     16                     17                     18
                      A                      A                      A
 Frequencies --    278.6455               291.6157               324.6658
 Red. masses --      1.1685                 1.8403                 2.7902
 Frc consts  --      0.0535                 0.0922                 0.1733
 IR Inten    --      0.6176                14.8320                 1.7091

                     19                     20                     21
                      A                      A                      A
 Frequencies --    336.8890               343.8524               359.5956
 Red. masses --      1.0492                 2.7002                 2.6833
 Frc consts  --      0.0702                 0.1881                 0.2044
 IR Inten    --      0.0036                 9.5017                 1.8365

                     22                     23                     24
                      A                      A                      A
 Frequencies --    392.7575               400.5524               413.5406
 Red. masses --      2.9167                 2.9555                 3.5257
 Frc consts  --      0.2651                 0.2794                 0.3553
 IR Inten    --      7.3168                 0.5632                 3.7742

                     25                     26                     27
                      A                      A                      A
 Frequencies --    420.8065               431.3590               474.3487
 Red. masses --      3.0234                 3.1775                 3.1084
 Frc consts  --      0.3154                 0.3483                 0.4121
 IR Inten    --      0.4503                 2.0908                 0.6894

                     28                     29                     30
                      A                      A                      A
 Frequencies --    491.3817               512.0830               543.5708
 Red. masses --      2.7776                 5.1989                 3.2206
 Frc consts  --      0.3951                 0.8032                 0.5607
 IR Inten    --     18.7417                44.1346                 3.3533

                     31                     32                     33
                      A                      A                      A
 Frequencies --    578.9860               594.8789               650.3953
 Red. masses --      2.9379                 3.7162                 7.0037
 Frc consts  --      0.5803                 0.7748                 1.7456
 IR Inten    --     22.3334                20.1410                 1.5685

                     34                     35                     36
                      A                      A                      A
 Frequencies --    684.2482               743.9863               752.9343
 Red. masses --      2.9767                 4.0223                 2.4553
 Frc consts  --      0.8211                 1.3117                 0.8201
 IR Inten    --     86.1728                 0.5242                 1.8690

                     37                     38                     39
                      A                      A                      A
 Frequencies --    783.5887               807.2829               851.7358
 Red. masses --      2.8475                 2.0678                 1.4680
 Frc consts  --      1.0301                 0.7940                 0.6275
 IR Inten    --     40.8558                 3.0574                19.3692

                     40                     41                     42
                      A                      A                      A
 Frequencies --    855.8229               865.1984               873.7968
 Red. masses --      2.5839                 1.3361                 1.3150
 Frc consts  --      1.1150                 0.5893                 0.5915
 IR Inten    --      5.9698                 7.3977               144.4415

                     43                     44                     45
                      A                      A                      A
 Frequencies --    900.0754               942.6571               954.2609
 Red. masses --      2.1495                 1.7616                 1.6989
 Frc consts  --      1.0260                 0.9223                 0.9115
 IR Inten    --     19.1204                 1.2243                 1.0005

                     46                     47                     48
                      A                      A                      A
 Frequencies --    955.8220               972.1894               979.3871
 Red. masses --      1.6753                 1.2620                 1.2340
 Frc consts  --      0.9018                 0.7028                 0.6974
 IR Inten    --      4.8652                 0.1220                 0.3888

                     49                     50                     51
                      A                      A                      A
 Frequencies --    991.1352               993.4760              1036.2733
 Red. masses --      1.3063                 1.7022                 3.7434
 Frc consts  --      0.7560                 0.9899                 2.3685
 IR Inten    --      0.2777                 3.6347                 9.6040

                     52                     53                     54
                      A                      A                      A
 Frequencies --   1057.8291              1063.9738              1082.0122
 Red. masses --      1.4285                 1.3934                 2.3400
 Frc consts  --      0.9418                 0.9293                 1.6141
 IR Inten    --      3.5954                 0.0052                37.1350

                     55                     56                     57
                      A                      A                      A
 Frequencies --   1085.7757              1090.5694              1117.4138
 Red. masses --      1.6771                 4.3347                 2.1510
 Frc consts  --      1.1649                 3.0375                 1.5824
 IR Inten    --      8.7559                64.0437                12.1827

                     58                     59                     60
                      A                      A                      A
 Frequencies --   1133.2497              1149.2999              1155.5663
 Red. masses --      3.1852                 1.7369                 1.5931
 Frc consts  --      2.4101                 1.3517                 1.2534
 IR Inten    --    104.9934                21.0646                10.3980

                     61                     62                     63
                      A                      A                      A
 Frequencies --   1159.2886              1221.0525              1229.1331
 Red. masses --      1.5051                 1.2400                 1.1918
 Frc consts  --      1.1917                 1.0893                 1.0608
 IR Inten    --     35.8048                 6.7056                 0.8902

                     64                     65                     66
                      A                      A                      A
 Frequencies --   1234.3661              1242.9873              1246.9518
 Red. masses --      1.3164                 2.7040                 2.5339
 Frc consts  --      1.1818                 2.4614                 2.3214
 IR Inten    --      7.2007                 2.4399                 0.8801

                     67                     68                     69
                      A                      A                      A
 Frequencies --   1297.6424              1306.8705              1316.2796
 Red. masses --      4.4447                 3.0240                 1.4476
 Frc consts  --      4.4097                 3.0430                 1.4777
 IR Inten    --    121.1055                17.9754                21.8943

                     70                     71                     72
                      A                      A                      A
 Frequencies --   1344.8327              1348.7003              1358.8045
 Red. masses --      1.3574                 1.3809                 7.3653
 Frc consts  --      1.4464                 1.4800                 8.0123
 IR Inten    --      4.0096                 5.0592                 3.6505

                     73                     74                     75
                      A                      A                      A
 Frequencies --   1368.2798              1403.3778              1409.9829
 Red. masses --      1.1350                 1.4250                 1.4182
 Frc consts  --      1.2519                 1.6536                 1.6612
 IR Inten    --      1.5047                 5.3689                 3.7329

                     76                     77                     78
                      A                      A                      A
 Frequencies --   1426.2853              1428.3586              1449.7269
 Red. masses --      1.3370                 1.2111                 2.3483
 Frc consts  --      1.6025                 1.4558                 2.9078
 IR Inten    --      1.3697                 4.0006                21.0417

                     79                     80                     81
                      A                      A                      A
 Frequencies --   1452.1826              1460.8588              1482.2552
 Red. masses --      1.4352                 1.2165                 1.0912
 Frc consts  --      1.7832                 1.5296                 1.4125
 IR Inten    --     10.4787                 2.3653                 6.9691

                     82                     83                     84
                      A                      A                      A
 Frequencies --   1511.0151              1513.2506              1516.6118
 Red. masses --      1.0752                 1.0494                 1.0455
 Frc consts  --      1.4464                 1.4159                 1.4168
 IR Inten    --      3.1099                 0.0150                 0.1195

                     85                     86                     87
                      A                      A                      A
 Frequencies --   1519.4437              1519.8660              1533.3189
 Red. masses --      1.0940                 1.0695                 1.1172
 Frc consts  --      1.4881                 1.4556                 1.5475
 IR Inten    --     13.3238                 1.7156                 7.3645

                     88                     89                     90
                      A                      A                      A
 Frequencies --   1539.5374              1546.0190              1547.5129
 Red. masses --      1.0499                 1.2771                 1.2654
 Frc consts  --      1.4662                 1.7985                 1.7854
 IR Inten    --      5.9845                 1.6777                 2.6551

                     91                     92                     93
                      A                      A                      A
 Frequencies --   1552.7065              1629.3489              1658.3116
 Red. masses --      1.2257                 6.6066                 5.5140
 Frc consts  --      1.7410                10.3336                 8.9341
 IR Inten    --     15.7855                 2.1156                21.0771

                     94                     95                     96
                      A                      A                      A
 Frequencies --   1701.3798              2984.0354              3047.6825
 Red. masses --      1.0879                 1.0724                 1.0347
 Frc consts  --      1.8554                 5.6260                 5.6624
 IR Inten    --     29.5505                65.0695                22.3851

                     97                     98                     99
                      A                      A                      A
 Frequencies --   3048.8928              3052.3761              3055.7569
 Red. masses --      1.0348                 1.0676                 1.0362
 Frc consts  --      5.6676                 5.8605                 5.7007
 IR Inten    --     24.5507                18.5649                19.4666

                    100                    101                    102
                      A                      A                      A
 Frequencies --   3065.9062              3079.3581              3080.8112
 Red. masses --      1.0697                 1.0656                 1.0772
 Frc consts  --      5.9242                 5.9536                 6.0241
 IR Inten    --     13.3375                19.7659                24.9263

                    103                    104                    105
                      A                      A                      A
 Frequencies --   3106.1092              3115.3384              3116.8183
 Red. masses --      1.0960                 1.1029                 1.1025
 Frc consts  --      6.2301                 6.3065                 6.3104
 IR Inten    --      8.7959                 3.5209                 2.6946

                    106                    107                    108
                      A                      A                      A
 Frequencies --   3119.9683              3120.4510              3123.8604
 Red. masses --      1.1030                 1.0996                 1.1018
 Frc consts  --      6.3257                 6.3085                 6.3351
 IR Inten    --     27.6110                33.7676                65.5607

                    109                    110                    111
                      A                      A                      A
 Frequencies --   3125.5885              3129.1013              3132.9405
 Red. masses --      1.1019                 1.1017                 1.1050
 Frc consts  --      6.3424                 6.3558                 6.3901
 IR Inten    --     41.1876                38.4441                 8.6005

                    112                    113                    114
                      A                      A                      A
 Frequencies --   3200.7756              3217.3399              3220.8785
 Red. masses --      1.0869                 1.0940                 1.0882
 Frc consts  --      6.5608                 6.6718                 6.6516
 IR Inten    --      8.7267                 5.5671                 1.4592

                    115                    116                    117
                      A                      A                      A
 Frequencies --   3236.7400              3467.7571              3550.1070
 Red. masses --      1.0924                 1.0500                 1.0919
 Frc consts  --      6.7432                 7.4395                 8.1081
 IR Inten    --      5.5000                 1.8701                 0.8335

 - Thermochemistry -
 -------------------
 Temperature   298.150 Kelvin.  Pressure   1.00000 Atm.
 Atom     1 has atomic number  6 and mass  12.00000

 Molecular mass:   269.14495 amu.
 Principal axes and moments of inertia in atomic units:
                           1         2         3
     Eigenvalues --  3205.745707664.711959184.95331
           X            0.99980  -0.02004   0.00109
           Y            0.02004   0.99979  -0.00468
           Z           -0.00100   0.00470   0.99999
 This molecule is an asymmetric top.
 Rotational symmetry number  1.
 Warning -- assumption of classical behavior for rotation
           may cause significant error
 Rotational temperatures (Kelvin)      0.02702     0.01130     0.00943
 Rotational constants (GHZ):           0.56297     0.23546     0.19649
 Zero-point vibrational energy     937605.0 (Joules/Mol)
                                  224.09298 (Kcal/Mol)
 Warning -- explicit consideration of  32 degrees of freedom as
           vibrations may cause significant error
 Vibrational temperatures:     32.79    40.79    53.44    98.03   107.31
          (Kelvin)            139.56   178.81   193.49   237.99   284.95
                              311.08   328.51   339.65   365.70   396.67
                              400.91   419.57   467.12   484.71   494.73
                              517.38   565.09   576.31   594.99   605.45
                              620.63   682.48   706.99   736.77   782.08
                              833.03   855.90   935.77   984.48  1070.43
                             1083.30  1127.41  1161.50  1225.46  1231.34
                             1244.83  1257.20  1295.01  1356.27  1372.97
                             1375.21  1398.76  1409.12  1426.02  1429.39
                             1490.97  1521.98  1530.82  1556.77  1562.19
                             1569.09  1607.71  1630.49  1653.59  1662.60
                             1667.96  1756.82  1768.45  1775.98  1788.38
                             1794.09  1867.02  1880.30  1893.83  1934.91
                             1940.48  1955.02  1968.65  2019.15  2028.65
                             2052.11  2055.09  2085.83  2089.37  2101.85
                             2132.63  2174.01  2177.23  2182.07  2186.14
                             2186.75  2206.10  2215.05  2224.38  2226.53
                             2234.00  2344.27  2385.94  2447.91  4293.36
                             4384.94  4386.68  4391.69  4396.55  4411.16
                             4430.51  4432.60  4469.00  4482.28  4484.41
                             4488.94  4489.63  4494.54  4497.02  4502.08
                             4507.60  4605.20  4629.03  4634.13  4656.95
                             4989.33  5107.81

 Zero-point correction=                           0.357115 (Hartree/Particle)
 Thermal correction to Energy=                    0.376726
 Thermal correction to Enthalpy=                  0.377670
 Thermal correction to Gibbs Free Energy=         0.308365
 Sum of electronic and zero-point Energies=          -1150.399267
 Sum of electronic and thermal Energies=             -1150.379656
 Sum of electronic and thermal Enthalpies=           -1150.378712
 Sum of electronic and thermal Free Energies=        -1150.448017

                     E (Thermal)             CV                S
                      KCal/Mol        Cal/Mol-Kelvin    Cal/Mol-Kelvin
 Total                  236.399             74.964            145.864
 Electronic               0.000              0.000              0.000
 Translational            0.889              2.981             42.669
 Rotational               0.889              2.981             33.778
 Vibrational            234.621             69.003             69.417
 Vibration     1          0.593              1.985              6.375
 Vibration     2          0.593              1.984              5.942
 Vibration     3          0.594              1.982              5.406
 Vibration     4          0.598              1.969              4.207
 Vibration     5          0.599              1.966              4.029
 Vibration     6          0.603              1.951              3.514
 Vibration     7          0.610              1.929              3.033
 Vibration     8          0.613              1.919              2.881
 Vibration     9          0.624              1.885              2.487
 Vibration    10          0.637              1.843              2.151
 Vibration    11          0.645              1.816              1.991
 Vibration    12          0.651              1.798              1.892
 Vibration    13          0.655              1.786              1.832
 Vibration    14          0.665              1.756              1.701
 Vibration    15          0.677              1.718              1.560
 Vibration    16          0.679              1.713              1.542
 Vibration    17          0.687              1.689              1.465
 Vibration    18          0.709              1.626              1.286
 Vibration    19          0.718              1.602              1.227
 Vibration    20          0.723              1.588              1.194
 Vibration    21          0.734              1.556              1.124
 Vibration    22          0.760              1.486              0.990
 Vibration    23          0.766              1.469              0.961
 Vibration    24          0.777              1.441              0.914
 Vibration    25          0.783              1.425              0.889
 Vibration    26          0.792              1.402              0.854
 Vibration    27          0.831              1.307              0.725
 Vibration    28          0.847              1.269              0.680
 Vibration    29          0.867              1.223              0.629
 Vibration    30          0.899              1.154              0.558
 Vibration    31          0.936              1.077              0.487
 Vibration    32          0.953              1.043              0.459

                           ! Non-Optimized Parameters !
 Normal termination of Gaussian 16 at Fri Dec 11 21:31:30 2020.

 ----------------------------------------------------------------------
 # B3LYP/6-311++G(d,p) empiricaldispersion=gd3bj scf=xqc pop=npa geom=c
 heck
 ----------------------------------------------------------------------

 --------------------------------------
 CID_28753467_JID_8565_Energie_neutraal
 --------------------------------------
 Structure from the checkpoint file:  "JID_8565.chk"
 Charge =  0 Multiplicity = 1

 SCF Done:  E(RB3LYP) =  -1150.99899277     A.U. after   15 cycles
 Normal termination of Gaussian 16 at Fri Dec 11 21:41:51 2020.

 ----------------------------------------------------------------------
 # B3LYP/6-311++G(d,p) empiricaldispersion=gd3bj scf=xqc pop=npa geom=c
 heck
 ----------------------------------------------------------------------

 ------------------------------------
 CID_28753467_JID_8565_Energie_kation
 ------------------------------------
 Structure from the checkpoint file:  "JID_8565.chk"
 Charge =  1 Multiplicity = 2

 SCF Done:  E(UB3LYP) =  -1150.67864654     A.U. after   26 cycles
 Normal termination of Gaussian 16 at Fri Dec 11 22:07:41 2020.
 Gaussian 16:  ES64L-G16RevA.03 25-Dec-2016

 ----------------------------------------------------------------------
 # B3LYP/6-311++G(d,p) empiricaldispersion=gd3bj scf=xqc pop=npa geom=c
 heck
 ----------------------------------------------------------------------

 -----------------------------------
 CID_28753467_JID_8565_Energie_anion
 -----------------------------------
 Structure from the checkpoint file:  "JID_8565.chk"
 Charge = -1 Multiplicity = 2

                         Standard orientation:
 ---------------------------------------------------------------------
 Center     Atomic      Atomic             Coordinates (Angstroms)
 Number     Number       Type             X           Y           Z
 ---------------------------------------------------------------------
      1          6           0        3.823355    1.451267   -0.715780
      2          6           0        3.694354    0.102184    0.025552
      3          6           0        4.530289   -0.971038   -0.705430
      4          6           0        4.263195    0.274380    1.443348
      5          6           0        2.220582   -0.321409    0.035677
      6          6           0        1.497612   -0.515957    1.219323
      7          6           0        0.149306   -0.874743    1.196901
      8          6           0       -0.489474   -1.043324   -0.025537
      9          6           0        0.209411   -0.891020   -1.224183
     10          6           0        1.549764   -0.526932   -1.183563
     11         16           0       -2.235638   -1.446049   -0.070309
     12          8           0       -2.435303   -2.415996   -1.161456
     13          8           0       -2.666333   -1.745354    1.306519
     14          6           0       -3.062302    0.089826   -0.609226
     15          6           0       -3.309282    1.130263    0.484038
     16          6           0       -2.077237    1.853261    1.048356
     17          6           0       -1.184783    2.524765    0.001797
     18          7           0       -1.939249    3.517518   -0.775779
     19          1           0        4.870424    1.774771   -0.733455
     20          1           0        3.233555    2.227833   -0.216295
     21          1           0        3.477342    1.380496   -1.751812
     22          1           0        5.586650   -0.679255   -0.722757
     23          1           0        4.450630   -1.938834   -0.198760
     24          1           0        4.204228   -1.106675   -1.741317
     25          1           0        3.726856    1.046408    2.005905
     26          1           0        4.222116   -0.659733    2.014033
     27          1           0        5.313223    0.578863    1.381994
     28          1           0        1.980266   -0.386626    2.180349
     29          1           0       -0.408251   -1.025137    2.115061
     30          1           0       -0.290032   -1.069154   -2.171226
     31          1           0        2.084700   -0.404934   -2.120021
     32          1           0       -2.474114    0.468300   -1.450983
     33          1           0       -4.009183   -0.287741   -1.009112
     34          1           0       -3.996555    1.874819    0.062277
     35          1           0       -3.847031    0.641145    1.302555
     36          1           0       -2.435382    2.623750    1.740635
     37          1           0       -1.470320    1.154643    1.631993
     38          1           0       -0.381821    3.056581    0.525175
     39          1           0       -0.689529    1.755739   -0.615184
     40          1           0       -1.300626    4.045411   -1.367909
     41          1           0       -2.577834    3.045145   -1.413886
 ---------------------------------------------------------------------

 SCF Done:  E(UB3LYP) =  -1150.99993808     A.U. after   32 cycles

 The electronic state is 2-A.
 Alpha  occ. eigenvalues --  -88.92294 -18.99634 -18.99227 -14.19546 -10.10130
 Alpha  occ. eigenvalues --  -10.09068 -10.08651 -10.08128 -10.06910 -10.06661
 Alpha  occ. eigenvalues --  -10.06452 -10.06414 -10.06362 -10.06215 -10.06207
 Alpha  occ. eigenvalues --  -10.06042 -10.05892 -10.05750  -7.98702  -5.95000
 Alpha  occ. eigenvalues --   -5.94874  -5.94781  -0.98528  -0.88406  -0.78502
 Alpha  occ. eigenvalues --   -0.75655  -0.72019  -0.70634  -0.64800  -0.63860
 Alpha  occ. eigenvalues --   -0.62887  -0.59371  -0.59109  -0.56850  -0.53310
 Alpha  occ. eigenvalues --   -0.49715  -0.48709  -0.46213  -0.44394  -0.41939
 Alpha  occ. eigenvalues --   -0.40048  -0.38479  -0.37637  -0.36599  -0.36032
 Alpha  occ. eigenvalues --   -0.34738  -0.34707  -0.34365  -0.33596  -0.32446
 Alpha  occ. eigenvalues --   -0.31899  -0.31412  -0.30459  -0.30174  -0.30134
 Alpha  occ. eigenvalues --   -0.28815  -0.28370  -0.27401  -0.26303  -0.25234
 Alpha  occ. eigenvalues --   -0.24987  -0.24424  -0.23691  -0.23368  -0.22638
 Alpha  occ. eigenvalues --   -0.21955  -0.21260  -0.20362  -0.18976  -0.17091
 Alpha  occ. eigenvalues --   -0.15103  -0.14583  -0.14228   0.03999
 Alpha virt. eigenvalues --    0.06134   0.06356   0.07896   0.08221   0.08727
 Alpha virt. eigenvalues --    0.08890   0.09302   0.09328   0.10555   0.10835
 Alpha virt. eigenvalues --    0.10907   0.11095   0.11633   0.12177   0.12780

  Beta  occ. eigenvalues --  -88.92290 -18.99614 -18.99190 -14.19515 -10.10111
  Beta  occ. eigenvalues --  -10.09089 -10.08638 -10.08126 -10.06688 -10.06651
  Beta  occ. eigenvalues --  -10.06411 -10.06367 -10.06321 -10.06182 -10.06124
  Beta  occ. eigenvalues --  -10.06082 -10.05911 -10.05422  -7.98696  -5.94998
  Beta  occ. eigenvalues --   -5.94856  -5.94775  -0.98422  -0.88325  -0.78449
  Beta  occ. eigenvalues --   -0.75363  -0.71852  -0.70579  -0.64554  -0.63657
  Beta  occ. eigenvalues --   -0.62703  -0.59324  -0.59037  -0.56723  -0.53023
  Beta  occ. eigenvalues --   -0.49638  -0.48582  -0.46154  -0.44216  -0.41849
  Beta  occ. eigenvalues --   -0.39990  -0.38402  -0.37537  -0.36492  -0.35932
  Beta  occ. eigenvalues --   -0.34669  -0.34609  -0.34255  -0.33499  -0.32359
  Beta  occ. eigenvalues --   -0.31821  -0.31358  -0.30415  -0.30108  -0.29992
  Beta  occ. eigenvalues --   -0.28770  -0.28333  -0.27375  -0.25843  -0.25154
  Beta  occ. eigenvalues --   -0.24876  -0.24349  -0.23552  -0.23260  -0.22492
  Beta  occ. eigenvalues --   -0.21878  -0.21170  -0.20327  -0.18877  -0.16967
  Beta  occ. eigenvalues --   -0.14790  -0.14094  -0.13092
  Beta virt. eigenvalues --    0.06135   0.06812   0.07990   0.08283   0.08449
  Beta virt. eigenvalues --    0.08837   0.08917   0.09426   0.09497   0.10567
  Beta virt. eigenvalues --    0.10764   0.10944   0.11189   0.11682   0.12129

 Mulliken charges and spin densities:
               1          2
     1  C   -0.168542  -0.453644
     2  C   -0.098439   0.614995
     3  C   -0.134443  -0.536147
     4  C   -0.542356   0.038598
     5  C    0.429866   0.171050
     6  C   -0.811130   0.186671
     7  C   -0.315587  -0.072270
     8  C    0.647535  -0.276672
     9  C   -0.272991   0.118472
    10  C   -0.706486   0.059481
    11  S    1.084644  -0.643440
    12  O   -0.162130   0.002187
    13  O   -0.177338   0.000712
    14  C   -0.430333   0.009336
    15  C   -0.870320   0.114761
    16  C    0.286837  -0.105880
    17  C    0.082242  -0.669040
    18  N   -0.432753   0.063335
    19  H    0.070162   0.061758
    20  H    0.094600   0.037931
    21  H   -0.107852   0.257337
    22  H   -0.093535   0.232073
    23  H    0.108968   0.033976
    24  H    0.078228   0.059546
    25  H    0.043911   0.089022
    26  H    0.094933   0.032094
    27  H   -0.002997   0.161231
    28  H    0.141433   0.010799
    29  H    0.159914   0.057828
    30  H   -0.007822   0.207823
    31  H    0.042287   0.105385
    32  H    0.066779   0.189525
    33  H    0.208442   0.005553
    34  H    0.104460   0.043756
    35  H    0.204406   0.006216
    36  H    0.116912   0.046492
    37  H    0.084790   0.056495
    38  H    0.073209   0.079371
    39  H    0.045703   0.202534
    40  H   -0.074543   0.319479
    41  H    0.139332   0.081269
 Sum of Mulliken charges =  -1.00000   1.00000

 Dipole moment (field-independent basis, Debye):
    X=              0.5876    Y=              0.9816    Z=              1.5164  Tot=              1.8996
 Quadrupole moment (field-independent basis, Debye-Ang):
   XX=           -173.6949   YY=           -171.7753   ZZ=           -144.2442
   XY=             -6.4482   XZ=              3.9780   YZ=              3.0392

 Summary of Natural Population Analysis:

                                       Natural Population
                Natural  -----------------------------------------------
    Atom  No    Charge         Core      Valence    Rydberg      Total
 -----------------------------------------------------------------------
      C    1   -0.27524      0.99963     2.26995    0.00566     3.27524
      C    2   -0.05581      0.99956     2.04543    0.01082     3.05581
      C    3   -0.27596      0.99963     2.27075    0.00558     3.27596
      C    4   -0.28455      0.99964     2.27925    0.00566     3.28455
      C    5    0.05190      0.99948     1.93669    0.01192     2.94810
      C    6   -0.11492      0.99951     2.10673    0.00867     3.11492
      C    7   -0.07600      0.99950     2.06687    0.00964     3.07600
      C    8   -0.11532      0.99935     2.10026    0.01572     3.11532
      C    9   -0.07873      0.99951     2.06815    0.01107     3.07873
      C   10   -0.11247      0.99952     2.10374    0.00921     3.11247
      S   11    1.03696      4.99914     1.86968    0.09422     6.96304
      O   12   -0.47498      0.99991     3.46951    0.00556     4.47498
      O   13   -0.47779      0.99991     3.47234    0.00554     4.47779
      C   14   -0.28921      0.99958     2.27690    0.01274     3.28921
      C   15   -0.20265      0.99962     2.19476    0.00828     3.20265
      C   16   -0.19697      0.99962     2.18805    0.00930     3.19697
      C   17   -0.09662      0.99963     2.08566    0.01133     3.09662
      N   18   -0.42622      0.99977     2.91629    0.01016     3.92622
      H   19    0.09286      0.00000     0.40625    0.00088     0.40714
      H   20    0.10110      0.00000     0.39785    0.00105     0.39890
      H   21    0.10091      0.00000     0.39806    0.00103     0.39909
      H   22    0.09494      0.00000     0.40406    0.00100     0.40506
      H   23    0.10031      0.00000     0.39894    0.00074     0.39969
      H   24    0.09948      0.00000     0.39970    0.00082     0.40052
      H   25    0.10096      0.00000     0.39815    0.00090     0.39904
      H   26    0.09976      0.00000     0.39940    0.00083     0.40024
      H   27    0.09743      0.00000     0.40179    0.00078     0.40257
      H   28    0.09822      0.00000     0.40038    0.00140     0.40178
      H   29    0.11041      0.00000     0.38846    0.00112     0.38959
      H   30    0.10734      0.00000     0.39161    0.00105     0.39266
      H   31    0.09757      0.00000     0.40103    0.00140     0.40243
      H   32    0.11268      0.00000     0.38588    0.00145     0.38732
      H   33    0.11251      0.00000     0.38638    0.00111     0.38749
      H   34    0.09894      0.00000     0.39979    0.00126     0.40106
      H   35    0.10882      0.00000     0.39002    0.00115     0.39118
      H   36    0.09662      0.00000     0.40229    0.00109     0.40338
      H   37    0.10746      0.00000     0.39139    0.00115     0.39254
      H   38    0.09116      0.00000     0.40773    0.00112     0.40884
      H   39    0.08895      0.00000     0.40820    0.00286     0.41105
      H   40    0.17690      0.00000     0.32125    0.00185     0.32310
      H   41    0.16926      0.00000     0.32909    0.00165     0.33074
 =======================================================================
   * Total *   -0.00000     21.99252    50.72873    0.27876    73.00000

 Normal termination of Gaussian 16 at Fri Dec 11 22:39:11 2020.
