 Gaussian 16, Revision A.03,

 -----------------------------------------------------------
 # opt freq B3LYP/6-31G(d) empiricaldispersion=gd3bj scf=xqc
 -----------------------------------------------------------

 -------------------------------
 CID_148481544_JID_3478_neutraal
 -------------------------------
 Symbolic Z-matrix:
 Charge =  0 Multiplicity = 1

 SCF Done:  E(RB3LYP) =  -534.539000921     A.U. after   17 cycles
 SCF Done:  E(RB3LYP) =  -534.597920896     A.U. after   14 cycles
 SCF Done:  E(RB3LYP) =  -534.603358765     A.U. after   13 cycles
 SCF Done:  E(RB3LYP) =  -534.601660768     A.U. after   13 cycles
 SCF Done:  E(RB3LYP) =  -534.603324108     A.U. after   12 cycles
 SCF Done:  E(RB3LYP) =  -534.603778663     A.U. after    8 cycles
 SCF Done:  E(RB3LYP) =  -534.603933581     A.U. after   12 cycles
 SCF Done:  E(RB3LYP) =  -534.604041419     A.U. after   11 cycles
 SCF Done:  E(RB3LYP) =  -534.604203082     A.U. after   12 cycles
 SCF Done:  E(RB3LYP) =  -534.604310789     A.U. after   12 cycles
 SCF Done:  E(RB3LYP) =  -534.605359579     A.U. after   12 cycles
 SCF Done:  E(RB3LYP) =  -534.605389327     A.U. after   12 cycles
 SCF Done:  E(RB3LYP) =  -534.605404505     A.U. after   11 cycles
 SCF Done:  E(RB3LYP) =  -534.605406717     A.U. after   10 cycles
 SCF Done:  E(RB3LYP) =  -534.605407186     A.U. after   10 cycles
 SCF Done:  E(RB3LYP) =  -534.605407337     A.U. after    8 cycles
 Optimization completed.
    -- Stationary point found.
 Normal termination of Gaussian 16 at Wed Dec  9 23:25:40 2020.

 --------------------------------------------------------------------
 #N Geom=AllCheck Guess=TCheck SCRF=Check GenChk RB3LYP/6-31G(d) Freq
 --------------------------------------------------------------------

 Structure from the checkpoint file:  "JID_3478.chk"
 -------------------------------
 CID_148481544_JID_3478_neutraal
 -------------------------------
 Charge =  0 Multiplicity = 1

 SCF Done:  E(RB3LYP) =  -534.605407337     A.U. after    1 cycles

  Exact polarizability: 194.259 -27.072 120.132  -3.106   2.947  81.399
 Approx polarizability: 271.004 -59.994 196.014  -6.751   5.569 134.674

                      1                      2                      3
                      A                      A                      A
 Frequencies --     28.0318                38.5977                46.1911
 Red. masses --      8.7488                 6.7647                 4.0228
 Frc consts  --      0.0041                 0.0059                 0.0051
 IR Inten    --      2.5174                 4.9593                 0.1722

                      4                      5                      6
                      A                      A                      A
 Frequencies --     83.2137                96.2224               117.0295
 Red. masses --      3.9429                 4.1691                 2.7015
 Frc consts  --      0.0161                 0.0227                 0.0218
 IR Inten    --      1.2846                 4.5747                 4.8097

                      7                      8                      9
                      A                      A                      A
 Frequencies --    146.0748               168.3760               187.6383
 Red. masses --      1.4424                 5.1603                 3.4266
 Frc consts  --      0.0181                 0.0862                 0.0711
 IR Inten    --      1.6215                 0.4868                 3.9155

                     10                     11                     12
                      A                      A                      A
 Frequencies --    290.8582               294.0774               313.3692
 Red. masses --      3.7957                 4.2013                 4.2856
 Frc consts  --      0.1892                 0.2141                 0.2480
 IR Inten    --      4.6000                 0.4272                 1.9811

                     13                     14                     15
                      A                      A                      A
 Frequencies --    354.8313               375.8474               381.3891
 Red. masses --      3.8578                 3.2399                 3.0012
 Frc consts  --      0.2862                 0.2697                 0.2572
 IR Inten    --      1.5796                 0.7385                 0.6794

                     16                     17                     18
                      A                      A                      A
 Frequencies --    413.2339               456.0994               486.2846
 Red. masses --      4.0493                 2.8818                 4.3144
 Frc consts  --      0.4074                 0.3532                 0.6011
 IR Inten    --      0.8717                 2.3790                 2.5371

                     19                     20                     21
                      A                      A                      A
 Frequencies --    502.7442               579.8513               611.7675
 Red. masses --      4.9415                 1.5065                 3.3739
 Frc consts  --      0.7359                 0.2984                 0.7440
 IR Inten    --      4.6310                40.5641                 6.0588

                     22                     23                     24
                      A                      A                      A
 Frequencies --    623.4444               648.2707               724.3331
 Red. masses --      3.6338                 1.2511                 5.4017
 Frc consts  --      0.8322                 0.3098                 1.6698
 IR Inten    --      3.5568                40.1261                 7.6010

                     25                     26                     27
                      A                      A                      A
 Frequencies --    808.1652               849.1619               897.2117
 Red. masses --      4.4024                 3.5182                 1.4580
 Frc consts  --      1.6941                 1.4947                 0.6915
 IR Inten    --      2.4776                 2.2986                13.6589

                     28                     29                     30
                      A                      A                      A
 Frequencies --    906.1752               943.9973               955.4093
 Red. masses --      1.8097                 2.9519                 2.7733
 Frc consts  --      0.8755                 1.5499                 1.4915
 IR Inten    --      2.1204                 3.5358                 1.6987

                     31                     32                     33
                      A                      A                      A
 Frequencies --    966.7489               969.7469              1045.3314
 Red. masses --      1.9860                 1.8377                 1.8233
 Frc consts  --      1.0936                 1.0182                 1.1738
 IR Inten    --      2.4914                 4.0765                21.3334

                     34                     35                     36
                      A                      A                      A
 Frequencies --   1076.2435              1159.0711              1185.0460
 Red. masses --      1.4707                 3.6647                 2.2388
 Frc consts  --      1.0037                 2.9008                 1.8524
 IR Inten    --      0.7136                 5.2903                 3.2432

                     37                     38                     39
                      A                      A                      A
 Frequencies --   1236.5841              1241.6076              1257.8761
 Red. masses --      1.2895                 1.1134                 1.8371
 Frc consts  --      1.1618                 1.0113                 1.7126
 IR Inten    --      0.4839                 6.3225                 1.8482

                     40                     41                     42
                      A                      A                      A
 Frequencies --   1341.0931              1344.3251              1373.9657
 Red. masses --      1.5071                 1.5111                 1.4028
 Frc consts  --      1.5971                 1.6090                 1.5603
 IR Inten    --     23.5886                 2.4208                 2.8970

                     43                     44                     45
                      A                      A                      A
 Frequencies --   1439.4785              1453.0027              1483.5845
 Red. masses --      1.5539                 1.3390                 1.0828
 Frc consts  --      1.8971                 1.6656                 1.4042
 IR Inten    --      3.4217                 8.4272                 7.2333

                     46                     47                     48
                      A                      A                      A
 Frequencies --   1485.6709              1509.5033              1519.4993
 Red. masses --      1.0830                 1.0452                 1.0821
 Frc consts  --      1.4084                 1.4032                 1.4720
 IR Inten    --      8.4474                11.9531                13.7258

                     49                     50                     51
                      A                      A                      A
 Frequencies --   1659.6549              1721.4113              2217.8740
 Red. masses --      7.3559                 5.7229                 6.1607
 Frc consts  --     11.9378                 9.9916                17.8549
 IR Inten    --      1.1710                29.7659                 1.9218

                     52                     53                     54
                      A                      A                      A
 Frequencies --   2371.1791              2375.6595              3030.3587
 Red. masses --     12.6011                12.6030                 1.0669
 Frc consts  --     41.7434                41.9076                 5.7726
 IR Inten    --      7.5677                 5.8114                 7.5035

                     55                     56                     57
                      A                      A                      A
 Frequencies --   3041.8134              3054.6306              3090.7544
 Red. masses --      1.0441                 1.0617                 1.0971
 Frc consts  --      5.6920                 5.8368                 6.1746
 IR Inten    --     28.0090                 5.9092                 9.7178

                     58                     59                     60
                      A                      A                      A
 Frequencies --   3103.5829              3104.4779              3159.2588
 Red. masses --      1.0936                 1.1002                 1.0967
 Frc consts  --      6.2063                 6.2475                 6.4491
 IR Inten    --      3.1892                 2.3190                12.4435

                     61                     62                     63
                      A                      A                      A
 Frequencies --   3176.4629              3198.9421              3493.9263
 Red. masses --      1.0887                 1.0879                 1.1563
 Frc consts  --      6.4719                 6.5591                 8.3168
 IR Inten    --      3.0460                16.2947                80.9842

 - Thermochemistry -
 -------------------
 Temperature   298.150 Kelvin.  Pressure   1.00000 Atm.
 Atom     1 has atomic number  6 and mass  12.00000

 Molecular mass:   170.08440 amu.
 Principal axes and moments of inertia in atomic units:
                           1         2         3
     Eigenvalues --  1187.433535831.509516199.92576
           X            0.99998  -0.00619  -0.00279
           Y            0.00633   0.99856   0.05330
           Z            0.00246  -0.05331   0.99857
 This molecule is an asymmetric top.
 Rotational symmetry number  1.
 Warning -- assumption of classical behavior for rotation
           may cause significant error
 Rotational temperatures (Kelvin)      0.07294     0.01485     0.01397
 Rotational constants (GHZ):           1.51987     0.30948     0.29109
 Zero-point vibrational energy     467837.1 (Joules/Mol)
                                  111.81576 (Kcal/Mol)
 Warning -- explicit consideration of  21 degrees of freedom as
           vibrations may cause significant error
 Vibrational temperatures:     40.33    55.53    66.46   119.73   138.44
          (Kelvin)            168.38   210.17   242.26   269.97   418.48
                              423.11   450.87   510.52   540.76   548.73
                              594.55   656.23   699.66   723.34   834.28
                              880.20   897.00   932.72  1042.15  1162.77
                             1221.75  1290.89  1303.78  1358.20  1374.62
                             1390.94  1395.25  1504.00  1548.47  1667.64
                             1705.02  1779.17  1786.40  1809.80  1929.53
                             1934.18  1976.83  2071.09  2090.55  2134.55
                             2137.55  2171.84  2186.22  2387.87  2476.73
                             3191.03  3411.60  3418.04  4360.01  4376.49
                             4394.93  4446.91  4465.36  4466.65  4545.47
                             4570.22  4602.56  5026.98

 Zero-point correction=                           0.178190 (Hartree/Particle)
 Thermal correction to Energy=                    0.192287
 Thermal correction to Enthalpy=                  0.193231
 Thermal correction to Gibbs Free Energy=         0.135398
 Sum of electronic and zero-point Energies=           -534.427218
 Sum of electronic and thermal Energies=              -534.413121
 Sum of electronic and thermal Enthalpies=            -534.412176
 Sum of electronic and thermal Free Energies=         -534.470009

                     E (Thermal)             CV                S
                      KCal/Mol        Cal/Mol-Kelvin    Cal/Mol-Kelvin
 Total                  120.662             49.568            121.719
 Electronic               0.000              0.000              0.000
 Translational            0.889              2.981             41.301
 Rotational               0.889              2.981             32.129
 Vibrational            118.884             43.607             48.289
 Vibration     1          0.593              1.984              5.964
 Vibration     2          0.594              1.981              5.330
 Vibration     3          0.595              1.979              4.974
 Vibration     4          0.600              1.961              3.814
 Vibration     5          0.603              1.952              3.529
 Vibration     6          0.608              1.935              3.149
 Vibration     7          0.617              1.907              2.723
 Vibration     8          0.625              1.881              2.454
 Vibration     9          0.632              1.857              2.251
 Vibration    10          0.687              1.691              1.469
 Vibration    11          0.689              1.685              1.450
 Vibration    12          0.701              1.648              1.344
 Vibration    13          0.731              1.565              1.145
 Vibration    14          0.747              1.522              1.056
 Vibration    15          0.751              1.510              1.034
 Vibration    16          0.777              1.441              0.915
 Vibration    17          0.814              1.347              0.778
 Vibration    18          0.842              1.280              0.693
 Vibration    19          0.858              1.244              0.651
 Vibration    20          0.936              1.075              0.486
 Vibration    21          0.971              1.007              0.430

 Optimization completed.
    -- Stationary point found.
 Normal termination of Gaussian 16 at Wed Dec  9 23:30:08 2020.

 ----------------------------------------------------------------------
 # B3LYP/6-311++G(d,p) empiricaldispersion=gd3bj scf=xqc pop=npa geom=c
 heck
 ----------------------------------------------------------------------

 ---------------------------------------
 CID_148481544_JID_3478_Energie_neutraal
 ---------------------------------------
 Structure from the checkpoint file:  "JID_3478.chk"
 Charge =  0 Multiplicity = 1

 SCF Done:  E(RB3LYP) =  -534.754730286     A.U. after   16 cycles
 Normal termination of Gaussian 16 at Wed Dec  9 23:32:18 2020.

 ----------------------------------------------------------------------
 # B3LYP/6-311++G(d,p) empiricaldispersion=gd3bj scf=xqc pop=npa geom=c
 heck
 ----------------------------------------------------------------------

 -------------------------------------
 CID_148481544_JID_3478_Energie_kation
 -------------------------------------
 Structure from the checkpoint file:  "JID_3478.chk"
 Charge =  1 Multiplicity = 2

 SCF Done:  E(UB3LYP) =  -534.442242405     A.U. after   21 cycles
 Normal termination of Gaussian 16 at Wed Dec  9 23:36:20 2020.
 Gaussian 16:  ES64L-G16RevA.03 25-Dec-2016

 ----------------------------------------------------------------------
 # B3LYP/6-311++G(d,p) empiricaldispersion=gd3bj scf=xqc pop=npa geom=c
 heck
 ----------------------------------------------------------------------

 ------------------------------------
 CID_148481544_JID_3478_Energie_anion
 ------------------------------------
 Structure from the checkpoint file:  "JID_3478.chk"
 Charge = -1 Multiplicity = 2

                         Standard orientation:
 ---------------------------------------------------------------------
 Center     Atomic      Atomic             Coordinates (Angstroms)
 Number     Number       Type             X           Y           Z
 ---------------------------------------------------------------------
      1          6           0        2.322954   -1.706231   -0.647734
      2          6           0        1.955897   -0.258593   -0.487233
      3          6           0        0.704581    0.242126   -0.425245
      4          6           0       -0.524917   -0.511905   -0.513449
      5          6           0       -1.762937    0.039488   -0.459589
      6          6           0       -3.009429   -0.828541   -0.575585
      7          6           0       -3.815724   -0.818628    0.651321
      8          7           0       -4.445687   -0.808336    1.625339
      9          6           0       -1.985905    1.434570   -0.300252
     10          6           0       -2.230634    2.612933   -0.169974
     11          6           0        3.133668    0.699529   -0.406049
     12          6           0        4.029828    0.385926    0.714959
     13          7           0        4.724514    0.106911    1.601574
     14          1           0        1.453995   -2.362757   -0.711561
     15          1           0        2.939700   -2.040291    0.195867
     16          1           0        2.925253   -1.852241   -1.554753
     17          1           0        0.583441    1.315782   -0.297806
     18          1           0       -0.463554   -1.589901   -0.630825
     19          1           0       -3.639730   -0.473945   -1.401135
     20          1           0       -2.726459   -1.862179   -0.801925
     21          1           0       -2.444023    3.649699   -0.040018
     22          1           0        3.727504    0.648480   -1.330631
     23          1           0        2.787810    1.733279   -0.302629
 ---------------------------------------------------------------------

 SCF Done:  E(UB3LYP) =  -534.782127990     A.U. after   24 cycles

 The electronic state is 2-A.
 Alpha  occ. eigenvalues --  -14.20214 -14.19306 -10.10323 -10.10187 -10.10035
 Alpha  occ. eigenvalues --  -10.09475 -10.05228 -10.04240 -10.04019 -10.03687
 Alpha  occ. eigenvalues --  -10.02959 -10.02576 -10.02264  -0.80131  -0.79211
 Alpha  occ. eigenvalues --   -0.71296  -0.69838  -0.63462  -0.61685  -0.59848
 Alpha  occ. eigenvalues --   -0.55305  -0.48034  -0.42814  -0.39580  -0.39077
 Alpha  occ. eigenvalues --   -0.38593  -0.36519  -0.36213  -0.33493  -0.31772
 Alpha  occ. eigenvalues --   -0.29832  -0.28354  -0.27629  -0.26434  -0.25785
 Alpha  occ. eigenvalues --   -0.25289  -0.23252  -0.22158  -0.21959  -0.21642
 Alpha  occ. eigenvalues --   -0.20539  -0.20466  -0.15779  -0.14556  -0.09181
 Alpha  occ. eigenvalues --    0.02929
 Alpha virt. eigenvalues --    0.07760   0.08512   0.09062   0.10025   0.10705
 Alpha virt. eigenvalues --    0.11589   0.11942   0.12718   0.13059   0.13333
 Alpha virt. eigenvalues --    0.13701   0.13900   0.14434   0.14764   0.15000

  Beta  occ. eigenvalues --  -14.20195 -14.19276 -10.10287 -10.10221 -10.10063
  Beta  occ. eigenvalues --  -10.09449 -10.05261 -10.03874 -10.03727 -10.03528
  Beta  occ. eigenvalues --  -10.02983 -10.02290 -10.02045  -0.80083  -0.79154
  Beta  occ. eigenvalues --   -0.70753  -0.69375  -0.63195  -0.61458  -0.59567
  Beta  occ. eigenvalues --   -0.55024  -0.47202  -0.42382  -0.39337  -0.38812
  Beta  occ. eigenvalues --   -0.38343  -0.36344  -0.36001  -0.33297  -0.31604
  Beta  occ. eigenvalues --   -0.29522  -0.28140  -0.27422  -0.26370  -0.25681
  Beta  occ. eigenvalues --   -0.25187  -0.23115  -0.22088  -0.21657  -0.21531
  Beta  occ. eigenvalues --   -0.20346  -0.19151  -0.14438  -0.14420  -0.06926
  Beta virt. eigenvalues --    0.07466   0.08495   0.08967   0.09183   0.10063
  Beta virt. eigenvalues --    0.10764   0.11599   0.12041   0.12755   0.13133
  Beta virt. eigenvalues --    0.13383   0.13730   0.14000   0.14500   0.14867

 Mulliken charges and spin densities:
               1          2
     1  C   -0.685650   0.010019
     2  C    1.392015   0.229167
     3  C   -1.211163   0.011518
     4  C   -0.680442   0.258393
     5  C    0.405683   0.195762
     6  C    0.088014  -0.073104
     7  C   -0.220895   0.025188
     8  N   -0.376402   0.018887
     9  C    0.732676  -0.074884
    10  C   -1.001037   0.253564
    11  C    0.080338  -0.082474
    12  C   -0.217757   0.004271
    13  N   -0.368536   0.013089
    14  H    0.133321   0.014759
    15  H    0.154368   0.008822
    16  H    0.072353   0.050961
    17  H    0.101700   0.000832
    18  H    0.020938  -0.028729
    19  H    0.106522   0.046594
    20  H    0.121664   0.016154
    21  H    0.120357  -0.007946
    22  H    0.052222   0.103970
    23  H    0.179712   0.005185
 Sum of Mulliken charges =  -1.00000   1.00000

 Dipole moment (field-independent basis, Debye):
    X=              1.2822    Y=             -0.8176    Z=             -4.5645  Tot=              4.8111
 Quadrupole moment (field-independent basis, Debye-Ang):
   XX=           -152.9007   YY=            -84.6105   ZZ=            -99.3557
   XY=              3.9853   XZ=              0.7230   YZ=              3.7134

 Summary of Natural Population Analysis:

                                       Natural Population
                Natural  -----------------------------------------------
    Atom  No    Charge         Core      Valence    Rydberg      Total
 -----------------------------------------------------------------------
      C    1   -0.30468      0.99963     2.29947    0.00558     3.30468
      C    2    0.08235      0.99951     1.90841    0.00973     2.91765
      C    3   -0.12178      0.99946     2.11290    0.00941     3.12178
      C    4   -0.03153      0.99949     2.02259    0.00945     3.03153
      C    5   -0.00849      0.99942     1.99870    0.01036     3.00849
      C    6   -0.24202      0.99953     2.23551    0.00698     3.24202
      C    7    0.16965      0.99966     1.81304    0.01765     2.83035
      N    8   -0.19762      0.99979     2.68671    0.01112     3.69762
      C    9   -0.01981      0.99939     2.01239    0.00803     3.01981
      C   10   -0.09626      0.99930     2.09235    0.00461     3.09626
      C   11   -0.25390      0.99952     2.24735    0.00702     3.25390
      C   12    0.17029      0.99966     1.81196    0.01809     2.82971
      N   13   -0.20196      0.99979     2.69103    0.01114     3.70196
      H   14    0.10237      0.00000     0.39695    0.00069     0.39763
      H   15    0.10476      0.00000     0.39429    0.00095     0.39524
      H   16    0.09740      0.00000     0.40111    0.00148     0.40260
      H   17    0.09757      0.00000     0.40120    0.00123     0.40243
      H   18    0.08369      0.00000     0.41538    0.00093     0.41631
      H   19    0.11700      0.00000     0.38122    0.00178     0.38300
      H   20    0.11530      0.00000     0.38352    0.00118     0.38470
      H   21    0.10122      0.00000     0.39781    0.00097     0.39878
      H   22    0.11675      0.00000     0.38149    0.00176     0.38325
      H   23    0.11969      0.00000     0.37926    0.00105     0.38031
 =======================================================================
   * Total *    0.00000     12.99414    31.86465    0.14121    45.00000

 Normal termination of Gaussian 16 at Wed Dec  9 23:40:49 2020.
