 Gaussian 16, Revision A.03,

 -----------------------------------------------------------
 # opt freq B3LYP/6-31G(d) empiricaldispersion=gd3bj scf=xqc
 -----------------------------------------------------------

 -------------------------------
 CID_117227334_JID_3808_neutraal
 -------------------------------
 Symbolic Z-matrix:
 Charge =  0 Multiplicity = 1

 SCF Done:  E(RB3LYP) =  -577.870129308     A.U. after   13 cycles
 SCF Done:  E(RB3LYP) =  -577.874514088     A.U. after   11 cycles
 SCF Done:  E(RB3LYP) =  -577.875144042     A.U. after   11 cycles
 SCF Done:  E(RB3LYP) =  -577.875532047     A.U. after   11 cycles
 SCF Done:  E(RB3LYP) =  -577.874673074     A.U. after   11 cycles
 SCF Done:  E(RB3LYP) =  -577.875668519     A.U. after   10 cycles
 SCF Done:  E(RB3LYP) =  -577.875687470     A.U. after   10 cycles
 SCF Done:  E(RB3LYP) =  -577.875702641     A.U. after   10 cycles
 SCF Done:  E(RB3LYP) =  -577.875713499     A.U. after    9 cycles
 SCF Done:  E(RB3LYP) =  -577.875725073     A.U. after    9 cycles
 SCF Done:  E(RB3LYP) =  -577.875730391     A.U. after    9 cycles
 SCF Done:  E(RB3LYP) =  -577.875731551     A.U. after    8 cycles
 Optimization completed.
    -- Stationary point found.
 Normal termination of Gaussian 16 at Mon Dec 14 13:09:58 2020.

 --------------------------------------------------------------------
 #N Geom=AllCheck Guess=TCheck SCRF=Check GenChk RB3LYP/6-31G(d) Freq
 --------------------------------------------------------------------

 Structure from the checkpoint file:  "JID_3808.chk"
 -------------------------------
 CID_117227334_JID_3808_neutraal
 -------------------------------
 Charge =  0 Multiplicity = 1

 SCF Done:  E(RB3LYP) =  -577.875731551     A.U. after    1 cycles

  Exact polarizability: 140.872  -1.739 110.330  -0.021  -1.518 104.512
 Approx polarizability: 167.116  -0.699 160.567  -2.320  -2.224 158.311

                      1                      2                      3
                      A                      A                      A
 Frequencies --     50.5237                76.9491                81.0764
 Red. masses --      2.7784                 3.4080                 3.1011
 Frc consts  --      0.0042                 0.0119                 0.0120
 IR Inten    --      1.4656                 0.9466                 2.2638

                      4                      5                      6
                      A                      A                      A
 Frequencies --    110.3347               189.9625               220.3921
 Red. masses --      3.4496                 2.5568                 2.6114
 Frc consts  --      0.0247                 0.0544                 0.0747
 IR Inten    --      0.4347                 0.2029                 0.1798

                      7                      8                      9
                      A                      A                      A
 Frequencies --    253.2501               256.2059               279.5776
 Red. masses --      2.9008                 2.1087                 1.1921
 Frc consts  --      0.1096                 0.0816                 0.0549
 IR Inten    --      1.0521                 1.2623                 0.1650

                     10                     11                     12
                      A                      A                      A
 Frequencies --    306.5020               346.1228               359.7378
 Red. masses --      2.3584                 1.8607                 2.2669
 Frc consts  --      0.1305                 0.1313                 0.1728
 IR Inten    --      3.0014                 1.1047                 1.3574

                     13                     14                     15
                      A                      A                      A
 Frequencies --    374.0056               454.2535               456.3523
 Red. masses --      2.5972                 2.6700                 2.9724
 Frc consts  --      0.2140                 0.3246                 0.3647
 IR Inten    --      6.6444                 0.7407                 8.7662

                     16                     17                     18
                      A                      A                      A
 Frequencies --    498.3266               550.8112               618.2929
 Red. masses --      2.6887                 1.7290                 2.9993
 Frc consts  --      0.3934                 0.3091                 0.6755
 IR Inten    --      6.2284                21.6344                 5.2423

                     19                     20                     21
                      A                      A                      A
 Frequencies --    646.5781               702.6551               760.1658
 Red. masses --      2.0557                 3.7097                 1.9650
 Frc consts  --      0.5063                 1.0791                 0.6690
 IR Inten    --      3.3694                10.9894                73.6942

                     22                     23                     24
                      A                      A                      A
 Frequencies --    767.1555               799.3157               835.3162
 Red. masses --      2.6940                 2.6123                 2.0380
 Frc consts  --      0.9341                 0.9834                 0.8378
 IR Inten    --     47.9554                17.2349                36.0986

                     25                     26                     27
                      A                      A                      A
 Frequencies --    850.8201               867.6003               878.1722
 Red. masses --      1.7947                 2.0447                 1.7161
 Frc consts  --      0.7655                 0.9068                 0.7797
 IR Inten    --     50.8522                 3.8052                30.3584

                     28                     29                     30
                      A                      A                      A
 Frequencies --    894.7831               908.3051               943.1013
 Red. masses --      2.0138                 1.7139                 2.1559
 Frc consts  --      0.9500                 0.8331                 1.1298
 IR Inten    --     10.4665                 4.4760                 6.5071

                     31                     32                     33
                      A                      A                      A
 Frequencies --    954.8562               956.8624               978.6005
 Red. masses --      1.7022                 1.8535                 1.7878
 Frc consts  --      0.9144                 0.9998                 1.0088
 IR Inten    --      3.1355                 5.1090                 3.6704

                     34                     35                     36
                      A                      A                      A
 Frequencies --   1008.5932              1067.9269              1074.6681
 Red. masses --      2.0399                 2.0911                 2.2091
 Frc consts  --      1.2226                 1.4051                 1.5032
 IR Inten    --      2.3280                 8.7910                55.8367

                     37                     38                     39
                      A                      A                      A
 Frequencies --   1077.6025              1079.5180              1101.4020
 Red. masses --      1.7345                 4.0511                 1.7991
 Frc consts  --      1.1867                 2.7815                 1.2859
 IR Inten    --      3.3488                47.8232                11.2293

                     40                     41                     42
                      A                      A                      A
 Frequencies --   1113.7176              1143.9438              1157.7541
 Red. masses --      2.0624                 1.9287                 2.7106
 Frc consts  --      1.5072                 1.4870                 2.1407
 IR Inten    --      5.2805                60.7482                17.5640

                     43                     44                     45
                      A                      A                      A
 Frequencies --   1161.7937              1188.3145              1217.4376
 Red. masses --      2.0031                 1.3935                 1.5255
 Frc consts  --      1.5930                 1.1594                 1.3322
 IR Inten    --     27.1109                 6.4838                34.3255

                     46                     47                     48
                      A                      A                      A
 Frequencies --   1221.5067              1242.3072              1245.9738
 Red. masses --      1.8358                 1.4326                 1.5887
 Frc consts  --      1.6138                 1.3026                 1.4531
 IR Inten    --     10.2082                 7.9449                17.9458

                     49                     50                     51
                      A                      A                      A
 Frequencies --   1286.3987              1296.5415              1305.6228
 Red. masses --      1.3753                 1.3329                 1.2898
 Frc consts  --      1.3409                 1.3201                 1.2954
 IR Inten    --     12.3590                18.8204                 5.0029

                     52                     53                     54
                      A                      A                      A
 Frequencies --   1330.9117              1358.9043              1365.8001
 Red. masses --      1.4305                 1.2840                 1.3308
 Frc consts  --      1.4930                 1.3970                 1.4626
 IR Inten    --      3.5798                 3.6820                 1.2416

                     55                     56                     57
                      A                      A                      A
 Frequencies --   1376.5481              1384.1840              1389.0427
 Red. masses --      1.3564                 1.3434                 1.3767
 Frc consts  --      1.5143                 1.5165                 1.5651
 IR Inten    --     23.5822                38.0519                 2.5565

                     58                     59                     60
                      A                      A                      A
 Frequencies --   1397.2284              1400.9202              1413.0531
 Red. masses --      1.4252                 1.4403                 1.4012
 Frc consts  --      1.6394                 1.6655                 1.6484
 IR Inten    --     10.3031                 2.9250                 4.5283

                     61                     62                     63
                      A                      A                      A
 Frequencies --   1430.4332              1441.1960              1495.6287
 Red. masses --      1.3772                 1.4334                 1.2360
 Frc consts  --      1.6603                 1.7542                 1.6289
 IR Inten    --     12.3428                14.3865                14.1363

                     64                     65                     66
                      A                      A                      A
 Frequencies --   1502.8026              1504.0025              1512.2007
 Red. masses --      1.1089                 1.0843                 1.0868
 Frc consts  --      1.4755                 1.4451                 1.4643
 IR Inten    --      7.3400                 0.7294                 4.5378

                     67                     68                     69
                      A                      A                      A
 Frequencies --   1515.9857              1519.9112              1524.0473
 Red. masses --      1.0904                 1.2136                 1.1511
 Frc consts  --      1.4764                 1.6519                 1.5753
 IR Inten    --      3.3170                 8.9089                12.7746

                     70                     71                     72
                      A                      A                      A
 Frequencies --   1531.8137              1533.4136              1546.7016
 Red. masses --      1.0919                 1.1070                 1.0573
 Frc consts  --      1.5095                 1.5336                 1.4903
 IR Inten    --      4.4956                 1.1075                 7.3115

                     73                     74                     75
                      A                      A                      A
 Frequencies --   1557.4725              2874.4471              2905.2289
 Red. masses --      1.0933                 1.0812                 1.0733
 Frc consts  --      1.5626                 5.2632                 5.3372
 IR Inten    --      1.9297                61.7083               123.3595

                     76                     77                     78
                      A                      A                      A
 Frequencies --   3004.2226              3021.9810              3042.6136
 Red. masses --      1.0703                 1.0664                 1.0613
 Frc consts  --      5.6916                 5.7381                 5.7887
 IR Inten    --     89.0488                32.4778                22.9768

                     79                     80                     81
                      A                      A                      A
 Frequencies --   3044.5049              3052.4726              3060.7607
 Red. masses --      1.0619                 1.0406                 1.0622
 Frc consts  --      5.7992                 5.7125                 5.8627
 IR Inten    --     24.0299                26.5883                15.2056

                     82                     83                     84
                      A                      A                      A
 Frequencies --   3069.8082              3072.4512              3079.5145
 Red. masses --      1.0715                 1.0932                 1.0873
 Frc consts  --      5.9492                 6.0804                 6.0754
 IR Inten    --     32.3336                64.7698                54.6745

                     85                     86                     87
                      A                      A                      A
 Frequencies --   3084.6483              3086.0390              3093.5160
 Red. masses --      1.0878                 1.1047                 1.1029
 Frc consts  --      6.0984                 6.1988                 6.2183
 IR Inten    --     56.8127                19.7737                88.2570

                     88                     89                     90
                      A                      A                      A
 Frequencies --   3101.1799              3120.2279              3129.7326
 Red. masses --      1.1017                 1.1010                 1.1041
 Frc consts  --      6.2424                 6.3153                 6.3720
 IR Inten    --     28.1822                29.8887                33.7469

                     91                     92                     93
                      A                      A                      A
 Frequencies --   3173.1597              3473.6217              3540.8791
 Red. masses --      1.0999                 1.0743                 1.0754
 Frc consts  --      6.5249                 7.6373                 7.9439
 IR Inten    --      0.8558                 1.2885                16.4003

 - Thermochemistry -
 -------------------
 Temperature   298.150 Kelvin.  Pressure   1.00000 Atm.
 Atom     1 has atomic number  6 and mass  12.00000

 Molecular mass:   184.15756 amu.
 Principal axes and moments of inertia in atomic units:
                           1         2         3
     Eigenvalues --   995.061594007.515524318.31257
           X            1.00000  -0.00242   0.00047
           Y            0.00244   0.99954  -0.03038
           Z           -0.00039   0.03038   0.99954
 This molecule is an asymmetric top.
 Rotational symmetry number  1.
 Warning -- assumption of classical behavior for rotation
           may cause significant error
 Rotational temperatures (Kelvin)      0.08704     0.02161     0.02006
 Rotational constants (GHZ):           1.81370     0.45034     0.41793
 Zero-point vibrational energy     797198.6 (Joules/Mol)
                                  190.53504 (Kcal/Mol)
 Warning -- explicit consideration of  18 degrees of freedom as
           vibrations may cause significant error
 Vibrational temperatures:     72.69   110.71   116.65   158.75   273.31
          (Kelvin)            317.10   364.37   368.62   402.25   440.99
                              497.99   517.58   538.11   653.57   656.59
                              716.98   792.49   889.59   930.28  1010.96
                             1093.71  1103.77  1150.04  1201.83  1224.14
                             1248.28  1263.49  1287.39  1306.85  1356.91
                             1373.83  1376.71  1407.99  1451.14  1536.51
                             1546.21  1550.43  1553.19  1584.67  1602.39
                             1645.88  1665.75  1671.56  1709.72  1751.62
                             1757.48  1787.40  1792.68  1850.84  1865.43
                             1878.50  1914.89  1955.16  1965.08  1980.55
                             1991.53  1998.52  2010.30  2015.61  2033.07
                             2058.07  2073.56  2151.88  2162.20  2163.92
                             2175.72  2181.17  2186.81  2192.76  2203.94
                             2206.24  2225.36  2240.86  4135.69  4179.98
                             4322.41  4347.96  4377.64  4380.36  4391.83
                             4403.75  4416.77  4420.57  4430.73  4438.12
                             4440.12  4450.88  4461.91  4489.31  4502.99
                             4565.47  4997.77  5094.54

 Zero-point correction=                           0.303637 (Hartree/Particle)
 Thermal correction to Energy=                    0.316169
 Thermal correction to Enthalpy=                  0.317113
 Thermal correction to Gibbs Free Energy=         0.264998
 Sum of electronic and zero-point Energies=           -577.572095
 Sum of electronic and thermal Energies=              -577.559563
 Sum of electronic and thermal Enthalpies=            -577.558619
 Sum of electronic and thermal Free Energies=         -577.610733

                     E (Thermal)             CV                S
                      KCal/Mol        Cal/Mol-Kelvin    Cal/Mol-Kelvin
 Total                  198.399             50.088            109.684
 Electronic               0.000              0.000              0.000
 Translational            0.889              2.981             41.538
 Rotational               0.889              2.981             31.221
 Vibrational            196.621             44.127             36.925
 Vibration     1          0.595              1.977              4.797
 Vibration     2          0.599              1.965              3.967
 Vibration     3          0.600              1.962              3.865
 Vibration     4          0.606              1.941              3.263
 Vibration     5          0.633              1.854              2.228
 Vibration     6          0.647              1.810              1.956
 Vibration     7          0.664              1.757              1.708
 Vibration     8          0.666              1.752              1.687
 Vibration     9          0.680              1.711              1.536
 Vibration    10          0.697              1.661              1.381
 Vibration    11          0.724              1.583              1.184
 Vibration    12          0.734              1.555              1.123
 Vibration    13          0.745              1.525              1.063
 Vibration    14          0.813              1.351              0.783
 Vibration    15          0.815              1.347              0.777
 Vibration    16          0.854              1.254              0.662
 Vibration    17          0.906              1.138              0.542
 Vibration    18          0.978              0.993              0.419

                           ! Non-Optimized Parameters !
 Normal termination of Gaussian 16 at Mon Dec 14 13:18:58 2020.

 ----------------------------------------------------------------------
 # B3LYP/6-311++G(d,p) empiricaldispersion=gd3bj scf=xqc pop=npa geom=c
 heck
 ----------------------------------------------------------------------

 ---------------------------------------
 CID_117227334_JID_3808_Energie_neutraal
 ---------------------------------------
 Structure from the checkpoint file:  "JID_3808.chk"
 Charge =  0 Multiplicity = 1

 SCF Done:  E(RB3LYP) =  -578.041853745     A.U. after   15 cycles
 Normal termination of Gaussian 16 at Mon Dec 14 13:22:45 2020.

 ----------------------------------------------------------------------
 # B3LYP/6-311++G(d,p) empiricaldispersion=gd3bj scf=xqc pop=npa geom=c
 heck
 ----------------------------------------------------------------------

 -------------------------------------
 CID_117227334_JID_3808_Energie_kation
 -------------------------------------
 Structure from the checkpoint file:  "JID_3808.chk"
 Charge =  1 Multiplicity = 2

 SCF Done:  E(UB3LYP) =  -577.751959622     A.U. after   23 cycles
 Normal termination of Gaussian 16 at Mon Dec 14 13:30:35 2020.
 Gaussian 16:  ES64L-G16RevA.03 25-Dec-2016

 ----------------------------------------------------------------------
 # B3LYP/6-311++G(d,p) empiricaldispersion=gd3bj scf=xqc pop=npa geom=c
 heck
 ----------------------------------------------------------------------

 ------------------------------------
 CID_117227334_JID_3808_Energie_anion
 ------------------------------------
 Structure from the checkpoint file:  "JID_3808.chk"
 Charge = -1 Multiplicity = 2

                         Standard orientation:
 ---------------------------------------------------------------------
 Center     Atomic      Atomic             Coordinates (Angstroms)
 Number     Number       Type             X           Y           Z
 ---------------------------------------------------------------------
      1          6           0       -0.893772   -0.850882    1.667662
      2          6           0       -1.415714   -0.424571    0.302938
      3          7           0       -2.716335   -1.039002    0.019372
      4          6           0       -3.472263   -0.011453   -0.706433
      5          6           0       -2.978559    1.302523   -0.082744
      6          8           0       -1.642627    1.025151    0.323648
      7          6           0       -0.459477   -0.739973   -0.864445
      8          6           0        1.004945   -0.247461   -0.778354
      9          6           0        1.978199   -1.320368   -0.263108
     10          6           0        3.418010   -0.787713   -0.264028
     11          6           0        3.517206    0.543452    0.493380
     12          6           0        2.477257    1.536030   -0.034196
     13          7           0        1.151773    0.939774    0.063076
     14          1           0        0.031934   -0.314630    1.879522
     15          1           0       -0.706020   -1.929569    1.687549
     16          1           0       -1.630983   -0.604112    2.440685
     17          1           0       -3.183572   -1.208249    0.909680
     18          1           0       -4.548276   -0.172585   -0.600668
     19          1           0       -3.226618   -0.056806   -1.772865
     20          1           0       -3.588808    1.580860    0.790459
     21          1           0       -2.974317    2.145912   -0.782530
     22          1           0       -0.457046   -1.826970   -0.999983
     23          1           0       -0.922535   -0.320531   -1.764342
     24          1           0        1.321605   -0.027739   -1.820119
     25          1           0        1.903760   -2.215130   -0.894423
     26          1           0        1.688013   -1.611042    0.753713
     27          1           0        4.103201   -1.528853    0.165499
     28          1           0        3.736767   -0.630407   -1.305092
     29          1           0        3.325828    0.375507    1.560894
     30          1           0        4.525256    0.966173    0.399155
     31          1           0        2.489945    2.456886    0.559824
     32          1           0        2.742912    1.812232   -1.075880
     33          1           0        0.406904    1.604940   -0.121423
 ---------------------------------------------------------------------

 SCF Done:  E(UB3LYP) =  -578.025214579     A.U. after   29 cycles

 The electronic state is 2-A.
 Alpha  occ. eigenvalues --  -19.01408 -14.20127 -14.18675 -10.14943 -10.10751
 Alpha  occ. eigenvalues --  -10.09663 -10.09100 -10.09054 -10.06867 -10.06660
 Alpha  occ. eigenvalues --  -10.06373 -10.06268 -10.05516  -0.93991  -0.81103
 Alpha  occ. eigenvalues --   -0.79478  -0.69356  -0.68656  -0.65724  -0.59705
 Alpha  occ. eigenvalues --   -0.59004  -0.53588  -0.51653  -0.50891  -0.46325
 Alpha  occ. eigenvalues --   -0.45191  -0.41509  -0.39678  -0.37961  -0.36520
 Alpha  occ. eigenvalues --   -0.35514  -0.34686  -0.33728  -0.33031  -0.31710
 Alpha  occ. eigenvalues --   -0.31167  -0.30955  -0.29184  -0.27920  -0.27699
 Alpha  occ. eigenvalues --   -0.26809  -0.26069  -0.25333  -0.23573  -0.22805
 Alpha  occ. eigenvalues --   -0.22402  -0.21573  -0.20909  -0.15246  -0.14781
 Alpha  occ. eigenvalues --   -0.12117   0.04574
 Alpha virt. eigenvalues --    0.06040   0.07166   0.07572   0.08359   0.08544
 Alpha virt. eigenvalues --    0.09126   0.09936   0.10372   0.10638   0.11061
 Alpha virt. eigenvalues --    0.11566   0.11917   0.13031   0.13194   0.13460

  Beta  occ. eigenvalues --  -19.01407 -14.20110 -14.18665 -10.14944 -10.10718
  Beta  occ. eigenvalues --  -10.09657 -10.09066 -10.09041 -10.06852 -10.06649
  Beta  occ. eigenvalues --  -10.06365 -10.06255 -10.05501  -0.93982  -0.81089
  Beta  occ. eigenvalues --   -0.79445  -0.69329  -0.68632  -0.65695  -0.59672
  Beta  occ. eigenvalues --   -0.58954  -0.53548  -0.51593  -0.50840  -0.46284
  Beta  occ. eigenvalues --   -0.45159  -0.41462  -0.39633  -0.37928  -0.36478
  Beta  occ. eigenvalues --   -0.35485  -0.34655  -0.33696  -0.32987  -0.31683
  Beta  occ. eigenvalues --   -0.31141  -0.30921  -0.29154  -0.27888  -0.27673
  Beta  occ. eigenvalues --   -0.26783  -0.26039  -0.25302  -0.23546  -0.22777
  Beta  occ. eigenvalues --   -0.22377  -0.21547  -0.20882  -0.15230  -0.14753
  Beta  occ. eigenvalues --   -0.12076
  Beta virt. eigenvalues --    0.06512   0.07420   0.07666   0.07913   0.08950
  Beta virt. eigenvalues --    0.09169   0.09548   0.10242   0.10625   0.11009
  Beta virt. eigenvalues --    0.11519   0.11821   0.12236   0.13206   0.13305

 Mulliken charges and spin densities:
               1          2
     1  C    0.343443  -0.994746
     2  C   -2.404520   1.040520
     3  N    0.024663   0.100145
     4  C    0.399265  -0.590447
     5  C    1.019208  -1.027079
     6  O   -0.065972   0.039974
     7  C    1.875426  -1.691103
     8  C   -0.417375   0.353319
     9  C   -0.384527   0.088895
    10  C   -0.013814  -0.336252
    11  C    0.001736  -0.396925
    12  C    0.377371  -0.574933
    13  N   -0.086203   0.055422
    14  H    0.227733  -0.022631
    15  H   -0.019267   0.173450
    16  H   -0.173028   0.314407
    17  H   -0.036098   0.291193
    18  H   -1.051867   1.244810
    19  H    0.106175   0.038848
    20  H   -0.148522   0.277063
    21  H   -0.419751   0.569731
    22  H    0.093462   0.124248
    23  H    0.041655   0.117332
    24  H   -0.098731   0.240332
    25  H    0.075222   0.059927
    26  H    0.126155   0.000033
    27  H   -0.431956   0.597024
    28  H    0.115603   0.000023
    29  H    0.183467  -0.069176
    30  H   -0.270785   0.434712
    31  H   -0.062446   0.220526
    32  H   -0.111509   0.215104
    33  H    0.185787   0.106256
 Sum of Mulliken charges =  -1.00000   1.00000

 Dipole moment (field-independent basis, Debye):
    X=              4.5723    Y=             -0.9080    Z=              0.0564  Tot=              4.6620
 Quadrupole moment (field-independent basis, Debye-Ang):
   XX=           -181.4259   YY=           -118.2976   ZZ=           -112.9072
   XY=              1.3110   XZ=              1.7793   YZ=              1.5339

 Summary of Natural Population Analysis:

                                       Natural Population
                Natural  -----------------------------------------------
    Atom  No    Charge         Core      Valence    Rydberg      Total
 -----------------------------------------------------------------------
      C    1   -0.30368      0.99958     2.29682    0.00728     3.30368
      C    2    0.23238      0.99957     1.74926    0.01879     2.76762
      N    3   -0.34089      0.99972     2.82855    0.01262     3.84089
      C    4   -0.10410      0.99964     2.09383    0.01063     3.10410
      C    5   -0.01636      0.99958     2.00428    0.01250     3.01636
      O    6   -0.32456      0.99988     3.31492    0.00976     4.32456
      C    7   -0.20360      0.99953     2.19240    0.01168     3.20360
      C    8   -0.00451      0.99959     1.99282    0.01210     3.00451
      C    9   -0.19136      0.99961     2.18324    0.00851     3.19136
      C   10   -0.19034      0.99963     2.18210    0.00861     3.19034
      C   11   -0.19375      0.99963     2.18558    0.00854     3.19375
      C   12   -0.08362      0.99963     2.07310    0.01090     3.08362
      N   13   -0.35223      0.99971     2.84148    0.01104     3.85223
      H   14    0.11856      0.00000     0.37982    0.00162     0.38144
      H   15    0.09998      0.00000     0.39913    0.00089     0.40002
      H   16    0.10053      0.00000     0.39817    0.00130     0.39947
      H   17    0.17535      0.00000     0.32119    0.00346     0.32465
      H   18    0.10387      0.00000     0.39273    0.00340     0.39613
      H   19    0.08996      0.00000     0.40855    0.00148     0.41004
      H   20    0.08026      0.00000     0.41740    0.00234     0.41974
      H   21    0.08768      0.00000     0.41049    0.00182     0.41232
      H   22    0.10557      0.00000     0.39313    0.00129     0.39443
      H   23    0.10307      0.00000     0.39554    0.00139     0.39693
      H   24    0.07671      0.00000     0.42110    0.00219     0.42329
      H   25    0.09650      0.00000     0.40260    0.00090     0.40350
      H   26    0.09709      0.00000     0.40149    0.00143     0.40291
      H   27    0.09771      0.00000     0.40124    0.00106     0.40229
      H   28    0.09207      0.00000     0.40629    0.00164     0.40793
      H   29    0.09484      0.00000     0.40382    0.00134     0.40516
      H   30    0.09704      0.00000     0.40184    0.00112     0.40296
      H   31    0.09441      0.00000     0.40474    0.00085     0.40559
      H   32    0.07454      0.00000     0.42386    0.00161     0.42546
      H   33    0.19088      0.00000     0.30616    0.00296     0.30912
 =======================================================================
   * Total *    0.00000     12.99529    37.82767    0.17704    51.00000

 Normal termination of Gaussian 16 at Mon Dec 14 13:40:17 2020.
