 Gaussian 16, Revision A.03,

 -----------------------------------------------------------
 # opt freq B3LYP/6-31G(d) empiricaldispersion=gd3bj scf=xqc
 -----------------------------------------------------------

 ------------------------------
 CID_65897597_JID_9375_neutraal
 ------------------------------
 Symbolic Z-matrix:
 Charge =  0 Multiplicity = 1

 SCF Done:  E(RB3LYP) =  -896.825256784     A.U. after   15 cycles
 SCF Done:  E(RB3LYP) =  -896.794610800     A.U. after   14 cycles
 SCF Done:  E(RB3LYP) =  -896.830977299     A.U. after   12 cycles
 SCF Done:  E(RB3LYP) =  -896.831653058     A.U. after   12 cycles
 SCF Done:  E(RB3LYP) =  -896.832464146     A.U. after   12 cycles
 SCF Done:  E(RB3LYP) =  -896.832685216     A.U. after   12 cycles
 SCF Done:  E(RB3LYP) =  -896.833083130     A.U. after   12 cycles
 SCF Done:  E(RB3LYP) =  -896.833499056     A.U. after   13 cycles
 SCF Done:  E(RB3LYP) =  -896.833821222     A.U. after   12 cycles
 SCF Done:  E(RB3LYP) =  -896.834431845     A.U. after   13 cycles
 SCF Done:  E(RB3LYP) =  -896.837305984     A.U. after    8 cycles
 SCF Done:  E(RB3LYP) =  -896.837306246     A.U. after    8 cycles
 SCF Done:  E(RB3LYP) =  -896.837306349     A.U. after    7 cycles
 SCF Done:  E(RB3LYP) =  -896.837306405     A.U. after    6 cycles
 Optimization completed.
    -- Stationary point found.
 Normal termination of Gaussian 16 at Sat Dec 12 10:06:25 2020.

 --------------------------------------------------------------------
 #N Geom=AllCheck Guess=TCheck SCRF=Check GenChk RB3LYP/6-31G(d) Freq
 --------------------------------------------------------------------

 Structure from the checkpoint file:  "JID_9375.chk"
 ------------------------------
 CID_65897597_JID_9375_neutraal
 ------------------------------
 Charge =  0 Multiplicity = 1

 SCF Done:  E(RB3LYP) =  -896.837306405     A.U. after    1 cycles

  Exact polarizability: 160.460 -11.685 157.602  -6.921  -5.783 129.738
 Approx polarizability: 222.202 -21.883 240.090  -9.215 -21.475 220.235

                      1                      2                      3
                      A                      A                      A
 Frequencies --     28.4341                36.8331                53.6321
 Red. masses --      4.7211                 3.6997                 4.9613
 Frc consts  --      0.0022                 0.0030                 0.0084
 IR Inten    --      0.2945                 0.4289                 0.9406

                      4                      5                      6
                      A                      A                      A
 Frequencies --     56.6001                65.9464                72.8498
 Red. masses --      4.8247                 5.1354                 5.0450
 Frc consts  --      0.0091                 0.0132                 0.0158
 IR Inten    --      0.1602                 0.2715                 2.1571

                      7                      8                      9
                      A                      A                      A
 Frequencies --     80.7159               101.3738               134.7032
 Red. masses --      6.5368                 4.8474                 4.3311
 Frc consts  --      0.0251                 0.0293                 0.0463
 IR Inten    --      0.7491                 4.3024                 0.9380

                     10                     11                     12
                      A                      A                      A
 Frequencies --    162.9355               177.7513               215.6923
 Red. masses --      2.4862                 4.8750                 5.3017
 Frc consts  --      0.0389                 0.0908                 0.1453
 IR Inten    --      0.4525                 6.2268                 2.6371

                     13                     14                     15
                      A                      A                      A
 Frequencies --    228.5814               291.2374               324.4501
 Red. masses --      4.0744                 3.1183                 2.5766
 Frc consts  --      0.1254                 0.1558                 0.1598
 IR Inten    --      1.6036                 0.7743                 0.4741

                     16                     17                     18
                      A                      A                      A
 Frequencies --    355.9840               376.4571               403.4479
 Red. masses --      4.0008                 2.3237                 3.2489
 Frc consts  --      0.2987                 0.1940                 0.3116
 IR Inten    --      0.6541                 3.9192                10.0521

                     19                     20                     21
                      A                      A                      A
 Frequencies --    436.2257               460.9053               507.2718
 Red. masses --      5.3201                 2.2971                 3.1491
 Frc consts  --      0.5965                 0.2875                 0.4774
 IR Inten    --      2.4555                 5.4657                 6.5482

                     22                     23                     24
                      A                      A                      A
 Frequencies --    559.0882               572.5615               597.9851
 Red. masses --      2.8384                 3.0673                 2.8904
 Frc consts  --      0.5227                 0.5925                 0.6090
 IR Inten    --     22.6321                15.9574                38.1552

                     25                     26                     27
                      A                      A                      A
 Frequencies --    632.5411               649.2322               655.6804
 Red. masses --      3.6964                 2.2120                 1.6232
 Frc consts  --      0.8714                 0.5493                 0.4111
 IR Inten    --     15.4962                 3.5816                42.5083

                     28                     29                     30
                      A                      A                      A
 Frequencies --    672.9141               682.7506               700.2081
 Red. masses --      4.3022                 3.9734                 2.5355
 Frc consts  --      1.1478                 1.0913                 0.7324
 IR Inten    --      9.9789                17.5573                 3.9986

                     31                     32                     33
                      A                      A                      A
 Frequencies --    752.0886               754.9700               774.3950
 Red. masses --      2.1426                 1.3444                 1.4974
 Frc consts  --      0.7140                 0.4515                 0.5291
 IR Inten    --     66.1916                54.4015               118.3327

                     34                     35                     36
                      A                      A                      A
 Frequencies --    782.4245               792.8418               822.8019
 Red. masses --      3.1041                 2.0790                 2.1946
 Frc consts  --      1.1196                 0.7700                 0.8754
 IR Inten    --      4.1378                13.0161                 6.4092

                     37                     38                     39
                      A                      A                      A
 Frequencies --    824.1894               881.4532               891.8729
 Red. masses --      1.2582                 1.2779                 3.3200
 Frc consts  --      0.5036                 0.5850                 1.5559
 IR Inten    --      3.1151                 6.6891                 4.0573

                     40                     41                     42
                      A                      A                      A
 Frequencies --    906.1855               919.3167               944.1472
 Red. masses --      1.8714                 2.1816                 5.4692
 Frc consts  --      0.9054                 1.0863                 2.8725
 IR Inten    --      9.2655                 2.8506                 1.8381

                     43                     44                     45
                      A                      A                      A
 Frequencies --    952.4768               967.8533               983.2201
 Red. masses --      2.6180                 1.8000                 2.4267
 Frc consts  --      1.3994                 0.9934                 1.3822
 IR Inten    --     13.6034                 3.9114                 1.1072

                     46                     47                     48
                      A                      A                      A
 Frequencies --    997.0481              1003.9765              1042.9287
 Red. masses --      1.9756                 2.0172                 2.1273
 Frc consts  --      1.1571                 1.1980                 1.3633
 IR Inten    --      5.4760                 3.6440                11.6719

                     49                     50                     51
                      A                      A                      A
 Frequencies --   1061.2778              1073.8334              1082.4116
 Red. masses --      2.4298                 1.9631                 1.7451
 Frc consts  --      1.6124                 1.3337                 1.2047
 IR Inten    --      3.7963                 4.7476                 9.0040

                     52                     53                     54
                      A                      A                      A
 Frequencies --   1088.3821              1120.0334              1129.7391
 Red. masses --      2.2166                 1.8268                 3.0037
 Frc consts  --      1.5471                 1.3502                 2.2587
 IR Inten    --     17.1536                12.8285                47.8409

                     55                     56                     57
                      A                      A                      A
 Frequencies --   1147.3267              1164.8879              1181.2440
 Red. masses --      1.6516                 2.6264                 1.4389
 Frc consts  --      1.2810                 2.0998                 1.1830
 IR Inten    --     62.1937                82.3651                 9.0926

                     58                     59                     60
                      A                      A                      A
 Frequencies --   1221.8180              1231.6433              1236.8933
 Red. masses --      1.7175                 1.3944                 1.3776
 Frc consts  --      1.5106                 1.2462                 1.2418
 IR Inten    --    131.9229                 2.9973                13.2124

                     61                     62                     63
                      A                      A                      A
 Frequencies --   1254.1681              1255.9850              1278.0950
 Red. masses --      1.6393                 1.4031                 1.2555
 Frc consts  --      1.5193                 1.3041                 1.2084
 IR Inten    --      8.2388                 7.1227                 0.0647

                     64                     65                     66
                      A                      A                      A
 Frequencies --   1282.3355              1317.1538              1330.5557
 Red. masses --      1.2428                 1.3122                 1.6942
 Frc consts  --      1.2040                 1.3413                 1.7672
 IR Inten    --      2.7775                 9.5780                15.4497

                     67                     68                     69
                      A                      A                      A
 Frequencies --   1337.0715              1349.4715              1353.3754
 Red. masses --      2.7450                 1.3345                 1.2935
 Frc consts  --      2.8913                 1.4319                 1.3959
 IR Inten    --     27.5063                 2.4766                 1.8436

                     70                     71                     72
                      A                      A                      A
 Frequencies --   1361.1124              1370.4784              1381.1837
 Red. masses --      1.5176                 1.4807                 1.5075
 Frc consts  --      1.6565                 1.6385                 1.6944
 IR Inten    --      9.9122                16.3270                18.4154

                     73                     74                     75
                      A                      A                      A
 Frequencies --   1390.2095              1401.8448              1404.9326
 Red. masses --      1.8923                 1.5907                 1.5494
 Frc consts  --      2.1548                 1.8418                 1.8019
 IR Inten    --      2.3604                13.8328                10.4213

                     76                     77                     78
                      A                      A                      A
 Frequencies --   1422.4072              1441.1110              1449.0811
 Red. masses --      1.6180                 3.5617                 1.7799
 Frc consts  --      1.9287                 4.3581                 2.2021
 IR Inten    --     33.9555                25.1664                39.1268

                     79                     80                     81
                      A                      A                      A
 Frequencies --   1486.0257              1499.1479              1507.5730
 Red. masses --      2.6752                 1.1257                 1.6177
 Frc consts  --      3.4807                 1.4906                 2.1663
 IR Inten    --     10.7811                 5.4927                49.0444

                     82                     83                     84
                      A                      A                      A
 Frequencies --   1513.3320              1514.5661              1521.9381
 Red. masses --      1.0914                 1.3048                 1.0956
 Frc consts  --      1.4727                 1.7635                 1.4952
 IR Inten    --      3.8265                46.4577                 4.6862

                     85                     86                     87
                      A                      A                      A
 Frequencies --   1532.6310              1541.8769              1566.3723
 Red. masses --      1.1005                 1.1115                 3.8360
 Frc consts  --      1.5231                 1.5569                 5.5452
 IR Inten    --     13.9156                 6.3381                14.2869

                     88                     89                     90
                      A                      A                      A
 Frequencies --   1784.8097              1814.6011              3049.5628
 Red. masses --      8.4894                 8.6733                 1.0627
 Frc consts  --     15.9335                16.8267                 5.8226
 IR Inten    --    478.2769               150.3526                21.9463

                     91                     92                     93
                      A                      A                      A
 Frequencies --   3066.3380              3069.2745              3073.2974
 Red. masses --      1.0651                 1.0619                 1.0645
 Frc consts  --      5.9005                 5.8938                 5.9240
 IR Inten    --     23.1517                 2.2952                31.6595

                     94                     95                     96
                      A                      A                      A
 Frequencies --   3089.3444              3095.5265              3098.4198
 Red. masses --      1.0862                 1.0645                 1.0934
 Frc consts  --      6.1080                 6.0097                 6.1848
 IR Inten    --     21.5107                31.9948                10.0878

                     97                     98                     99
                      A                      A                      A
 Frequencies --   3102.7001              3110.6682              3115.3279
 Red. masses --      1.0648                 1.1038                 1.1027
 Frc consts  --      6.0397                 6.2926                 6.3053
 IR Inten    --     26.6961                 6.6971                58.0218

                    100                    101                    102
                      A                      A                      A
 Frequencies --   3123.7296              3130.5803              3147.4265
 Red. masses --      1.0857                 1.0980                 1.1048
 Frc consts  --      6.2417                 6.3403                 6.4480
 IR Inten    --      2.5275                20.9826                29.5768

                    103                    104                    105
                      A                      A                      A
 Frequencies --   3166.9697              3256.9648              3268.0967
 Red. masses --      1.1020                 1.0923                 1.0935
 Frc consts  --      6.5118                 6.8266                 6.8808
 IR Inten    --      1.5575                 4.1177                 2.7822

                    106                    107                    108
                      A                      A                      A
 Frequencies --   3286.9841              3552.2508              3675.9586
 Red. masses --      1.1061                 1.0759                 1.0639
 Frc consts  --      7.0409                 7.9989                 8.4704
 IR Inten    --      1.4557                82.4304                54.7469

 - Thermochemistry -
 -------------------
 Temperature   298.150 Kelvin.  Pressure   1.00000 Atm.
 Atom     1 has atomic number  6 and mass  12.00000

 Molecular mass:   265.14264 amu.
 Principal axes and moments of inertia in atomic units:
                           1         2         3
     Eigenvalues --  3449.277545412.159527269.77998
           X            0.99970  -0.02415  -0.00377
           Y            0.02418   0.99966   0.00938
           Z            0.00354  -0.00947   0.99995
 This molecule is an asymmetric top.
 Rotational symmetry number  1.
 Warning -- assumption of classical behavior for rotation
           may cause significant error
 Rotational temperatures (Kelvin)      0.02511     0.01600     0.01191
 Rotational constants (GHZ):           0.52322     0.33346     0.24825
 Zero-point vibrational energy     850374.6 (Joules/Mol)
                                  203.24442 (Kcal/Mol)
 Warning -- explicit consideration of  24 degrees of freedom as
           vibrations may cause significant error
 Vibrational temperatures:     40.91    52.99    77.16    81.43    94.88
          (Kelvin)            104.81   116.13   145.85   193.81   234.43
                              255.74   310.33   328.88   419.03   466.81
                              512.18   541.64   580.47   627.63   663.14
                              729.85   804.40   823.79   860.37   910.09
                              934.10   943.38   968.17   982.33  1007.44
                             1082.09  1086.23  1114.18  1125.73  1140.72
                             1183.83  1185.82  1268.21  1283.21  1303.80
                             1322.69  1358.42  1370.40  1392.53  1414.63
                             1434.53  1444.50  1500.54  1526.94  1545.01
                             1557.35  1565.94  1611.48  1625.44  1650.75
                             1676.01  1699.55  1757.92  1772.06  1779.61
                             1804.47  1807.08  1838.89  1844.99  1895.09
                             1914.37  1923.75  1941.59  1947.21  1958.34
                             1971.81  1987.22  2000.20  2016.94  2021.38
                             2046.53  2073.44  2084.90  2138.06  2156.94
                             2169.06  2177.35  2179.12  2189.73  2205.11
                             2218.42  2253.66  2567.94  2610.81  4387.64
                             4411.78  4416.00  4421.79  4444.88  4453.77
                             4457.94  4464.09  4475.56  4482.26  4494.35
                             4504.21  4528.44  4556.56  4686.05  4702.06
                             4729.24  5110.90  5288.88

 Zero-point correction=                           0.323891 (Hartree/Particle)
 Thermal correction to Energy=                    0.341541
 Thermal correction to Enthalpy=                  0.342485
 Thermal correction to Gibbs Free Energy=         0.276225
 Sum of electronic and zero-point Energies=           -896.513416
 Sum of electronic and thermal Energies=              -896.495765
 Sum of electronic and thermal Enthalpies=            -896.494821
 Sum of electronic and thermal Free Energies=         -896.561082

                     E (Thermal)             CV                S
                      KCal/Mol        Cal/Mol-Kelvin    Cal/Mol-Kelvin
 Total                  214.320             66.880            139.457
 Electronic               0.000              0.000              0.000
 Translational            0.889              2.981             42.625
 Rotational               0.889              2.981             33.273
 Vibrational            212.543             60.918             63.559
 Vibration     1          0.593              1.984              5.936
 Vibration     2          0.594              1.982              5.423
 Vibration     3          0.596              1.976              4.679
 Vibration     4          0.596              1.975              4.572
 Vibration     5          0.597              1.971              4.271
 Vibration     6          0.599              1.967              4.075
 Vibration     7          0.600              1.962              3.873
 Vibration     8          0.604              1.948              3.428
 Vibration     9          0.613              1.919              2.878
 Vibration    10          0.623              1.888              2.515
 Vibration    11          0.628              1.870              2.352
 Vibration    12          0.645              1.817              1.995
 Vibration    13          0.651              1.797              1.890
 Vibration    14          0.687              1.690              1.467
 Vibration    15          0.709              1.627              1.288
 Vibration    16          0.731              1.563              1.140
 Vibration    17          0.747              1.520              1.053
 Vibration    18          0.769              1.463              0.950
 Vibration    19          0.797              1.391              0.839
 Vibration    20          0.819              1.337              0.763
 Vibration    21          0.862              1.234              0.640
 Vibration    22          0.915              1.120              0.526
 Vibration    23          0.929              1.091              0.499
 Vibration    24          0.956              1.036              0.453

                           ! Non-Optimized Parameters !
 Normal termination of Gaussian 16 at Sat Dec 12 10:29:33 2020.

 ----------------------------------------------------------------------
 # B3LYP/6-311++G(d,p) empiricaldispersion=gd3bj scf=xqc pop=npa geom=c
 heck
 ----------------------------------------------------------------------

 --------------------------------------
 CID_65897597_JID_9375_Energie_neutraal
 --------------------------------------
 Structure from the checkpoint file:  "JID_9375.chk"
 Charge =  0 Multiplicity = 1

 SCF Done:  E(RB3LYP) =  -897.098440889     A.U. after   15 cycles
 Normal termination of Gaussian 16 at Sat Dec 12 10:38:56 2020.

 ----------------------------------------------------------------------
 # B3LYP/6-311++G(d,p) empiricaldispersion=gd3bj scf=xqc pop=npa geom=c
 heck
 ----------------------------------------------------------------------

 ------------------------------------
 CID_65897597_JID_9375_Energie_kation
 ------------------------------------
 Structure from the checkpoint file:  "JID_9375.chk"
 Charge =  1 Multiplicity = 2

 SCF Done:  E(UB3LYP) =  -896.778916884     A.U. after   33 cycles
 SCF Done:  E(UB3LYP) =  -896.779193321     a.u. after    5 cycles
 Normal termination of Gaussian 16 at Sat Dec 12 12:42:23 2020.
 Gaussian 16:  ES64L-G16RevA.03 25-Dec-2016

 ----------------------------------------------------------------------
 # B3LYP/6-311++G(d,p) empiricaldispersion=gd3bj scf=xqc pop=npa geom=c
 heck
 ----------------------------------------------------------------------

 -----------------------------------
 CID_65897597_JID_9375_Energie_anion
 -----------------------------------
 Structure from the checkpoint file:  "JID_9375.chk"
 Charge = -1 Multiplicity = 2

                         Standard orientation:
 ---------------------------------------------------------------------
 Center     Atomic      Atomic             Coordinates (Angstroms)
 Number     Number       Type             X           Y           Z
 ---------------------------------------------------------------------
      1          6           0        1.972675   -2.280533    0.813447
      2          6           0        1.691052   -1.051499    1.697327
      3          6           0        0.871675   -0.132941    0.783531
      4          6           0        1.595578   -0.258647   -0.594510
      5          6           0        2.030056   -1.745793   -0.646454
      6          6           0        2.729322    0.739537   -0.683146
      7          8           0        2.602124    1.908603   -0.997259
      8          8           0        3.936230    0.241932   -0.317614
      9          6           0        0.669806    1.292410    1.301596
     10          7           0       -0.020110    2.165719    0.361750
     11          6           0       -1.349624    2.183883    0.056075
     12          8           0       -1.782576    2.787825   -0.918226
     13          6           0       -2.329250    1.478456    0.997684
     14          6           0       -3.265225    0.556620    0.207053
     15          7           0       -2.629760   -0.692820   -0.189108
     16          6           0       -2.578401   -1.853449    0.519372
     17          6           0       -1.832646   -2.747883   -0.227804
     18          6           0       -1.474747   -2.021398   -1.385199
     19          7           0       -1.950162   -0.774347   -1.356125
     20          1           0        1.149888   -2.996836    0.911933
     21          1           0        2.892276   -2.797316    1.102936
     22          1           0        1.161069   -1.304077    2.622316
     23          1           0        2.629567   -0.556344    1.977914
     24          1           0       -0.114180   -0.585634    0.633266
     25          1           0        0.899432    0.006246   -1.393174
     26          1           0        3.026219   -1.851148   -1.079812
     27          1           0        1.336974   -2.299083   -1.284185
     28          1           0        4.561394    0.988921   -0.383730
     29          1           0        0.127399    1.265707    2.251426
     30          1           0        1.636622    1.758498    1.518397
     31          1           0        0.569475    2.550614   -0.371206
     32          1           0       -1.850756    0.919021    1.804983
     33          1           0       -2.936834    2.267114    1.456999
     34          1           0       -4.144761    0.299409    0.803778
     35          1           0       -3.585264    1.065556   -0.703169
     36          1           0       -3.077457   -1.952166    1.472899
     37          1           0       -1.603460   -3.774712    0.016775
     38          1           0       -0.905220   -2.353092   -2.243008
 ---------------------------------------------------------------------

 SCF Done:  E(UB3LYP) =  -897.091637736     A.U. after   33 cycles
 SCF Done:  E(UB3LYP) =  -897.091637736     a.u. after    1 cycles

 The electronic state is 2-A.
 Alpha  occ. eigenvalues --  -19.08642 -19.03235 -18.99090 -14.30536 -14.24336
 Alpha  occ. eigenvalues --  -14.23933 -10.22300 -10.17909 -10.13032 -10.12094
 Alpha  occ. eigenvalues --  -10.12002 -10.10593 -10.10154 -10.09530 -10.09468
 Alpha  occ. eigenvalues --  -10.08337 -10.08230 -10.07782 -10.07672  -1.02792
 Alpha  occ. eigenvalues --   -0.96669  -0.94293  -0.93641  -0.83201  -0.76619
 Alpha  occ. eigenvalues --   -0.76187  -0.70415  -0.67260  -0.65887  -0.65202
 Alpha  occ. eigenvalues --   -0.59169  -0.57909  -0.55135  -0.52146  -0.50225
 Alpha  occ. eigenvalues --   -0.48823  -0.47859  -0.46764  -0.44195  -0.42363
 Alpha  occ. eigenvalues --   -0.41573  -0.40765  -0.40491  -0.39189  -0.38618
 Alpha  occ. eigenvalues --   -0.36734  -0.36174  -0.35892  -0.35004  -0.33762
 Alpha  occ. eigenvalues --   -0.33057  -0.32859  -0.32350  -0.31492  -0.30454
 Alpha  occ. eigenvalues --   -0.29549  -0.28790  -0.28157  -0.27014  -0.25926
 Alpha  occ. eigenvalues --   -0.25632  -0.25405  -0.25006  -0.23856  -0.23412
 Alpha  occ. eigenvalues --   -0.20992  -0.19807  -0.17377  -0.16803  -0.16500
 Alpha  occ. eigenvalues --   -0.15976   0.03648
 Alpha virt. eigenvalues --    0.05056   0.06522   0.07134   0.07267   0.07934
 Alpha virt. eigenvalues --    0.08201   0.08695   0.08812   0.09521   0.10340
 Alpha virt. eigenvalues --    0.10630   0.10943   0.11238   0.11409   0.11776

  Beta  occ. eigenvalues --  -19.08591 -19.03222 -18.99087 -14.30539 -14.24332
  Beta  occ. eigenvalues --  -14.23931 -10.22299 -10.17909 -10.13015 -10.12079
  Beta  occ. eigenvalues --  -10.11970 -10.10590 -10.10146 -10.09509 -10.09466
  Beta  occ. eigenvalues --  -10.08331 -10.08223 -10.07771 -10.07651  -1.02732
  Beta  occ. eigenvalues --   -0.96660  -0.94288  -0.93590  -0.83192  -0.76603
  Beta  occ. eigenvalues --   -0.76170  -0.70385  -0.67235  -0.65867  -0.65167
  Beta  occ. eigenvalues --   -0.59140  -0.57875  -0.55063  -0.52127  -0.50195
  Beta  occ. eigenvalues --   -0.48786  -0.47804  -0.46715  -0.44144  -0.42343
  Beta  occ. eigenvalues --   -0.41549  -0.40739  -0.40456  -0.39167  -0.38588
  Beta  occ. eigenvalues --   -0.36702  -0.36151  -0.35870  -0.34980  -0.33745
  Beta  occ. eigenvalues --   -0.33032  -0.32840  -0.32309  -0.31467  -0.30436
  Beta  occ. eigenvalues --   -0.29517  -0.28766  -0.28135  -0.26991  -0.25904
  Beta  occ. eigenvalues --   -0.25602  -0.25384  -0.24980  -0.23834  -0.23390
  Beta  occ. eigenvalues --   -0.20984  -0.19757  -0.17364  -0.16786  -0.16485
  Beta  occ. eigenvalues --   -0.15964
  Beta virt. eigenvalues --    0.06076   0.06560   0.06939   0.07328   0.07690
  Beta virt. eigenvalues --    0.08213   0.08584   0.08848   0.09284   0.09735
  Beta virt. eigenvalues --    0.10671   0.10854   0.11028   0.11435   0.11612

 Mulliken charges and spin densities:
               1          2
     1  C   -0.117816  -0.208542
     2  C   -0.479312  -0.181857
     3  C    0.444589   0.473208
     4  C    0.580017  -0.182196
     5  C   -0.383120  -0.284883
     6  C   -0.433846  -0.010766
     7  O   -0.264106   0.016416
     8  O   -0.161622   0.043842
     9  C   -0.315217  -0.557934
    10  N   -0.084260   0.014415
    11  C   -0.242987   0.016751
    12  O   -0.289134  -0.004020
    13  C    0.410169  -0.286728
    14  C   -0.047932  -0.415925
    15  N    0.320025  -0.034706
    16  C   -0.129056  -0.234995
    17  C    0.495592  -0.446033
    18  C   -0.004220  -0.396395
    19  N   -0.341882   0.118332
    20  H    0.206996  -0.063907
    21  H   -0.150763   0.325658
    22  H   -0.397407   0.583589
    23  H    0.099190   0.069857
    24  H    1.337979  -1.355515
    25  H    0.286586   0.019858
    26  H    0.117543   0.096711
    27  H    0.078787   0.010967
    28  H   -0.394895   0.685590
    29  H   -0.114137   0.309550
    30  H    0.037155   0.195832
    31  H    0.365054  -0.026619
    32  H   -0.241127   0.392724
    33  H   -0.064682   0.291793
    34  H   -0.291896   0.479289
    35  H    0.224789  -0.000210
    36  H   -1.035573   1.211113
    37  H   -0.147869   0.327806
    38  H    0.128388   0.007930
 Sum of Mulliken charges =  -1.00000   1.00000

 Dipole moment (field-independent basis, Debye):
    X=              0.5915    Y=             -1.7610    Z=             -3.0035  Tot=              3.5316
 Quadrupole moment (field-independent basis, Debye-Ang):
   XX=           -194.2895   YY=           -160.2872   ZZ=           -159.6040
   XY=             -5.4474   XZ=              7.6932   YZ=             14.9342

 Summary of Natural Population Analysis:

                                       Natural Population
                Natural  -----------------------------------------------
    Atom  No    Charge         Core      Valence    Rydberg      Total
 -----------------------------------------------------------------------
      C    1   -0.19060      0.99964     2.18335    0.00761     3.19060
      C    2   -0.19033      0.99961     2.18255    0.00817     3.19033
      C    3   -0.11630      0.99956     2.10485    0.01188     3.11630
      C    4   -0.15827      0.99952     2.14761    0.01114     3.15827
      C    5   -0.19073      0.99963     2.18296    0.00814     3.19073
      C    6    0.41464      0.99966     1.55986    0.02584     2.58536
      O    7   -0.31928      0.99987     3.31347    0.00594     4.31928
      O    8   -0.34323      0.99987     3.33612    0.00724     4.34323
      C    9   -0.08916      0.99958     2.07772    0.01187     3.08916
      N   10   -0.31905      0.99966     2.81036    0.00903     3.81905
      C   11    0.34484      0.99967     1.63253    0.02296     2.65516
      O   12   -0.32594      0.99988     3.32056    0.00550     4.32594
      C   13   -0.23830      0.99958     2.23010    0.00862     3.23830
      C   14   -0.08136      0.99959     2.06976    0.01201     3.08136
      N   15   -0.11082      0.99966     2.59647    0.01470     3.61082
      C   16   -0.00493      0.99955     1.99261    0.01277     3.00493
      C   17   -0.16759      0.99956     2.15861    0.00942     3.16759
      C   18   -0.02206      0.99963     2.00868    0.01375     3.02206
      N   19   -0.15039      0.99973     2.63998    0.01068     3.65039
      H   20    0.09834      0.00000     0.40025    0.00141     0.40166
      H   21    0.09973      0.00000     0.39944    0.00083     0.40027
      H   22    0.10489      0.00000     0.39379    0.00132     0.39511
      H   23    0.09883      0.00000     0.39947    0.00171     0.40117
      H   24    0.10724      0.00000     0.38792    0.00483     0.39276
      H   25    0.12370      0.00000     0.37502    0.00129     0.37630
      H   26    0.10652      0.00000     0.39222    0.00126     0.39348
      H   27    0.10127      0.00000     0.39770    0.00102     0.39873
      H   28    0.24472      0.00000     0.24260    0.01268     0.25528
      H   29    0.10268      0.00000     0.39606    0.00125     0.39732
      H   30    0.10207      0.00000     0.39672    0.00121     0.39793
      H   31    0.20768      0.00000     0.29024    0.00208     0.29232
      H   32    0.10548      0.00000     0.39248    0.00204     0.39452
      H   33    0.11527      0.00000     0.38371    0.00101     0.38473
      H   34    0.10375      0.00000     0.39489    0.00136     0.39625
      H   35    0.11696      0.00000     0.38154    0.00151     0.38304
      H   36    0.11166      0.00000     0.38462    0.00372     0.38834
      H   37    0.11014      0.00000     0.38902    0.00084     0.38986
      H   38    0.09791      0.00000     0.40122    0.00087     0.40209
 =======================================================================
   * Total *   -0.00000     18.99346    51.74706    0.25949    71.00000

 Normal termination of Gaussian 16 at Sat Dec 12 13:09:55 2020.
