 Gaussian 16, Revision A.03,

 -----------------------------------------------------------
 # opt freq B3LYP/6-31G(d) empiricaldispersion=gd3bj scf=xqc
 -----------------------------------------------------------

 -------------------------------
 CID_106357636_JID_8283_neutraal
 -------------------------------
 Symbolic Z-matrix:
 Charge =  0 Multiplicity = 1

 SCF Done:  E(RB3LYP) =  -781.833668254     A.U. after   15 cycles
 SCF Done:  E(RB3LYP) =  -781.839739369     A.U. after   12 cycles
 SCF Done:  E(RB3LYP) =  -781.840574218     A.U. after   12 cycles
 SCF Done:  E(RB3LYP) =  -781.840627254     A.U. after   11 cycles
 SCF Done:  E(RB3LYP) =  -781.841409991     A.U. after   12 cycles
 SCF Done:  E(RB3LYP) =  -781.841581418     A.U. after   12 cycles
 SCF Done:  E(RB3LYP) =  -781.841838772     A.U. after   11 cycles
 SCF Done:  E(RB3LYP) =  -781.842085159     A.U. after   12 cycles
 SCF Done:  E(RB3LYP) =  -781.842195323     A.U. after   13 cycles
 SCF Done:  E(RB3LYP) =  -781.842432078     A.U. after   12 cycles
 SCF Done:  E(RB3LYP) =  -781.843624319     A.U. after   10 cycles
 SCF Done:  E(RB3LYP) =  -781.843633036     A.U. after   10 cycles
 SCF Done:  E(RB3LYP) =  -781.843637120     A.U. after   10 cycles
 SCF Done:  E(RB3LYP) =  -781.843637319     A.U. after    7 cycles
 SCF Done:  E(RB3LYP) =  -781.843637341     A.U. after    7 cycles
 Optimization completed.
    -- Stationary point found.
 Normal termination of Gaussian 16 at Fri Dec 11 20:25:34 2020.

 --------------------------------------------------------------------
 #N Geom=AllCheck Guess=TCheck SCRF=Check GenChk RB3LYP/6-31G(d) Freq
 --------------------------------------------------------------------

 Structure from the checkpoint file:  "JID_8283.chk"
 -------------------------------
 CID_106357636_JID_8283_neutraal
 -------------------------------
 Charge =  0 Multiplicity = 1

 SCF Done:  E(RB3LYP) =  -781.843637341     A.U. after    1 cycles

  Exact polarizability: 210.722  -1.855 187.770 -12.054 -10.664 118.204
 Approx polarizability: 305.081  -0.625 312.349 -29.177 -27.840 172.350

                      1                      2                      3
                      A                      A                      A
 Frequencies --     21.1168                37.7185                43.5008
 Red. masses --      4.0649                 3.8100                 1.0401
 Frc consts  --      0.0011                 0.0032                 0.0012
 IR Inten    --      0.7367                 0.3469                 0.1594

                      4                      5                      6
                      A                      A                      A
 Frequencies --     55.5660                84.2835               105.2057
 Red. masses --      2.9880                 3.7815                 2.8190
 Frc consts  --      0.0054                 0.0158                 0.0184
 IR Inten    --      0.7770                 0.1353                 0.0395

                      7                      8                      9
                      A                      A                      A
 Frequencies --    134.0253               140.8259               150.1708
 Red. masses --      4.6224                 3.3315                 3.9753
 Frc consts  --      0.0489                 0.0389                 0.0528
 IR Inten    --      0.2940                 8.2298                 0.2546

                     10                     11                     12
                      A                      A                      A
 Frequencies --    204.1507               221.8991               235.0143
 Red. masses --      2.7453                 1.3234                 1.9890
 Frc consts  --      0.0674                 0.0384                 0.0647
 IR Inten    --      0.6885                 5.2745                 6.5715

                     13                     14                     15
                      A                      A                      A
 Frequencies --    243.8962               266.8957               270.6836
 Red. masses --      1.8133                 2.4254                 1.3454
 Frc consts  --      0.0636                 0.1018                 0.0581
 IR Inten    --     37.3774                 3.9747                 0.9449

                     16                     17                     18
                      A                      A                      A
 Frequencies --    291.3282               313.1432               328.7637
 Red. masses --      2.0348                 2.5041                 4.1621
 Frc consts  --      0.1017                 0.1447                 0.2650
 IR Inten    --     33.0895                 5.1440                 0.3739

                     19                     20                     21
                      A                      A                      A
 Frequencies --    358.7593               381.2093               417.8883
 Red. masses --      3.1886                 2.6094                 2.2132
 Frc consts  --      0.2418                 0.2234                 0.2277
 IR Inten    --      1.3009                 1.7963                 1.5334

                     22                     23                     24
                      A                      A                      A
 Frequencies --    437.4194               472.3863               503.3616
 Red. masses --      2.6456                 2.1231                 5.3068
 Frc consts  --      0.2982                 0.2791                 0.7922
 IR Inten    --      4.4844                 4.5044                 1.4001

                     25                     26                     27
                      A                      A                      A
 Frequencies --    557.1078               560.0879               593.4864
 Red. masses --      2.9190                 3.9828                 4.8320
 Frc consts  --      0.5338                 0.7361                 1.0028
 IR Inten    --     13.7618                 0.6278                11.5837

                     28                     29                     30
                      A                      A                      A
 Frequencies --    626.0130               651.0994               665.3895
 Red. masses --      4.7634                 3.0602                 3.5066
 Frc consts  --      1.0998                 0.7644                 0.9147
 IR Inten    --      4.3482                15.7094                18.1195

                     31                     32                     33
                      A                      A                      A
 Frequencies --    677.4035               694.8405               739.8363
 Red. masses --      5.2516                 1.8941                 1.6960
 Frc consts  --      1.4198                 0.5388                 0.5470
 IR Inten    --      1.9660                63.4525                33.6340

                     34                     35                     36
                      A                      A                      A
 Frequencies --    770.8911               775.6922               788.9835
 Red. masses --      1.6942                 2.2032                 2.7545
 Frc consts  --      0.5932                 0.7810                 1.0103
 IR Inten    --     27.0722                14.9687                10.3749

                     37                     38                     39
                      A                      A                      A
 Frequencies --    806.0314               859.8167               880.5104
 Red. masses --      3.5397                 1.9794                 1.5367
 Frc consts  --      1.3549                 0.8622                 0.7020
 IR Inten    --     12.6367                12.5221                86.5374

                     40                     41                     42
                      A                      A                      A
 Frequencies --    905.9253               914.7280               920.8451
 Red. masses --      1.9930                 3.6791                 1.2767
 Frc consts  --      0.9637                 1.8137                 0.6379
 IR Inten    --      6.6086                12.6868                 1.8628

                     43                     44                     45
                      A                      A                      A
 Frequencies --    943.4836               956.8881               985.0068
 Red. masses --      1.8680                 1.2256                 1.4299
 Frc consts  --      0.9797                 0.6612                 0.8174
 IR Inten    --      9.6181                 1.7894                 0.8876

                     46                     47                     48
                      A                      A                      A
 Frequencies --   1002.3482              1014.5243              1041.5444
 Red. masses --      1.9140                 1.5410                 5.1429
 Frc consts  --      1.1330                 0.9345                 3.2871
 IR Inten    --      1.2724                 1.5307                 5.5888

                     49                     50                     51
                      A                      A                      A
 Frequencies --   1058.5804              1076.5904              1092.2426
 Red. masses --      2.0975                 1.4862                 2.5193
 Frc consts  --      1.3849                 1.0149                 1.7708
 IR Inten    --     18.6916                 2.2444                31.3851

                     52                     53                     54
                      A                      A                      A
 Frequencies --   1107.7279              1136.2871              1145.7766
 Red. masses --      2.2225                 2.3638                 1.6397
 Frc consts  --      1.6068                 1.7982                 1.2683
 IR Inten    --      1.9358                 6.0295                 2.0854

                     55                     56                     57
                      A                      A                      A
 Frequencies --   1148.9182              1179.7954              1199.3158
 Red. masses --      2.4421                 1.7903                 1.5447
 Frc consts  --      1.8993                 1.4682                 1.3091
 IR Inten    --     54.4229                10.9389                19.7211

                     58                     59                     60
                      A                      A                      A
 Frequencies --   1211.2527              1213.9711              1259.0893
 Red. masses --      1.7701                 1.6753                 1.8038
 Frc consts  --      1.5301                 1.4546                 1.6848
 IR Inten    --      5.8226                13.0712                13.5055

                     61                     62                     63
                      A                      A                      A
 Frequencies --   1277.3980              1297.1326              1326.5069
 Red. masses --      1.3119                 5.0124                 1.4418
 Frc consts  --      1.2612                 4.9689                 1.4948
 IR Inten    --      5.0299                23.6573                19.6208

                     64                     65                     66
                      A                      A                      A
 Frequencies --   1348.6668              1369.6834              1374.9922
 Red. masses --      1.3805                 2.7401                 1.4439
 Frc consts  --      1.4795                 3.0287                 1.6084
 IR Inten    --      9.1936                27.5106                 1.6535

                     67                     68                     69
                      A                      A                      A
 Frequencies --   1375.0379              1398.5053              1404.9781
 Red. masses --      1.2726                 1.8931                 2.6109
 Frc consts  --      1.4176                 2.1815                 3.0366
 IR Inten    --      4.5372                39.2059                16.4854

                     70                     71                     72
                      A                      A                      A
 Frequencies --   1418.0711              1429.4224              1429.9656
 Red. masses --      1.4257                 1.4511                 1.5486
 Frc consts  --      1.6892                 1.7469                 1.8657
 IR Inten    --      7.4347                 5.2167                 1.5877

                     73                     74                     75
                      A                      A                      A
 Frequencies --   1436.8200              1450.5609              1453.6944
 Red. masses --      1.4891                 1.2825                 1.4628
 Frc consts  --      1.8113                 1.5899                 1.8213
 IR Inten    --     25.7287                13.7504                 2.9154

                     76                     77                     78
                      A                      A                      A
 Frequencies --   1461.8680              1508.9243              1512.4837
 Red. masses --      2.1106                 1.6824                 1.5056
 Frc consts  --      2.6575                 2.2569                 2.0293
 IR Inten    --     10.8146                66.2029                16.0792

                     79                     80                     81
                      A                      A                      A
 Frequencies --   1514.3135              1519.8494              1522.1200
 Red. masses --      1.0442                 1.0608                 1.4655
 Frc consts  --      1.4108                 1.4437                 2.0004
 IR Inten    --      6.2141                 6.5833                44.8727

                     82                     83                     84
                      A                      A                      A
 Frequencies --   1525.7827              1531.8686              1536.1962
 Red. masses --      1.0769                 2.6292                 1.0628
 Frc consts  --      1.4771                 3.6351                 1.4778
 IR Inten    --     20.2919               132.7349                 0.9470

                     85                     86                     87
                      A                      A                      A
 Frequencies --   1539.6296              1557.1897              1564.0091
 Red. masses --      1.1294                 1.0500                 4.0380
 Frc consts  --      1.5774                 1.5001                 5.8196
 IR Inten    --      0.9538                11.5630                96.1727

                     88                     89                     90
                      A                      A                      A
 Frequencies --   1579.0257              1667.6141              1702.4443
 Red. masses --      3.4218                 5.7177                 1.0871
 Frc consts  --      5.0267                 9.3683                 1.8564
 IR Inten    --    378.5688                 6.5809                36.3823

                     91                     92                     93
                      A                      A                      A
 Frequencies --   2981.1996              2988.3048              3042.7174
 Red. masses --      1.0729                 1.0813                 1.0395
 Frc consts  --      5.6180                 5.6892                 5.6699
 IR Inten    --     50.4688                38.5169                12.9383

                     94                     95                     96
                      A                      A                      A
 Frequencies --   3047.7561              3053.3401              3058.9062
 Red. masses --      1.0400                 1.0379                 1.0674
 Frc consts  --      5.6918                 5.7012                 5.8845
 IR Inten    --     33.7877                30.8018                 4.4717

                     97                     98                     99
                      A                      A                      A
 Frequencies --   3073.2161              3081.9386              3103.8908
 Red. masses --      1.0825                 1.0866                 1.1001
 Frc consts  --      6.0237                 6.0807                 6.2447
 IR Inten    --     40.5487                32.9885                 9.8491

                    100                    101                    102
                      A                      A                      A
 Frequencies --   3105.3742              3109.5244              3111.4059
 Red. masses --      1.1013                 1.0993                 1.0992
 Frc consts  --      6.2571                 6.2628                 6.2696
 IR Inten    --     17.5142                33.3477                60.2607

                    103                    104                    105
                      A                      A                      A
 Frequencies --   3138.1893              3148.0852              3148.9143
 Red. masses --      1.1009                 1.1003                 1.1003
 Frc consts  --      6.3879                 6.4247                 6.4283
 IR Inten    --     31.1740                 6.3468                 9.1864

                    106                    107                    108
                      A                      A                      A
 Frequencies --   3210.0357              3279.7970              3299.8926
 Red. masses --      1.0908                 1.0958                 1.0960
 Frc consts  --      6.6224                 6.9451                 7.0315
 IR Inten    --     24.6293                 2.9996                 1.3799

                    109                    110                    111
                      A                      A                      A
 Frequencies --   3474.6368              3553.6405              3556.8282
 Red. masses --      1.0503                 1.0742                 1.0916
 Frc consts  --      7.4709                 7.9922                 8.1369
 IR Inten    --      2.8781                16.6313                 0.4183

 - Thermochemistry -
 -------------------
 Temperature   298.150 Kelvin.  Pressure   1.00000 Atm.
 Atom     1 has atomic number  6 and mass  12.00000

 Molecular mass:   247.17970 amu.
 Principal axes and moments of inertia in atomic units:
                           1         2         3
     Eigenvalues --  2905.915506932.675737859.59433
           X            0.99997   0.00436  -0.00634
           Y           -0.00421   0.99972   0.02312
           Z            0.00644  -0.02309   0.99971
 This molecule is an asymmetric top.
 Rotational symmetry number  1.
 Warning -- assumption of classical behavior for rotation
           may cause significant error
 Rotational temperatures (Kelvin)      0.02981     0.01249     0.01102
 Rotational constants (GHZ):           0.62106     0.26032     0.22962
 Zero-point vibrational energy     894110.4 (Joules/Mol)
                                  213.69752 (Kcal/Mol)
 Warning -- explicit consideration of  27 degrees of freedom as
           vibrations may cause significant error
 Vibrational temperatures:     30.38    54.27    62.59    79.95   121.27
          (Kelvin)            151.37   192.83   202.62   216.06   293.73
                              319.26   338.13   350.91   384.00   389.45
                              419.16   450.54   473.02   516.17   548.48
                              601.25   629.35   679.66   724.23   801.55
                              805.84   853.89   900.69   936.79   957.35
                              974.63   999.72  1064.46  1109.14  1116.05
                             1135.17  1159.70  1237.08  1266.86  1303.42
                             1316.09  1324.89  1357.46  1376.75  1417.21
                             1442.16  1459.67  1498.55  1523.06  1548.97
                             1571.49  1593.77  1634.86  1648.52  1653.04
                             1697.46  1725.55  1742.72  1746.63  1811.55
                             1837.89  1866.28  1908.55  1940.43  1970.67
                             1978.31  1978.37  2012.14  2021.45  2040.29
                             2056.62  2057.40  2067.26  2087.03  2091.54
                             2103.30  2171.01  2176.13  2178.76  2186.72
                             2189.99  2195.26  2204.02  2210.24  2215.18
                             2240.45  2250.26  2271.87  2399.32  2449.44
                             4289.28  4299.50  4377.79  4385.04  4393.08
                             4401.08  4421.67  4434.22  4465.81  4467.94
                             4473.91  4476.62  4515.15  4529.39  4530.59
                             4618.53  4718.90  4747.81  4999.23  5112.90
                             5117.48

 Zero-point correction=                           0.340549 (Hartree/Particle)
 Thermal correction to Energy=                    0.358758
 Thermal correction to Enthalpy=                  0.359702
 Thermal correction to Gibbs Free Energy=         0.293210
 Sum of electronic and zero-point Energies=           -781.503089
 Sum of electronic and thermal Energies=              -781.484880
 Sum of electronic and thermal Enthalpies=            -781.483935
 Sum of electronic and thermal Free Energies=         -781.550427

                     E (Thermal)             CV                S
                      KCal/Mol        Cal/Mol-Kelvin    Cal/Mol-Kelvin
 Total                  225.124             69.256            139.944
 Electronic               0.000              0.000              0.000
 Translational            0.889              2.981             42.415
 Rotational               0.889              2.981             33.426
 Vibrational            223.346             63.294             64.102
 Vibration     1          0.593              1.985              6.526
 Vibration     2          0.594              1.982              5.375
 Vibration     3          0.595              1.980              5.093
 Vibration     4          0.596              1.975              4.609
 Vibration     5          0.601              1.960              3.789
 Vibration     6          0.605              1.945              3.356
 Vibration     7          0.613              1.919              2.887
 Vibration     8          0.615              1.912              2.793
 Vibration     9          0.618              1.902              2.670
 Vibration    10          0.640              1.834              2.095
 Vibration    11          0.648              1.808              1.944
 Vibration    12          0.655              1.787              1.840
 Vibration    13          0.659              1.773              1.774
 Vibration    14          0.672              1.734              1.616
 Vibration    15          0.674              1.727              1.592
 Vibration    16          0.687              1.690              1.466
 Vibration    17          0.701              1.649              1.346
 Vibration    18          0.712              1.618              1.266
 Vibration    19          0.734              1.557              1.127
 Vibration    20          0.751              1.510              1.034
 Vibration    21          0.781              1.431              0.899
 Vibration    22          0.798              1.389              0.835
 Vibration    23          0.829              1.311              0.731
 Vibration    24          0.859              1.243              0.650
 Vibration    25          0.913              1.124              0.530
 Vibration    26          0.916              1.118              0.524
 Vibration    27          0.951              1.046              0.461

 Optimization completed.
    -- Stationary point found.
 Normal termination of Gaussian 16 at Fri Dec 11 20:42:57 2020.

 ----------------------------------------------------------------------
 # B3LYP/6-311++G(d,p) empiricaldispersion=gd3bj scf=xqc pop=npa geom=c
 heck
 ----------------------------------------------------------------------

 ---------------------------------------
 CID_106357636_JID_8283_Energie_neutraal
 ---------------------------------------
 Structure from the checkpoint file:  "JID_8283.chk"
 Charge =  0 Multiplicity = 1

 SCF Done:  E(RB3LYP) =  -782.061293956     A.U. after   16 cycles
 Normal termination of Gaussian 16 at Fri Dec 11 20:50:24 2020.

 ----------------------------------------------------------------------
 # B3LYP/6-311++G(d,p) empiricaldispersion=gd3bj scf=xqc pop=npa geom=c
 heck
 ----------------------------------------------------------------------

 -------------------------------------
 CID_106357636_JID_8283_Energie_kation
 -------------------------------------
 Structure from the checkpoint file:  "JID_8283.chk"
 Charge =  1 Multiplicity = 2

 SCF Done:  E(UB3LYP) =  -781.793073166     A.U. after   26 cycles
 Normal termination of Gaussian 16 at Fri Dec 11 21:06:32 2020.
 Gaussian 16:  ES64L-G16RevA.03 25-Dec-2016

 ----------------------------------------------------------------------
 # B3LYP/6-311++G(d,p) empiricaldispersion=gd3bj scf=xqc pop=npa geom=c
 heck
 ----------------------------------------------------------------------

 ------------------------------------
 CID_106357636_JID_8283_Energie_anion
 ------------------------------------
 Structure from the checkpoint file:  "JID_8283.chk"
 Charge = -1 Multiplicity = 2

                         Standard orientation:
 ---------------------------------------------------------------------
 Center     Atomic      Atomic             Coordinates (Angstroms)
 Number     Number       Type             X           Y           Z
 ---------------------------------------------------------------------
      1          6           0        3.645665    2.818570   -0.760269
      2          6           0        2.956402    1.547200   -0.373958
      3          7           0        3.657082    0.398276   -0.312645
      4          7           0        2.758626   -0.532743    0.053370
      5          6           0        3.055934   -1.857640    0.264310
      6          6           0        2.028218   -2.663138    0.652651
      7          7           0        0.745410   -2.233415    0.819553
      8          6           0        0.467843   -0.952551    0.625477
      9          6           0        1.481415   -0.012259    0.232347
     10          6           0        1.605201    1.353655   -0.044086
     11          7           0       -0.828666   -0.569094    0.877741
     12          6           0       -1.569156    0.484782    0.171444
     13          6           0       -1.575664    0.256774   -1.357499
     14          6           0       -2.116097   -1.085390   -1.860275
     15          7           0       -3.584354   -1.168553   -1.805421
     16          6           0       -2.943329    0.632345    0.865306
     17          6           0       -2.759130    1.100019    2.316167
     18          6           0       -3.879973    1.578953    0.105988
     19          1           0        3.553742    3.576067    0.026617
     20          1           0        3.216430    3.242485   -1.675635
     21          1           0        4.707432    2.626985   -0.933658
     22          1           0        4.083687   -2.151250    0.107392
     23          1           0        2.206617   -3.718096    0.835455
     24          1           0        0.835553    2.107248   -0.009461
     25          1           0       -1.383337   -1.389336    1.101025
     26          1           0       -1.047243    1.431293    0.349268
     27          1           0       -2.122395    1.068423   -1.848253
     28          1           0       -0.533061    0.337420   -1.687772
     29          1           0       -1.834483   -1.177789   -2.915226
     30          1           0       -1.601687   -1.906486   -1.332118
     31          1           0       -3.894227   -1.980549   -2.336812
     32          1           0       -3.891059   -1.333880   -0.849124
     33          1           0       -3.415729   -0.363078    0.896225
     34          1           0       -2.342186    2.115045    2.338580
     35          1           0       -3.720629    1.123994    2.840539
     36          1           0       -2.077475    0.446851    2.867783
     37          1           0       -4.160152    1.173475   -0.869070
     38          1           0       -4.795746    1.744879    0.684232
     39          1           0       -3.404719    2.557081   -0.043778
 ---------------------------------------------------------------------

 SCF Done:  E(UB3LYP) =  -782.052503738     A.U. after   33 cycles
 SCF Done:  E(UB3LYP) =  -782.052503738     a.u. after    1 cycles

 The electronic state is 2-A.
 Alpha  occ. eigenvalues --  -14.28720 -14.21652 -14.21060 -14.18522 -14.17778
 Alpha  occ. eigenvalues --  -10.12574 -10.10638 -10.10319 -10.09503 -10.09158
 Alpha  occ. eigenvalues --  -10.09072 -10.08390 -10.08168 -10.07758 -10.06331
 Alpha  occ. eigenvalues --  -10.05937 -10.05839 -10.05462  -0.95168  -0.85524
 Alpha  occ. eigenvalues --   -0.79893  -0.77412  -0.74173  -0.70659  -0.68507
 Alpha  occ. eigenvalues --   -0.65416  -0.64297  -0.60516  -0.58794  -0.56785
 Alpha  occ. eigenvalues --   -0.53016  -0.51973  -0.49649  -0.47964  -0.46415
 Alpha  occ. eigenvalues --   -0.42423  -0.40690  -0.39048  -0.38178  -0.37045
 Alpha  occ. eigenvalues --   -0.36816  -0.36348  -0.35447  -0.34385  -0.33670
 Alpha  occ. eigenvalues --   -0.33469  -0.32325  -0.31107  -0.30324  -0.29457
 Alpha  occ. eigenvalues --   -0.29303  -0.28860  -0.28548  -0.27621  -0.26406
 Alpha  occ. eigenvalues --   -0.25921  -0.25176  -0.24177  -0.22860  -0.22057
 Alpha  occ. eigenvalues --   -0.20844  -0.19063  -0.15665  -0.15310  -0.14263
 Alpha  occ. eigenvalues --   -0.13795  -0.09158   0.04574
 Alpha virt. eigenvalues --    0.06206   0.06731   0.07306   0.08144   0.08358
 Alpha virt. eigenvalues --    0.09187   0.09559   0.09768   0.10287   0.10632
 Alpha virt. eigenvalues --    0.10968   0.11195   0.11719   0.12210   0.12657

  Beta  occ. eigenvalues --  -14.28468 -14.21623 -14.21025 -14.18475 -14.17601
  Beta  occ. eigenvalues --  -10.12364 -10.10632 -10.10329 -10.09519 -10.09188
  Beta  occ. eigenvalues --  -10.08989 -10.08372 -10.08150 -10.07753 -10.06325
  Beta  occ. eigenvalues --  -10.05926 -10.05833 -10.05394  -0.94881  -0.85286
  Beta  occ. eigenvalues --   -0.79748  -0.77328  -0.73968  -0.70579  -0.68388
  Beta  occ. eigenvalues --   -0.65343  -0.64233  -0.60411  -0.58766  -0.56690
  Beta  occ. eigenvalues --   -0.52694  -0.51873  -0.49573  -0.47876  -0.46361
  Beta  occ. eigenvalues --   -0.42307  -0.40597  -0.38973  -0.38079  -0.36938
  Beta  occ. eigenvalues --   -0.36717  -0.35853  -0.35350  -0.34338  -0.33604
  Beta  occ. eigenvalues --   -0.33423  -0.32150  -0.31028  -0.30279  -0.29414
  Beta  occ. eigenvalues --   -0.29248  -0.28825  -0.28494  -0.27324  -0.25956
  Beta  occ. eigenvalues --   -0.25894  -0.25119  -0.24145  -0.22735  -0.22018
  Beta  occ. eigenvalues --   -0.20415  -0.18992  -0.15232  -0.14934  -0.13986
  Beta  occ. eigenvalues --   -0.13725  -0.08445
  Beta virt. eigenvalues --    0.06540   0.07064   0.07714   0.08169   0.08392
  Beta virt. eigenvalues --    0.08659   0.09202   0.09682   0.10049   0.10468
  Beta virt. eigenvalues --    0.10670   0.11150   0.11172   0.11770   0.12211

 Mulliken charges and spin densities:
               1          2
     1  C   -0.602366  -0.150108
     2  C   -0.673579   0.294903
     3  N    0.011474   0.022999
     4  N    0.153860   0.056459
     5  C    0.107808   0.148069
     6  C   -0.208257  -0.052178
     7  N   -0.098915   0.114474
     8  C   -0.540943   0.090545
     9  C    0.199260  -0.158935
    10  C    0.292113  -0.067809
    11  N    0.119375   0.042971
    12  C   -0.148691   0.007869
    13  C    0.399670  -0.574010
    14  C   -0.009926  -0.723308
    15  N   -0.344921  -0.018439
    16  C   -0.281444   0.423878
    17  C   -0.257537  -0.271760
    18  C   -0.085557  -0.576560
    19  H    0.142166  -0.000210
    20  H    0.041438   0.112796
    21  H    0.116680   0.025715
    22  H    0.153424   0.006702
    23  H    0.116940   0.038411
    24  H   -0.044031   0.165701
    25  H    0.234733   0.049068
    26  H    0.370130  -0.299998
    27  H   -0.035940   0.205480
    28  H    0.274447  -0.138078
    29  H   -0.096716   0.263859
    30  H    0.021702   0.150236
    31  H   -0.310017   0.564056
    32  H    0.033820   0.197481
    33  H   -0.371437   0.494144
    34  H    0.080441   0.039225
    35  H   -0.036359   0.195202
    36  H    0.161080  -0.013497
    37  H    0.218006  -0.045746
    38  H   -0.096820   0.231607
    39  H   -0.005111   0.148784
 Sum of Mulliken charges =  -1.00000   1.00000

 Dipole moment (field-independent basis, Debye):
    X=              4.2611    Y=              3.4709    Z=              1.8857  Tot=              5.8103
 Quadrupole moment (field-independent basis, Debye-Ang):
   XX=           -190.6924   YY=           -141.1679   ZZ=           -142.1730
   XY=            -10.1829   XZ=             -9.4993   YZ=             -1.3153

 Summary of Natural Population Analysis:

                                       Natural Population
                Natural  -----------------------------------------------
    Atom  No    Charge         Core      Valence    Rydberg      Total
 -----------------------------------------------------------------------
      C    1   -0.29715      0.99963     2.29280    0.00472     3.29715
      C    2    0.07019      0.99961     1.91692    0.01329     2.92981
      N    3   -0.16852      0.99971     2.65704    0.01177     3.66852
      N    4   -0.04952      0.99961     2.53833    0.01159     3.54952
      C    5   -0.01316      0.99956     2.00215    0.01146     3.01316
      C    6   -0.01570      0.99959     2.00183    0.01428     3.01570
      N    7   -0.24713      0.99967     2.73663    0.01082     3.74713
      C    8    0.23702      0.99953     1.74953    0.01392     2.76298
      C    9    0.04920      0.99953     1.94204    0.00923     2.95080
      C   10   -0.15584      0.99948     2.14835    0.00801     3.15584
      N   11   -0.31100      0.99967     2.80089    0.01044     3.81100
      C   12   -0.00322      0.99956     1.99109    0.01257     3.00322
      C   13   -0.20322      0.99960     2.19386    0.00976     3.20322
      C   14   -0.09377      0.99962     2.08221    0.01193     3.09377
      N   15   -0.42631      0.99977     2.91559    0.01094     3.92631
      C   16   -0.11368      0.99960     2.10340    0.01068     3.11368
      C   17   -0.28320      0.99965     2.27867    0.00488     3.28320
      C   18   -0.28938      0.99964     2.28465    0.00509     3.28938
      H   19    0.09995      0.00000     0.39891    0.00113     0.40005
      H   20    0.10182      0.00000     0.39686    0.00132     0.39818
      H   21    0.10654      0.00000     0.39228    0.00117     0.39346
      H   22    0.10318      0.00000     0.39584    0.00097     0.39682
      H   23    0.09049      0.00000     0.40857    0.00095     0.40951
      H   24    0.10573      0.00000     0.39331    0.00096     0.39427
      H   25    0.18864      0.00000     0.30770    0.00365     0.31136
      H   26    0.09315      0.00000     0.40509    0.00176     0.40685
      H   27    0.10144      0.00000     0.39735    0.00121     0.39856
      H   28    0.10625      0.00000     0.39261    0.00114     0.39375
      H   29    0.09041      0.00000     0.40861    0.00099     0.40959
      H   30    0.08609      0.00000     0.41206    0.00185     0.41391
      H   31    0.17747      0.00000     0.31948    0.00305     0.32253
      H   32    0.17241      0.00000     0.32450    0.00309     0.32759
      H   33    0.08961      0.00000     0.40781    0.00258     0.41039
      H   34    0.09364      0.00000     0.40549    0.00087     0.40636
      H   35    0.09637      0.00000     0.40286    0.00077     0.40363
      H   36    0.10645      0.00000     0.39263    0.00092     0.39355
      H   37    0.11409      0.00000     0.38438    0.00154     0.38591
      H   38    0.09736      0.00000     0.40172    0.00092     0.40264
      H   39    0.09327      0.00000     0.40581    0.00092     0.40673
 =======================================================================
   * Total *    0.00000     17.99301    48.78985    0.21714    67.00000

 Normal termination of Gaussian 16 at Fri Dec 11 21:27:24 2020.
