 Gaussian 16, Revision A.03,

 -----------------------------------------------------------
 # opt freq B3LYP/6-31G(d) empiricaldispersion=gd3bj scf=xqc
 -----------------------------------------------------------

 ------------------------------
 CID_65554873_JID_7386_neutraal
 ------------------------------
 Symbolic Z-matrix:
 Charge =  0 Multiplicity = 1

 SCF Done:  E(RB3LYP) =  -1143.50176402     A.U. after   15 cycles
 SCF Done:  E(RB3LYP) =  -1143.50774667     A.U. after   12 cycles
 SCF Done:  E(RB3LYP) =  -1143.50835004     A.U. after   12 cycles
 SCF Done:  E(RB3LYP) =  -1143.50888343     A.U. after   13 cycles
 SCF Done:  E(RB3LYP) =  -1143.50981791     A.U. after   13 cycles
 SCF Done:  E(RB3LYP) =  -1143.51010189     A.U. after   12 cycles
 SCF Done:  E(RB3LYP) =  -1143.51019187     A.U. after   11 cycles
 SCF Done:  E(RB3LYP) =  -1143.51022480     A.U. after   11 cycles
 SCF Done:  E(RB3LYP) =  -1143.51024218     A.U. after    9 cycles
 SCF Done:  E(RB3LYP) =  -1143.51026246     A.U. after   10 cycles
 SCF Done:  E(RB3LYP) =  -1143.51026965     A.U. after   10 cycles
 SCF Done:  E(RB3LYP) =  -1143.51027288     A.U. after   10 cycles
 SCF Done:  E(RB3LYP) =  -1143.51027358     A.U. after    9 cycles
 SCF Done:  E(RB3LYP) =  -1143.51027376     A.U. after    8 cycles
 SCF Done:  E(RB3LYP) =  -1143.51027386     A.U. after    7 cycles
 Optimization completed.
    -- Stationary point found.
 Normal termination of Gaussian 16 at Sun Dec 13 16:10:05 2020.

 --------------------------------------------------------------------
 #N Geom=AllCheck Guess=TCheck SCRF=Check GenChk RB3LYP/6-31G(d) Freq
 --------------------------------------------------------------------

 Structure from the checkpoint file:  "JID_7386.chk"
 ------------------------------
 CID_65554873_JID_7386_neutraal
 ------------------------------
 Charge =  0 Multiplicity = 1

 SCF Done:  E(RB3LYP) =  -1143.51027386     A.U. after    1 cycles

  Exact polarizability: 181.612  14.690 128.874  -2.466  -2.748 146.932
 Approx polarizability: 244.889  33.586 184.501  -2.333  -2.656 256.386

                      1                      2                      3
                      A                      A                      A
 Frequencies --     25.9321                34.5435                48.6025
 Red. masses --      4.1620                 2.8528                 4.1096
 Frc consts  --      0.0016                 0.0020                 0.0057
 IR Inten    --      0.4704                 1.5368                 2.0814

                      4                      5                      6
                      A                      A                      A
 Frequencies --     69.5595                89.3198               116.7218
 Red. masses --      4.2980                 2.2575                 1.4127
 Frc consts  --      0.0123                 0.0106                 0.0113
 IR Inten    --      1.0467                 7.8438                25.0281

                      7                      8                      9
                      A                      A                      A
 Frequencies --    119.9736               141.7004               165.2147
 Red. masses --      4.7432                 3.3718                 2.7049
 Frc consts  --      0.0402                 0.0399                 0.0435
 IR Inten    --      2.1557                 3.4417                14.6189

                     10                     11                     12
                      A                      A                      A
 Frequencies --    185.0010               199.7294               207.9952
 Red. masses --      3.9521                 1.9473                 5.3369
 Frc consts  --      0.0797                 0.0458                 0.1360
 IR Inten    --      0.8904                 0.2062                 0.6178

                     13                     14                     15
                      A                      A                      A
 Frequencies --    235.4180               262.1043               280.2141
 Red. masses --      1.7415                 1.1790                 2.6446
 Frc consts  --      0.0569                 0.0477                 0.1223
 IR Inten    --      1.7866                 0.1914                 0.9539

                     16                     17                     18
                      A                      A                      A
 Frequencies --    292.9797               299.8120               307.0059
 Red. masses --      3.1380                 4.0383                 3.8056
 Frc consts  --      0.1587                 0.2139                 0.2113
 IR Inten    --      2.8337                 7.7711                 1.4968

                     19                     20                     21
                      A                      A                      A
 Frequencies --    315.6686               379.5099               415.6039
 Red. masses --      3.5612                 4.0596                 3.5869
 Frc consts  --      0.2091                 0.3445                 0.3650
 IR Inten    --      5.5355                 1.6141                 1.3180

                     22                     23                     24
                      A                      A                      A
 Frequencies --    425.2162               483.8585               512.1610
 Red. masses --      4.1386                 6.8764                 3.6521
 Frc consts  --      0.4409                 0.9485                 0.5644
 IR Inten    --      0.4934                47.2733                18.8981

                     25                     26                     27
                      A                      A                      A
 Frequencies --    540.7818               558.5008               597.1644
 Red. masses --      4.5906                 2.7636                 1.5509
 Frc consts  --      0.7910                 0.5079                 0.3259
 IR Inten    --     42.4050                 3.3441                50.1811

                     28                     29                     30
                      A                      A                      A
 Frequencies --    623.7807               630.9352               650.0693
 Red. masses --      3.2033                 3.6830                 5.7662
 Frc consts  --      0.7344                 0.8638                 1.4357
 IR Inten    --     22.7407                33.1619                10.4413

                     31                     32                     33
                      A                      A                      A
 Frequencies --    709.9778               764.7531               784.4367
 Red. masses --      3.3307                 2.2878                 1.8471
 Frc consts  --      0.9892                 0.7883                 0.6697
 IR Inten    --     93.6830                 1.9744                28.3809

                     34                     35                     36
                      A                      A                      A
 Frequencies --    795.3090               819.0560               842.9262
 Red. masses --      1.4761                 2.9643                 1.4876
 Frc consts  --      0.5501                 1.1717                 0.6228
 IR Inten    --     30.0950                32.5566                88.8652

                     37                     38                     39
                      A                      A                      A
 Frequencies --    869.1163               880.1515               906.9401
 Red. masses --      1.7600                 2.3501                 1.3101
 Frc consts  --      0.7833                 1.0726                 0.6349
 IR Inten    --     12.9389                32.2522                 0.5748

                     40                     41                     42
                      A                      A                      A
 Frequencies --    948.8027               970.1713               974.3375
 Red. masses --      1.8956                 1.9076                 1.3846
 Frc consts  --      1.0054                 1.0579                 0.7745
 IR Inten    --     11.4287                 3.6090                 0.1384

                     43                     44                     45
                      A                      A                      A
 Frequencies --    989.1994              1006.5336              1020.3517
 Red. masses --      2.3358                 1.2872                 6.8677
 Frc consts  --      1.3467                 0.7684                 4.2127
 IR Inten    --     59.3241                 0.0913                 5.5526

                     46                     47                     48
                      A                      A                      A
 Frequencies --   1047.8102              1070.3350              1082.7996
 Red. masses --      2.0399                 1.8990                 1.9171
 Frc consts  --      1.3196                 1.2818                 1.3243
 IR Inten    --      5.0340                 2.7417                 4.4807

                     49                     50                     51
                      A                      A                      A
 Frequencies --   1083.4877              1104.1580              1120.0485
 Red. masses --      1.8979                 2.3698                 2.6278
 Frc consts  --      1.3127                 1.7022                 1.9423
 IR Inten    --      7.4248                52.6189                61.0468

                     52                     53                     54
                      A                      A                      A
 Frequencies --   1120.4063              1128.0520              1158.1373
 Red. masses --      2.7953                 1.6709                 2.2505
 Frc consts  --      2.0675                 1.2527                 1.7785
 IR Inten    --    109.7838                 8.2911                24.1836

                     55                     56                     57
                      A                      A                      A
 Frequencies --   1163.7989              1188.7340              1232.2492
 Red. masses --      2.2619                 1.1276                 1.3602
 Frc consts  --      1.8050                 0.9388                 1.2169
 IR Inten    --     18.8892                 3.6401                 7.8159

                     58                     59                     60
                      A                      A                      A
 Frequencies --   1247.8891              1281.4943              1289.2125
 Red. masses --      1.9882                 1.4266                 2.1206
 Frc consts  --      1.8242                 1.3804                 2.0766
 IR Inten    --      3.5961                47.2093                30.2463

                     61                     62                     63
                      A                      A                      A
 Frequencies --   1297.8795              1322.0580              1331.5662
 Red. masses --      1.4858                 5.2594                 2.2270
 Frc consts  --      1.4746                 5.4161                 2.3265
 IR Inten    --      5.7190                90.1991                32.9684

                     64                     65                     66
                      A                      A                      A
 Frequencies --   1335.8448              1356.0356              1373.8753
 Red. masses --      1.5930                 1.2748                 1.2291
 Frc consts  --      1.6749                 1.3811                 1.3669
 IR Inten    --      5.3032                 0.9454                 6.0786

                     67                     68                     69
                      A                      A                      A
 Frequencies --   1378.9453              1392.2573              1427.1169
 Red. masses --      1.3588                 1.4646                 1.3604
 Frc consts  --      1.5223                 1.6727                 1.6324
 IR Inten    --     29.8868                 6.8337                 7.5452

                     70                     71                     72
                      A                      A                      A
 Frequencies --   1433.4409              1442.6040              1444.6738
 Red. masses --      1.2399                 1.2273                 1.3802
 Frc consts  --      1.5010                 1.5049                 1.6972
 IR Inten    --     14.6420                 1.3042               158.8101

                     73                     74                     75
                      A                      A                      A
 Frequencies --   1483.8620              1517.4256              1521.9780
 Red. masses --      1.9754                 1.1588                 1.0670
 Frc consts  --      2.5627                 1.5720                 1.4563
 IR Inten    --     22.9033                11.5305                 2.7667

                     76                     77                     78
                      A                      A                      A
 Frequencies --   1526.4833              1528.4646              1534.0115
 Red. masses --      1.8011                 1.0542                 1.1081
 Frc consts  --      2.4727                 1.4511                 1.5363
 IR Inten    --     21.2674                 2.0234                 7.0864

                     79                     80                     81
                      A                      A                      A
 Frequencies --   1535.7426              1538.2546              1632.0184
 Red. masses --      1.0811                 1.0628                 6.0430
 Frc consts  --      1.5022                 1.4817                 9.4832
 IR Inten    --      9.8002                 4.7222                17.6859

                     82                     83                     84
                      A                      A                      A
 Frequencies --   1656.7991              1696.9588              3010.4702
 Red. masses --      5.4102                 1.0905                 1.0725
 Frc consts  --      8.7499                 1.8501                 5.7268
 IR Inten    --     47.1205                26.0578                55.2066

                     85                     86                     87
                      A                      A                      A
 Frequencies --   3045.3897              3060.1074              3067.4063
 Red. masses --      1.0366                 1.0366                 1.0830
 Frc consts  --      5.6646                 5.7193                 6.0037
 IR Inten    --     34.5349                24.1363                 4.7386

                     88                     89                     90
                      A                      A                      A
 Frequencies --   3074.8249              3086.3514              3100.6753
 Red. masses --      1.0810                 1.0665                 1.0998
 Frc consts  --      6.0215                 5.9856                 6.2297
 IR Inten    --      7.9796                11.0740                24.1117

                     91                     92                     93
                      A                      A                      A
 Frequencies --   3104.1108              3120.9712              3132.2751
 Red. masses --      1.0923                 1.1003                 1.1013
 Frc consts  --      6.2012                 6.3148                 6.3661
 IR Inten    --      9.6726                29.7468                23.2545

                     94                     95                     96
                      A                      A                      A
 Frequencies --   3138.0986              3161.8801              3178.1354
 Red. masses --      1.1026                 1.1027                 1.0892
 Frc consts  --      6.3972                 6.4954                 6.4822
 IR Inten    --     25.1316                 7.4411                20.6263

                     97                     98                     99
                      A                      A                      A
 Frequencies --   3195.7115              3211.2467              3221.3590
 Red. masses --      1.0878                 1.0928                 1.0977
 Frc consts  --      6.5452                 6.6398                 6.7115
 IR Inten    --      5.4104                16.5762                16.2607

                    100                    101                    102
                      A                      A                      A
 Frequencies --   3505.2288              3507.6584              3599.4408
 Red. masses --      1.0747                 1.0510                 1.0936
 Frc consts  --      7.7801                 7.6186                 8.3480
 IR Inten    --    143.8291                 3.5824                 2.1049

 - Thermochemistry -
 -------------------
 Temperature   298.150 Kelvin.  Pressure   1.00000 Atm.
 Atom     1 has atomic number  6 and mass  12.00000

 Molecular mass:   257.11980 amu.
 Principal axes and moments of inertia in atomic units:
                           1         2         3
     Eigenvalues --  2718.920756242.353266969.58904
           X            0.99946  -0.03238  -0.00612
           Y            0.03218   0.99900  -0.03095
           Z            0.00712   0.03074   0.99950
 This molecule is an asymmetric top.
 Rotational symmetry number  1.
 Warning -- assumption of classical behavior for rotation
           may cause significant error
 Rotational temperatures (Kelvin)      0.03186     0.01388     0.01243
 Rotational constants (GHZ):           0.66377     0.28911     0.25895
 Zero-point vibrational energy     801769.5 (Joules/Mol)
                                  191.62751 (Kcal/Mol)
 Warning -- explicit consideration of  27 degrees of freedom as
           vibrations may cause significant error
 Vibrational temperatures:     37.31    49.70    69.93   100.08   128.51
          (Kelvin)            167.94   172.62   203.88   237.71   266.18
                              287.37   299.26   338.71   377.11   403.17
                              421.53   431.36   441.71   454.18   546.03
                              597.96   611.79   696.16   736.89   778.06
                              803.56   859.19   897.48   907.77   935.30
                             1021.50  1100.31  1128.63  1144.27  1178.44
                             1212.78  1250.46  1266.34  1304.88  1365.12
                             1395.86  1401.85  1423.24  1448.18  1468.06
                             1507.57  1539.97  1557.91  1558.90  1588.64
                             1611.50  1612.01  1623.02  1666.30  1674.45
                             1710.32  1772.93  1795.43  1843.78  1854.89
                             1867.36  1902.15  1915.83  1921.98  1951.03
                             1976.70  1983.99  2003.15  2053.30  2062.40
                             2075.59  2078.56  2134.95  2183.24  2189.79
                             2196.27  2199.12  2207.10  2209.59  2213.21
                             2348.11  2383.76  2441.55  4331.40  4381.64
                             4402.81  4413.31  4423.99  4440.57  4461.18
                             4466.12  4490.38  4506.65  4515.02  4549.24
                             4572.63  4597.92  4620.27  4634.82  5043.24
                             5046.74  5178.79

 Zero-point correction=                           0.305378 (Hartree/Particle)
 Thermal correction to Energy=                    0.323498
 Thermal correction to Enthalpy=                  0.324442
 Thermal correction to Gibbs Free Energy=         0.258384
 Sum of electronic and zero-point Energies=          -1143.204896
 Sum of electronic and thermal Energies=             -1143.186776
 Sum of electronic and thermal Enthalpies=           -1143.185831
 Sum of electronic and thermal Free Energies=        -1143.251890

                     E (Thermal)             CV                S
                      KCal/Mol        Cal/Mol-Kelvin    Cal/Mol-Kelvin
 Total                  202.998             67.686            139.031
 Electronic               0.000              0.000              0.000
 Translational            0.889              2.981             42.533
 Rotational               0.889              2.981             33.136
 Vibrational            201.221             61.725             63.362
 Vibration     1          0.593              1.985              6.119
 Vibration     2          0.594              1.983              5.550
 Vibration     3          0.595              1.978              4.873
 Vibration     4          0.598              1.969              4.166
 Vibration     5          0.602              1.957              3.675
 Vibration     6          0.608              1.935              3.154
 Vibration     7          0.609              1.933              3.101
 Vibration     8          0.615              1.912              2.781
 Vibration     9          0.624              1.885              2.489
 Vibration    10          0.631              1.860              2.277
 Vibration    11          0.638              1.840              2.136
 Vibration    12          0.641              1.828              2.061
 Vibration    13          0.655              1.787              1.837
 Vibration    14          0.669              1.742              1.648
 Vibration    15          0.680              1.710              1.532
 Vibration    16          0.688              1.687              1.457
 Vibration    17          0.692              1.674              1.418
 Vibration    18          0.697              1.660              1.378
 Vibration    19          0.703              1.644              1.332
 Vibration    20          0.750              1.514              1.041
 Vibration    21          0.779              1.436              0.907
 Vibration    22          0.787              1.415              0.874
 Vibration    23          0.840              1.286              0.700
 Vibration    24          0.867              1.223              0.628
 Vibration    25          0.896              1.160              0.564
 Vibration    26          0.914              1.121              0.527
 Vibration    27          0.955              1.038              0.455

                           ! Non-Optimized Parameters !
 Normal termination of Gaussian 16 at Sun Dec 13 16:24:44 2020.

 ----------------------------------------------------------------------
 # B3LYP/6-311++G(d,p) empiricaldispersion=gd3bj scf=xqc pop=npa geom=c
 heck
 ----------------------------------------------------------------------

 --------------------------------------
 CID_65554873_JID_7386_Energie_neutraal
 --------------------------------------
 Structure from the checkpoint file:  "JID_7386.chk"
 Charge =  0 Multiplicity = 1

 SCF Done:  E(RB3LYP) =  -1143.75604702     A.U. after   16 cycles
 Normal termination of Gaussian 16 at Sun Dec 13 16:32:56 2020.

 ----------------------------------------------------------------------
 # B3LYP/6-311++G(d,p) empiricaldispersion=gd3bj scf=xqc pop=npa geom=c
 heck
 ----------------------------------------------------------------------

 ------------------------------------
 CID_65554873_JID_7386_Energie_kation
 ------------------------------------
 Structure from the checkpoint file:  "JID_7386.chk"
 Charge =  1 Multiplicity = 2

 SCF Done:  E(UB3LYP) =  -1143.44071996     A.U. after   25 cycles
 Normal termination of Gaussian 16 at Sun Dec 13 16:51:34 2020.
 Gaussian 16:  ES64L-G16RevA.03 25-Dec-2016

 ----------------------------------------------------------------------
 # B3LYP/6-311++G(d,p) empiricaldispersion=gd3bj scf=xqc pop=npa geom=c
 heck
 ----------------------------------------------------------------------

 -----------------------------------
 CID_65554873_JID_7386_Energie_anion
 -----------------------------------
 Structure from the checkpoint file:  "JID_7386.chk"
 Charge = -1 Multiplicity = 2

                         Standard orientation:
 ---------------------------------------------------------------------
 Center     Atomic      Atomic             Coordinates (Angstroms)
 Number     Number       Type             X           Y           Z
 ---------------------------------------------------------------------
      1          6           0       -3.203936    2.452416    1.278664
      2          6           0       -2.450598    1.123115    1.154223
      3          6           0       -2.308791    0.678761   -0.302756
      4          6           0       -1.411133    1.586146   -1.160707
      5          7           0       -0.161006    1.920263   -0.471107
      6         16           0       -1.790026   -1.088353   -0.474218
      7          8           0       -2.276635   -1.799908    0.715168
      8          8           0       -2.202329   -1.470289   -1.830624
      9          7           0       -0.139937   -1.221174   -0.475837
     10          6           0        0.658902   -0.967572    0.722555
     11          6           0        0.908632   -2.283082    1.475938
     12          6           0        1.960916   -0.295023    0.311124
     13          6           0        2.862468    0.154257    1.283524
     14          6           0        4.049684    0.753046    0.878195
     15          6           0        4.310966    0.881931   -0.487448
     16          6           0        3.358400    0.404085   -1.382021
     17          7           0        2.208976   -0.167241   -0.997907
     18          1           0       -2.675065    3.275796    0.783509
     19          1           0       -3.328298    2.727812    2.331230
     20          1           0       -4.202348    2.385283    0.830612
     21          1           0       -1.455189    1.218786    1.599318
     22          1           0       -2.977089    0.341292    1.707323
     23          1           0       -3.300823    0.633541   -0.768882
     24          1           0       -1.183515    1.071036   -2.099112
     25          1           0       -1.999044    2.473743   -1.437961
     26          1           0        0.604296    2.007071   -1.131826
     27          1           0       -0.243622    2.808350    0.015933
     28          1           0        0.309131   -0.900652   -1.332660
     29          1           0        0.135273   -0.271272    1.385951
     30          1           0        1.455011   -2.982730    0.836138
     31          1           0        1.487216   -2.114494    2.391051
     32          1           0       -0.053764   -2.727032    1.740037
     33          1           0        2.627777    0.040735    2.337215
     34          1           0        4.761089    1.116212    1.614478
     35          1           0        5.225888    1.339924   -0.848991
     36          1           0        3.515911    0.480416   -2.456019
 ---------------------------------------------------------------------

 SCF Done:  E(UB3LYP) =  -1143.75424960     A.U. after   33 cycles
 SCF Done:  E(UB3LYP) =  -1143.75424960     a.u. after    1 cycles

 The electronic state is 2-A.
 Alpha  occ. eigenvalues --  -88.95246 -19.01041 -19.00805 -14.22775 -14.19719
 Alpha  occ. eigenvalues --  -14.19432 -10.11786 -10.11052 -10.11050 -10.10900
 Alpha  occ. eigenvalues --  -10.09354 -10.07778 -10.07449 -10.07383 -10.07177
 Alpha  occ. eigenvalues --  -10.06656 -10.06407  -8.01432  -5.97716  -5.97694
 Alpha  occ. eigenvalues --   -5.97492  -1.01095  -0.90236  -0.84792  -0.81402
 Alpha  occ. eigenvalues --   -0.79204  -0.71114  -0.69526  -0.68543  -0.63856
 Alpha  occ. eigenvalues --   -0.63066  -0.56523  -0.55415  -0.53065  -0.52083
 Alpha  occ. eigenvalues --   -0.49434  -0.47900  -0.43566  -0.41850  -0.40370
 Alpha  occ. eigenvalues --   -0.39958  -0.38986  -0.36992  -0.36645  -0.35947
 Alpha  occ. eigenvalues --   -0.35229  -0.34640  -0.33423  -0.32504  -0.31250
 Alpha  occ. eigenvalues --   -0.30272  -0.29777  -0.29562  -0.28920  -0.28389
 Alpha  occ. eigenvalues --   -0.27712  -0.27496  -0.25674  -0.24920  -0.24549
 Alpha  occ. eigenvalues --   -0.23444  -0.21534  -0.20398  -0.19353  -0.18695
 Alpha  occ. eigenvalues --   -0.17109  -0.16016  -0.15652  -0.14306   0.03904
 Alpha virt. eigenvalues --    0.05850   0.06582   0.07361   0.07925   0.08299
 Alpha virt. eigenvalues --    0.08508   0.08791   0.09843   0.10383   0.10711
 Alpha virt. eigenvalues --    0.10950   0.11731   0.12341   0.12694   0.13251

  Beta  occ. eigenvalues --  -88.95245 -19.01042 -19.00805 -14.22774 -14.19528
  Beta  occ. eigenvalues --  -14.19399 -10.11779 -10.11090 -10.11046 -10.10883
  Beta  occ. eigenvalues --  -10.09212 -10.07769 -10.07446 -10.07246 -10.07137
  Beta  occ. eigenvalues --  -10.06540 -10.06409  -8.01430  -5.97712  -5.97693
  Beta  occ. eigenvalues --   -5.97490  -1.01092  -0.90236  -0.84595  -0.81298
  Beta  occ. eigenvalues --   -0.79150  -0.71080  -0.69196  -0.68468  -0.63767
  Beta  occ. eigenvalues --   -0.62982  -0.56484  -0.55363  -0.52844  -0.51893
  Beta  occ. eigenvalues --   -0.49355  -0.47843  -0.43515  -0.41783  -0.40338
  Beta  occ. eigenvalues --   -0.39923  -0.38907  -0.36928  -0.36530  -0.35860
  Beta  occ. eigenvalues --   -0.35205  -0.34603  -0.33336  -0.32474  -0.31162
  Beta  occ. eigenvalues --   -0.30210  -0.29672  -0.29467  -0.28840  -0.28225
  Beta  occ. eigenvalues --   -0.27676  -0.27169  -0.25637  -0.24878  -0.24518
  Beta  occ. eigenvalues --   -0.23436  -0.21531  -0.20392  -0.19343  -0.17708
  Beta  occ. eigenvalues --   -0.17031  -0.15809  -0.15319  -0.14098
  Beta virt. eigenvalues --    0.06254   0.06846   0.07668   0.07890   0.08249
  Beta virt. eigenvalues --    0.08636   0.08794   0.09020   0.09993   0.10529
  Beta virt. eigenvalues --    0.10847   0.11202   0.11878   0.12508   0.12740

 Mulliken charges and spin densities:
               1          2
     1  C    0.862310  -1.490460
     2  C   -1.009296   0.657664
     3  C   -0.483444   0.590405
     4  C    0.564820  -1.364010
     5  N   -0.406396   0.011323
     6  S    0.296279   0.001434
     7  O   -0.163766   0.001169
     8  O   -0.162788  -0.000866
     9  N   -0.086747  -0.012652
    10  C    1.251336  -1.159065
    11  C   -0.514408  -0.079550
    12  C   -0.442506   0.170751
    13  C   -1.359930   1.175645
    14  C    0.565106  -0.794044
    15  C    0.047620  -0.275384
    16  C   -0.242852   0.219809
    17  N   -0.088963   0.116303
    18  H   -0.344567   0.503084
    19  H   -0.231198   0.375990
    20  H   -0.065992   0.194110
    21  H    0.079490   0.055676
    22  H    0.121920   0.068442
    23  H    0.238798   0.023784
    24  H    0.222503   0.002829
    25  H   -0.185426   0.364136
    26  H    0.122241   0.143426
    27  H   -0.044243   0.305552
    28  H    0.314126   0.038130
    29  H    0.265731  -0.016613
    30  H    0.150722   0.004536
    31  H    0.095402   0.018898
    32  H    0.181161  -0.012635
    33  H   -0.170399   0.331437
    34  H   -0.164741   0.314139
    35  H   -0.201720   0.356776
    36  H   -0.010184   0.159831
 Sum of Mulliken charges =  -1.00000   1.00000

 Dipole moment (field-independent basis, Debye):
    X=              0.1792    Y=             -2.2716    Z=              0.2107  Tot=              2.2884
 Quadrupole moment (field-independent basis, Debye-Ang):
   XX=           -173.5009   YY=           -160.5442   ZZ=           -140.2080
   XY=             -3.7747   XZ=             -0.2071   YZ=             -6.3938

 Summary of Natural Population Analysis:

                                       Natural Population
                Natural  -----------------------------------------------
    Atom  No    Charge         Core      Valence    Rydberg      Total
 -----------------------------------------------------------------------
      C    1   -0.28464      0.99966     2.27955    0.00543     3.28464
      C    2   -0.20800      0.99960     2.19841    0.00998     3.20800
      C    3   -0.19630      0.99953     2.18080    0.01597     3.19630
      C    4   -0.10328      0.99959     2.09021    0.01348     3.10328
      N    5   -0.43079      0.99977     2.91867    0.01235     3.93079
      S    6    1.10738      4.99922     1.79251    0.10090     6.89262
      O    7   -0.47360      0.99991     3.46852    0.00517     4.47360
      O    8   -0.47410      0.99991     3.46900    0.00520     4.47410
      N    9   -0.44731      0.99970     2.93527    0.01234     3.94731
      C   10   -0.03034      0.99955     2.01720    0.01359     3.03034
      C   11   -0.28262      0.99964     2.27816    0.00482     3.28262
      C   12    0.11380      0.99951     1.87096    0.01572     2.88620
      C   13   -0.10305      0.99950     2.09459    0.00897     3.10305
      C   14   -0.05050      0.99957     2.04079    0.01015     3.05050
      C   15   -0.13752      0.99956     2.12897    0.00899     3.13752
      C   16    0.05082      0.99958     1.93508    0.01452     2.94918
      N   17   -0.24266      0.99965     2.73148    0.01153     3.74266
      H   18    0.09819      0.00000     0.40021    0.00160     0.40181
      H   19    0.10201      0.00000     0.39715    0.00084     0.39799
      H   20    0.09512      0.00000     0.40391    0.00097     0.40488
      H   21    0.10567      0.00000     0.39264    0.00169     0.39433
      H   22    0.11025      0.00000     0.38850    0.00125     0.38975
      H   23    0.11282      0.00000     0.38591    0.00128     0.38718
      H   24    0.10106      0.00000     0.39752    0.00142     0.39894
      H   25    0.09102      0.00000     0.40765    0.00133     0.40898
      H   26    0.18622      0.00000     0.31142    0.00236     0.31378
      H   27    0.17879      0.00000     0.31846    0.00275     0.32121
      H   28    0.21710      0.00000     0.27979    0.00310     0.28290
      H   29    0.10512      0.00000     0.39244    0.00244     0.39488
      H   30    0.09944      0.00000     0.39970    0.00086     0.40056
      H   31    0.09582      0.00000     0.40348    0.00071     0.40418
      H   32    0.10948      0.00000     0.38957    0.00095     0.39052
      H   33    0.10029      0.00000     0.39872    0.00099     0.39971
      H   34    0.09694      0.00000     0.40216    0.00090     0.40306
      H   35    0.10084      0.00000     0.39832    0.00084     0.39916
      H   36    0.08655      0.00000     0.41257    0.00088     0.41345
 =======================================================================
   * Total *    0.00000     20.99344    47.71027    0.29629    69.00000

 Normal termination of Gaussian 16 at Sun Dec 13 17:14:26 2020.
