 Gaussian 16, Revision A.03,

 -----------------------------------------------------------
 # opt freq B3LYP/6-31G(d) empiricaldispersion=gd3bj scf=xqc
 -----------------------------------------------------------

 ------------------------------
 CID_55170425_JID_9318_neutraal
 ------------------------------
 Symbolic Z-matrix:
 Charge =  0 Multiplicity = 1

 SCF Done:  E(RB3LYP) =  -838.627586929     A.U. after   15 cycles
 SCF Done:  E(RB3LYP) =  -838.532746087     A.U. after   15 cycles
 SCF Done:  E(RB3LYP) =  -838.630535671     A.U. after   13 cycles
 SCF Done:  E(RB3LYP) =  -838.633001536     A.U. after   13 cycles
 SCF Done:  E(RB3LYP) =  -838.633682835     A.U. after   12 cycles
 SCF Done:  E(RB3LYP) =  -838.634060816     A.U. after   12 cycles
 SCF Done:  E(RB3LYP) =  -838.634442859     A.U. after   12 cycles
 SCF Done:  E(RB3LYP) =  -838.634871786     A.U. after   12 cycles
 SCF Done:  E(RB3LYP) =  -838.635242800     A.U. after   12 cycles
 SCF Done:  E(RB3LYP) =  -838.635400509     A.U. after   12 cycles
 SCF Done:  E(RB3LYP) =  -838.635695093     A.U. after    8 cycles
 SCF Done:  E(RB3LYP) =  -838.635695837     A.U. after    9 cycles
 SCF Done:  E(RB3LYP) =  -838.635696302     A.U. after    7 cycles
 SCF Done:  E(RB3LYP) =  -838.635696549     A.U. after    7 cycles
 SCF Done:  E(RB3LYP) =  -838.635696602     A.U. after    7 cycles
 Optimization completed.
    -- Stationary point found.
 Normal termination of Gaussian 16 at Sun Dec 13 13:01:26 2020.

 --------------------------------------------------------------------
 #N Geom=AllCheck Guess=TCheck SCRF=Check GenChk RB3LYP/6-31G(d) Freq
 --------------------------------------------------------------------

 Structure from the checkpoint file:  "JID_9318.chk"
 ------------------------------
 CID_55170425_JID_9318_neutraal
 ------------------------------
 Charge =  0 Multiplicity = 1

 SCF Done:  E(RB3LYP) =  -838.635696602     A.U. after    1 cycles

  Exact polarizability: 192.712 -18.311 144.515  14.707  27.444 137.616
 Approx polarizability: 287.888 -38.176 232.436  21.811  65.735 237.866

                      1                      2                      3
                      A                      A                      A
 Frequencies --     32.2185                37.6429                60.7083
 Red. masses --      5.0407                 4.6637                 3.7660
 Frc consts  --      0.0031                 0.0039                 0.0082
 IR Inten    --      0.1507                 0.7506                 1.4982

                      4                      5                      6
                      A                      A                      A
 Frequencies --     73.6251                81.7741                95.8351
 Red. masses --      2.2499                 6.5891                 2.6037
 Frc consts  --      0.0072                 0.0260                 0.0141
 IR Inten    --      1.9266                 3.1262                 2.7705

                      7                      8                      9
                      A                      A                      A
 Frequencies --    109.6374               125.0256               179.5906
 Red. masses --      2.0532                 3.6996                 4.1498
 Frc consts  --      0.0145                 0.0341                 0.0789
 IR Inten    --      0.3501                 1.0351                 2.8954

                     10                     11                     12
                      A                      A                      A
 Frequencies --    196.3827               198.6657               217.4962
 Red. masses --      4.4180                 4.3429                 3.4413
 Frc consts  --      0.1004                 0.1010                 0.0959
 IR Inten    --      1.6868                 1.9275                 1.1447

                     13                     14                     15
                      A                      A                      A
 Frequencies --    239.7940               263.8943               268.9067
 Red. masses --      1.7163                 3.8205                 2.1947
 Frc consts  --      0.0581                 0.1568                 0.0935
 IR Inten    --     29.2846                 6.6674                16.6373

                     16                     17                     18
                      A                      A                      A
 Frequencies --    289.7441               335.8412               396.8377
 Red. masses --      2.1884                 3.5509                 2.0869
 Frc consts  --      0.1082                 0.2360                 0.1936
 IR Inten    --     22.1160                 3.7420                 1.4593

                     19                     20                     21
                      A                      A                      A
 Frequencies --    418.0259               428.9001               455.1831
 Red. masses --      3.8327                 3.3168                 3.9135
 Frc consts  --      0.3946                 0.3595                 0.4777
 IR Inten    --      3.9313                 2.5193                 4.9562

                     22                     23                     24
                      A                      A                      A
 Frequencies --    505.1228               536.4751               586.9616
 Red. masses --      4.0891                 4.8902                 3.7544
 Frc consts  --      0.6147                 0.8292                 0.7621
 IR Inten    --      3.4563                 5.4311                13.7917

                     25                     26                     27
                      A                      A                      A
 Frequencies --    603.4312               626.1025               637.3674
 Red. masses --      2.4882                 4.0272                 6.1141
 Frc consts  --      0.5338                 0.9301                 1.4634
 IR Inten    --     17.6409                 1.2573                 0.3084

                     28                     29                     30
                      A                      A                      A
 Frequencies --    656.3932               682.3878               715.3154
 Red. masses --      3.3575                 3.9449                 3.2229
 Frc consts  --      0.8523                 1.0823                 0.9716
 IR Inten    --      5.8073                34.6054                17.9297

                     31                     32                     33
                      A                      A                      A
 Frequencies --    718.2859               724.1984               756.9146
 Red. masses --      1.3263                 1.6988                 2.6101
 Frc consts  --      0.4032                 0.5250                 0.8810
 IR Inten    --     24.5418                61.0588                15.4600

                     34                     35                     36
                      A                      A                      A
 Frequencies --    766.0238               784.5731               817.1778
 Red. masses --      2.1986                 3.4573                 3.5354
 Frc consts  --      0.7601                 1.2539                 1.3910
 IR Inten    --     15.2178                49.3797                24.9860

                     37                     38                     39
                      A                      A                      A
 Frequencies --    836.9605               858.0072               868.7523
 Red. masses --      1.2869                 2.2550                 1.3919
 Frc consts  --      0.5311                 0.9781                 0.6190
 IR Inten    --      6.1042                13.8861                 1.3786

                     40                     41                     42
                      A                      A                      A
 Frequencies --    879.9721               932.4557               938.1805
 Red. masses --      2.0197                 1.4471                 1.7089
 Frc consts  --      0.9215                 0.7413                 0.8862
 IR Inten    --     99.8838                 4.7561                21.6422

                     43                     44                     45
                      A                      A                      A
 Frequencies --    949.5630               976.1076              1000.2950
 Red. masses --      5.5800                 1.3266                 1.3657
 Frc consts  --      2.9644                 0.7447                 0.8051
 IR Inten    --     10.5207                 0.5533                 5.2550

                     46                     47                     48
                      A                      A                      A
 Frequencies --   1006.0326              1022.0081              1035.4717
 Red. masses --      2.1192                 5.9282                 1.8680
 Frc consts  --      1.2637                 3.6482                 1.1800
 IR Inten    --     40.3280                 0.2785                 3.7093

                     49                     50                     51
                      A                      A                      A
 Frequencies --   1060.9140              1066.9187              1093.7172
 Red. masses --      2.2083                 1.9069                 1.8208
 Frc consts  --      1.4644                 1.2789                 1.2833
 IR Inten    --      1.6671                 7.5371                 0.5496

                     52                     53                     54
                      A                      A                      A
 Frequencies --   1111.3881              1129.4966              1160.9461
 Red. masses --      1.2450                 1.6717                 1.9893
 Frc consts  --      0.9061                 1.2565                 1.5797
 IR Inten    --      7.9870                15.2529                 4.0217

                     55                     56                     57
                      A                      A                      A
 Frequencies --   1162.2958              1187.7172              1192.4978
 Red. masses --      1.4845                 2.3712                 1.1891
 Frc consts  --      1.1816                 1.9708                 0.9963
 IR Inten    --      5.2473                16.7209                 0.7008

                     58                     59                     60
                      A                      A                      A
 Frequencies --   1195.9353              1216.6808              1218.3573
 Red. masses --      1.3655                 1.9151                 1.2520
 Frc consts  --      1.1507                 1.6703                 1.0950
 IR Inten    --      5.2479                 9.3374                 0.2394

                     61                     62                     63
                      A                      A                      A
 Frequencies --   1223.7970              1242.0251              1270.2271
 Red. masses --      1.9622                 1.8037                 1.1036
 Frc consts  --      1.7315                 1.6394                 1.0491
 IR Inten    --      8.8300                 5.8056                 5.9813

                     64                     65                     66
                      A                      A                      A
 Frequencies --   1296.1345              1323.4463              1361.0572
 Red. masses --      1.5809                 2.6188                 2.8311
 Frc consts  --      1.5648                 2.7025                 3.0900
 IR Inten    --      8.3903                29.6882                 4.8675

                     67                     68                     69
                      A                      A                      A
 Frequencies --   1363.7649              1370.0642              1375.4012
 Red. masses --      1.6102                 1.7363                 1.3181
 Frc consts  --      1.7645                 1.9202                 1.4692
 IR Inten    --     15.9107                 1.8117                 2.3005

                     70                     71                     72
                      A                      A                      A
 Frequencies --   1400.9672              1423.3310              1439.9493
 Red. masses --      3.2614                 1.6353                 2.0761
 Frc consts  --      3.7715                 1.9519                 2.5363
 IR Inten    --     23.7455                34.4124                53.1075

                     73                     74                     75
                      A                      A                      A
 Frequencies --   1464.3122              1495.8041              1502.4312
 Red. masses --      1.9591                 1.9118                 2.1893
 Frc consts  --      2.4750                 2.5202                 2.9117
 IR Inten    --     39.3907                41.7300                 6.9277

                     76                     77                     78
                      A                      A                      A
 Frequencies --   1514.5099              1516.0846              1522.4469
 Red. masses --      1.1056                 1.1004                 1.2402
 Frc consts  --      1.4941                 1.4902                 1.6937
 IR Inten    --      4.5827                12.1945                13.6888

                     79                     80                     81
                      A                      A                      A
 Frequencies --   1531.4203              1542.5601              1546.2283
 Red. masses --      1.7057                 1.1177                 2.1880
 Frc consts  --      2.3570                 1.5669                 3.0821
 IR Inten    --     34.5190                17.0868                10.4609

                     82                     83                     84
                      A                      A                      A
 Frequencies --   1549.0509              1581.3754              1640.5110
 Red. masses --      3.0648                 4.4213                 5.3903
 Frc consts  --      4.3330                 6.5143                 8.5471
 IR Inten    --     17.4065                 5.7628                 1.2544

                     85                     86                     87
                      A                      A                      A
 Frequencies --   1665.0168              1705.0230              1761.8291
 Red. masses --      5.5068                 1.0914                 7.5531
 Frc consts  --      8.9946                 1.8693                13.8136
 IR Inten    --      4.0972                34.9744               374.6214

                     88                     89                     90
                      A                      A                      A
 Frequencies --   3023.0174              3058.8945              3063.5940
 Red. masses --      1.0742                 1.0639                 1.0338
 Frc consts  --      5.7840                 5.8649                 5.7166
 IR Inten    --     34.7084                29.9710                31.0722

                     91                     92                     93
                      A                      A                      A
 Frequencies --   3097.6536              3118.4280              3127.4820
 Red. masses --      1.0860                 1.1007                 1.1052
 Frc consts  --      6.1396                 6.3066                 6.3691
 IR Inten    --     21.9767                 8.3275                 9.1124

                     94                     95                     96
                      A                      A                      A
 Frequencies --   3131.9233              3162.9547              3170.6576
 Red. masses --      1.0869                 1.1030                 1.0866
 Frc consts  --      6.2817                 6.5012                 6.4360
 IR Inten    --      7.5418                 8.2633                 8.5167

                     97                     98                     99
                      A                      A                      A
 Frequencies --   3185.9136              3199.0721              3205.2557
 Red. masses --      1.0886                 1.0917                 1.0920
 Frc consts  --      6.5103                 6.5828                 6.6099
 IR Inten    --     11.8998                14.7016                12.3854

                    100                    101                    102
                      A                      A                      A
 Frequencies --   3218.9409              3262.6443              3287.8270
 Red. masses --      1.0967                 1.0910                 1.1046
 Frc consts  --      6.6950                 6.8426                 7.0354
 IR Inten    --      7.5749                 6.1248                 5.6042

                    103                    104                    105
                      A                      A                      A
 Frequencies --   3472.2116              3534.4919              3558.3405
 Red. masses --      1.0502                 1.0751                 1.0924
 Frc consts  --      7.4598                 7.9131                 8.1495
 IR Inten    --      2.6931                75.3269                 1.8805

 - Thermochemistry -
 -------------------
 Temperature   298.150 Kelvin.  Pressure   1.00000 Atm.
 Atom     1 has atomic number  6 and mass  12.00000

 Molecular mass:   258.14806 amu.
 Principal axes and moments of inertia in atomic units:
                           1         2         3
     Eigenvalues --  3300.963415165.026566472.91260
           X            0.99998  -0.00456   0.00430
           Y            0.00448   0.99981   0.01921
           Z           -0.00438  -0.01919   0.99981
 This molecule is an asymmetric top.
 Rotational symmetry number  1.
 Warning -- assumption of classical behavior for rotation
           may cause significant error
 Rotational temperatures (Kelvin)      0.02624     0.01677     0.01338
 Rotational constants (GHZ):           0.54673     0.34942     0.27881
 Zero-point vibrational energy     820824.9 (Joules/Mol)
                                  196.18185 (Kcal/Mol)
 Warning -- explicit consideration of  25 degrees of freedom as
           vibrations may cause significant error
 Vibrational temperatures:     46.36    54.16    87.35   105.93   117.65
          (Kelvin)            137.89   157.74   179.88   258.39   282.55
                              285.84   312.93   345.01   379.68   386.90
                              416.88   483.20   570.96   601.45   617.09
                              654.91   726.76   771.87   844.51   868.20
                              900.82   917.03   944.40   981.80  1029.18
                             1033.45  1041.96  1089.03  1102.14  1128.83
                             1175.74  1204.20  1234.48  1249.94  1266.08
                             1341.60  1349.83  1366.21  1404.40  1439.20
                             1447.46  1470.44  1489.81  1526.42  1535.06
                             1573.62  1599.04  1625.09  1670.34  1672.28
                             1708.86  1715.74  1720.68  1750.53  1752.94
                             1760.77  1787.00  1827.57  1864.85  1904.14
                             1958.26  1962.15  1971.22  1978.90  2015.68
                             2047.86  2071.77  2106.82  2152.13  2161.66
                             2179.04  2181.31  2190.46  2203.37  2219.40
                             2224.68  2228.74  2275.25  2360.33  2395.59
                             2453.15  2534.88  4349.45  4401.07  4407.83
                             4456.83  4486.72  4499.75  4506.14  4550.79
                             4561.87  4583.82  4602.75  4611.65  4631.34
                             4694.22  4730.45  4995.74  5085.35  5119.66

 Zero-point correction=                           0.312636 (Hartree/Particle)
 Thermal correction to Energy=                    0.330291
 Thermal correction to Enthalpy=                  0.331235
 Thermal correction to Gibbs Free Energy=         0.266320
 Sum of electronic and zero-point Energies=           -838.323061
 Sum of electronic and thermal Energies=              -838.305406
 Sum of electronic and thermal Enthalpies=            -838.304461
 Sum of electronic and thermal Free Energies=         -838.369377

                     E (Thermal)             CV                S
                      KCal/Mol        Cal/Mol-Kelvin    Cal/Mol-Kelvin
 Total                  207.261             67.370            136.626
 Electronic               0.000              0.000              0.000
 Translational            0.889              2.981             42.545
 Rotational               0.889              2.981             33.067
 Vibrational            205.483             61.408             61.014
 Vibration     1          0.594              1.983              5.688
 Vibration     2          0.594              1.982              5.379
 Vibration     3          0.597              1.973              4.434
 Vibration     4          0.599              1.966              4.054
 Vibration     5          0.600              1.962              3.848
 Vibration     6          0.603              1.952              3.537
 Vibration     7          0.606              1.941              3.275
 Vibration     8          0.610              1.928              3.021
 Vibration     9          0.629              1.867              2.333
 Vibration    10          0.636              1.845              2.167
 Vibration    11          0.637              1.842              2.145
 Vibration    12          0.646              1.814              1.980
 Vibration    13          0.657              1.780              1.804
 Vibration    14          0.670              1.739              1.636
 Vibration    15          0.673              1.730              1.603
 Vibration    16          0.686              1.693              1.475
 Vibration    17          0.717              1.604              1.232
 Vibration    18          0.763              1.477              0.974
 Vibration    19          0.781              1.431              0.899
 Vibration    20          0.790              1.407              0.862
 Vibration    21          0.814              1.349              0.780
 Vibration    22          0.860              1.239              0.645
 Vibration    23          0.891              1.169              0.573
 Vibration    24          0.944              1.060              0.473
 Vibration    25          0.962              1.025              0.444

 Optimization completed.
    -- Stationary point found.
 Normal termination of Gaussian 16 at Sun Dec 13 13:25:17 2020.

 ----------------------------------------------------------------------
 # B3LYP/6-311++G(d,p) empiricaldispersion=gd3bj scf=xqc pop=npa geom=c
 heck
 ----------------------------------------------------------------------

 --------------------------------------
 CID_55170425_JID_9318_Energie_neutraal
 --------------------------------------
 Structure from the checkpoint file:  "JID_9318.chk"
 Charge =  0 Multiplicity = 1

 SCF Done:  E(RB3LYP) =  -838.873252919     A.U. after   16 cycles
 Normal termination of Gaussian 16 at Sun Dec 13 13:35:52 2020.

 ----------------------------------------------------------------------
 # B3LYP/6-311++G(d,p) empiricaldispersion=gd3bj scf=xqc pop=npa geom=c
 heck
 ----------------------------------------------------------------------

 ------------------------------------
 CID_55170425_JID_9318_Energie_kation
 ------------------------------------
 Structure from the checkpoint file:  "JID_9318.chk"
 Charge =  1 Multiplicity = 2

 SCF Done:  E(UB3LYP) =  -838.580506933     A.U. after   28 cycles
 Normal termination of Gaussian 16 at Sun Dec 13 14:02:18 2020.
 Gaussian 16:  ES64L-G16RevA.03 25-Dec-2016

 ----------------------------------------------------------------------
 # B3LYP/6-311++G(d,p) empiricaldispersion=gd3bj scf=xqc pop=npa geom=c
 heck
 ----------------------------------------------------------------------

 -----------------------------------
 CID_55170425_JID_9318_Energie_anion
 -----------------------------------
 Structure from the checkpoint file:  "JID_9318.chk"
 Charge = -1 Multiplicity = 2

                         Standard orientation:
 ---------------------------------------------------------------------
 Center     Atomic      Atomic             Coordinates (Angstroms)
 Number     Number       Type             X           Y           Z
 ---------------------------------------------------------------------
      1          6           0       -2.554372    0.767836    1.845373
      2          7           0       -2.628069   -0.183037    0.750642
      3          6           0       -3.689146   -0.368193   -0.120744
      4          6           0       -3.272708   -1.320523   -1.015138
      5          7           0       -1.984928   -1.718514   -0.723168
      6          6           0       -1.626363   -1.015512    0.333727
      7          6           0       -0.279774   -1.067801    0.995579
      8          7           0        0.587724   -1.920495    0.205116
      9          6           0        1.885381   -1.726551   -0.164047
     10          8           0        2.372542   -2.354248   -1.101835
     11          6           0        2.782676   -0.702204    0.554569
     12          6           0        2.973231    0.519690   -0.397035
     13          6           0        1.687853    1.282890   -0.601140
     14          6           0        0.730814    0.826688   -1.521328
     15          6           0       -0.515291    1.441626   -1.618768
     16          6           0       -0.820947    2.541670   -0.813096
     17          6           0        0.129566    3.022757    0.088216
     18          6           0        1.372715    2.392924    0.194355
     19          7           0        2.391366   -0.364949    1.927500
     20          1           0       -3.539294    1.213869    1.993946
     21          1           0       -2.256620    0.264066    2.770228
     22          1           0       -1.833600    1.559786    1.618010
     23          1           0       -4.613048    0.179001   -0.007427
     24          1           0       -3.820132   -1.746908   -1.844156
     25          1           0        0.111668   -0.050809    1.043754
     26          1           0       -0.358223   -1.429122    2.031014
     27          1           0        0.083818   -2.519893   -0.443921
     28          1           0        3.745548   -1.218132    0.605369
     29          1           0        3.742064    1.172200    0.033571
     30          1           0        3.350174    0.137901   -1.350462
     31          1           0        0.957460   -0.036413   -2.139785
     32          1           0       -1.254968    1.050351   -2.310269
     33          1           0       -1.791895    3.022437   -0.893485
     34          1           0       -0.091969    3.888905    0.706345
     35          1           0        2.112802    2.774083    0.894701
     36          1           0        3.228945   -0.195571    2.479478
     37          1           0        1.862457    0.505405    1.944016
 ---------------------------------------------------------------------

 SCF Done:  E(UB3LYP) =  -838.869019399     A.U. after   33 cycles
 SCF Done:  E(UB3LYP) =  -838.869019399     a.u. after    1 cycles

 The electronic state is 2-A.
 Alpha  occ. eigenvalues --  -18.99239 -14.28570 -14.24180 -14.20898 -14.20874
 Alpha  occ. eigenvalues --  -10.17785 -10.14339 -10.13085 -10.12377 -10.12209
 Alpha  occ. eigenvalues --  -10.11192 -10.09924 -10.09626 -10.08921 -10.08807
 Alpha  occ. eigenvalues --  -10.08780 -10.08660 -10.08638 -10.08483  -0.94536
 Alpha  occ. eigenvalues --   -0.93587  -0.83597  -0.80648  -0.79942  -0.77180
 Alpha  occ. eigenvalues --   -0.69429  -0.68613  -0.66052  -0.63978  -0.63200
 Alpha  occ. eigenvalues --   -0.60379  -0.56544  -0.52468  -0.52092  -0.50190
 Alpha  occ. eigenvalues --   -0.47853  -0.47363  -0.44195  -0.42614  -0.41329
 Alpha  occ. eigenvalues --   -0.40002  -0.39892  -0.38638  -0.37356  -0.37077
 Alpha  occ. eigenvalues --   -0.36573  -0.35693  -0.34593  -0.33837  -0.33540
 Alpha  occ. eigenvalues --   -0.33373  -0.32024  -0.31668  -0.31278  -0.30423
 Alpha  occ. eigenvalues --   -0.30289  -0.28504  -0.28105  -0.26788  -0.25332
 Alpha  occ. eigenvalues --   -0.24180  -0.19546  -0.18951  -0.18412  -0.17212
 Alpha  occ. eigenvalues --   -0.16712  -0.16577  -0.14774  -0.14139   0.03504
 Alpha virt. eigenvalues --    0.05425   0.06553   0.06706   0.07182   0.07355
 Alpha virt. eigenvalues --    0.08194   0.08620   0.08933   0.09518   0.09998
 Alpha virt. eigenvalues --    0.10009   0.10556   0.11069   0.11276   0.11862

  Beta  occ. eigenvalues --  -18.99238 -14.28568 -14.24180 -14.20874 -14.20863
  Beta  occ. eigenvalues --  -10.17785 -10.14338 -10.13074 -10.12369 -10.12151
  Beta  occ. eigenvalues --  -10.11175 -10.09923 -10.09616 -10.08912 -10.08807
  Beta  occ. eigenvalues --  -10.08757 -10.08638 -10.08617 -10.08476  -0.94533
  Beta  occ. eigenvalues --   -0.93581  -0.83591  -0.80602  -0.79926  -0.77144
  Beta  occ. eigenvalues --   -0.69387  -0.68599  -0.66012  -0.63924  -0.63151
  Beta  occ. eigenvalues --   -0.60350  -0.56511  -0.52450  -0.52058  -0.50154
  Beta  occ. eigenvalues --   -0.47831  -0.47328  -0.44147  -0.42568  -0.41290
  Beta  occ. eigenvalues --   -0.39977  -0.39859  -0.38618  -0.37319  -0.37045
  Beta  occ. eigenvalues --   -0.36538  -0.35659  -0.34553  -0.33802  -0.33514
  Beta  occ. eigenvalues --   -0.33341  -0.32007  -0.31631  -0.31251  -0.30402
  Beta  occ. eigenvalues --   -0.30269  -0.28475  -0.28079  -0.26744  -0.25302
  Beta  occ. eigenvalues --   -0.24158  -0.19542  -0.18939  -0.18387  -0.17172
  Beta  occ. eigenvalues --   -0.16702  -0.16520  -0.14748  -0.14128
  Beta virt. eigenvalues --    0.06000   0.06486   0.06729   0.06975   0.07709
  Beta virt. eigenvalues --    0.07878   0.08690   0.08987   0.09152   0.09818
  Beta virt. eigenvalues --    0.10029   0.10326   0.10832   0.11419   0.11557

 Mulliken charges and spin densities:
               1          2
     1  C    0.789123  -1.133721
     2  N   -0.010688   0.147442
     3  C   -0.243260   0.174943
     4  C    0.472200  -0.507635
     5  N   -0.085252   0.008786
     6  C   -0.754656   0.249397
     7  C    0.229423  -0.544090
     8  N   -0.041285   0.001859
     9  C   -0.483124  -0.117257
    10  O   -0.301382   0.006099
    11  C    0.800128  -0.338524
    12  C    0.474756  -1.394715
    13  C   -0.522542   0.944363
    14  C   -0.260645   0.474492
    15  C   -0.301237   0.132846
    16  C    0.362924  -0.792511
    17  C    0.613826  -0.875337
    18  C   -0.433399  -0.023637
    19  N   -0.360585  -0.074845
    20  H   -0.828098   0.993398
    21  H   -0.307141   0.474079
    22  H    0.176308   0.064205
    23  H   -0.515380   0.688587
    24  H    0.135952   0.015982
    25  H    0.584214  -0.463455
    26  H    0.156584   0.126271
    27  H    0.335715  -0.012886
    28  H    0.180649   0.051159
    29  H   -0.152977   0.337367
    30  H    0.183825   0.014946
    31  H    0.198902   0.036004
    32  H    0.134846   0.036393
    33  H   -0.021443   0.201970
    34  H   -0.692204   0.892354
    35  H   -0.512632   0.696754
    36  H   -0.053063   0.347978
    37  H    0.051619   0.160938
 Sum of Mulliken charges =  -1.00000   1.00000

 Dipole moment (field-independent basis, Debye):
    X=              0.6039    Y=             -3.0605    Z=             -4.0150  Tot=              5.0845
 Quadrupole moment (field-independent basis, Debye-Ang):
   XX=           -181.4670   YY=           -174.2401   ZZ=           -156.2884
   XY=             10.7355   XZ=              7.9593   YZ=            -14.5606

 Summary of Natural Population Analysis:

                                       Natural Population
                Natural  -----------------------------------------------
    Atom  No    Charge         Core      Valence    Rydberg      Total
 -----------------------------------------------------------------------
      C    1   -0.17595      0.99963     2.16792    0.00840     3.17595
      N    2   -0.20546      0.99961     2.69395    0.01190     3.70546
      C    3   -0.03165      0.99954     2.02022    0.01189     3.03165
      C    4   -0.03738      0.99958     2.02426    0.01354     3.03738
      N    5   -0.27292      0.99968     2.76449    0.00876     3.77292
      C    6    0.19706      0.99959     1.78655    0.01680     2.80294
      C    7   -0.10922      0.99956     2.09900    0.01066     3.10922
      N    8   -0.31264      0.99965     2.80408    0.00892     3.81264
      C    9    0.34574      0.99963     1.63040    0.02423     2.65426
      O   10   -0.33349      0.99988     3.32808    0.00553     4.33349
      C   11   -0.04748      0.99955     2.03362    0.01431     3.04748
      C   12   -0.20200      0.99957     2.19229    0.01014     3.20200
      C   13   -0.02318      0.99950     2.01267    0.01101     3.02318
      C   14   -0.10362      0.99950     2.09476    0.00936     3.10362
      C   15   -0.09812      0.99955     2.08924    0.00932     3.09812
      C   16   -0.10527      0.99955     2.09533    0.01039     3.10527
      C   17   -0.09994      0.99955     2.08919    0.01120     3.09994
      C   18   -0.11113      0.99950     2.10010    0.01153     3.11113
      N   19   -0.42474      0.99976     2.91453    0.01045     3.92474
      H   20    0.10818      0.00000     0.38852    0.00329     0.39182
      H   21    0.10136      0.00000     0.39713    0.00150     0.39864
      H   22    0.10636      0.00000     0.39119    0.00245     0.39364
      H   23    0.10619      0.00000     0.39264    0.00117     0.39381
      H   24    0.09624      0.00000     0.40298    0.00078     0.40376
      H   25    0.11003      0.00000     0.38662    0.00335     0.38997
      H   26    0.10546      0.00000     0.39317    0.00138     0.39454
      H   27    0.20680      0.00000     0.29088    0.00232     0.29320
      H   28    0.10788      0.00000     0.39094    0.00119     0.39212
      H   29    0.10432      0.00000     0.39443    0.00125     0.39568
      H   30    0.11222      0.00000     0.38676    0.00102     0.38778
      H   31    0.10847      0.00000     0.39029    0.00124     0.39153
      H   32    0.10452      0.00000     0.39417    0.00130     0.39548
      H   33    0.10410      0.00000     0.39474    0.00116     0.39590
      H   34    0.10572      0.00000     0.39263    0.00165     0.39428
      H   35    0.10487      0.00000     0.39311    0.00203     0.39513
      H   36    0.18124      0.00000     0.31652    0.00225     0.31876
      H   37    0.17745      0.00000     0.31997    0.00258     0.32255
 =======================================================================
   * Total *   -0.00000     18.99239    49.75739    0.25022    69.00000

 Normal termination of Gaussian 16 at Sun Dec 13 14:33:04 2020.
