 Gaussian 16, Revision A.03,

 -----------------------------------------------------------
 # opt freq B3LYP/6-31G(d) empiricaldispersion=gd3bj scf=xqc
 -----------------------------------------------------------

 ------------------------------
 CID_15470847_JID_7780_neutraal
 ------------------------------
 Symbolic Z-matrix:
 Charge =  0 Multiplicity = 1

 SCF Done:  E(RB3LYP) =  -1456.65160304     A.U. after   15 cycles
 SCF Done:  E(RB3LYP) =  -1456.65687585     A.U. after   12 cycles
 SCF Done:  E(RB3LYP) =  -1456.63835359     A.U. after   13 cycles
 SCF Done:  E(RB3LYP) =  -1456.65583264     A.U. after   12 cycles
 SCF Done:  E(RB3LYP) =  -1456.65920459     A.U. after    9 cycles
 SCF Done:  E(RB3LYP) =  -1456.65977367     A.U. after   11 cycles
 SCF Done:  E(RB3LYP) =  -1456.66045873     A.U. after   12 cycles
 SCF Done:  E(RB3LYP) =  -1456.66053639     A.U. after   12 cycles
 SCF Done:  E(RB3LYP) =  -1456.66103182     A.U. after   12 cycles
 SCF Done:  E(RB3LYP) =  -1456.66094982     A.U. after   12 cycles
 SCF Done:  E(RB3LYP) =  -1456.66277031     A.U. after   10 cycles
 SCF Done:  E(RB3LYP) =  -1456.66282798     A.U. after   10 cycles
 SCF Done:  E(RB3LYP) =  -1456.66282596     A.U. after    9 cycles
 SCF Done:  E(RB3LYP) =  -1456.66282912     A.U. after    9 cycles
 SCF Done:  E(RB3LYP) =  -1456.66282907     A.U. after    7 cycles
 SCF Done:  E(RB3LYP) =  -1456.66282914     A.U. after    6 cycles
 Optimization completed.
    -- Stationary point found.
 Normal termination of Gaussian 16 at Fri Dec 11 13:40:34 2020.

 --------------------------------------------------------------------
 #N Geom=AllCheck Guess=TCheck SCRF=Check GenChk RB3LYP/6-31G(d) Freq
 --------------------------------------------------------------------

 Structure from the checkpoint file:  "JID_7780.chk"
 ------------------------------
 CID_15470847_JID_7780_neutraal
 ------------------------------
 Charge =  0 Multiplicity = 1

 SCF Done:  E(RB3LYP) =  -1456.66282914     A.U. after    1 cycles

  Exact polarizability: 177.189   7.430 180.519   4.339  -2.500 156.661
 Approx polarizability: 255.703  12.919 272.606   8.431  -4.419 255.731

                      1                      2                      3
                      A                      A                      A
 Frequencies --     26.3065                69.3196                91.6240
 Red. masses --      3.0737                 4.7519                 3.7189
 Frc consts  --      0.0013                 0.0135                 0.0184
 IR Inten    --      0.3044                 0.3866                 1.8872

                      4                      5                      6
                      A                      A                      A
 Frequencies --    100.8828               117.4082               146.7778
 Red. masses --      3.3760                 2.7709                 3.0408
 Frc consts  --      0.0202                 0.0225                 0.0386
 IR Inten    --      2.0918                 0.7121                 0.6266

                      7                      8                      9
                      A                      A                      A
 Frequencies --    162.6241               178.1402               199.6487
 Red. masses --      1.5925                 5.9845                 2.5812
 Frc consts  --      0.0248                 0.1119                 0.0606
 IR Inten    --      0.4982                 1.4967                 0.9026

                     10                     11                     12
                      A                      A                      A
 Frequencies --    208.9697               222.0516               228.7262
 Red. masses --      2.3742                 2.3878                 1.3018
 Frc consts  --      0.0611                 0.0694                 0.0401
 IR Inten    --      1.0635                 0.4770                 0.7050

                     13                     14                     15
                      A                      A                      A
 Frequencies --    237.6839               251.4778               256.9972
 Red. masses --      1.7611                 2.9179                 2.1834
 Frc consts  --      0.0586                 0.1087                 0.0850
 IR Inten    --      0.3138                 0.7443                 0.1985

                     16                     17                     18
                      A                      A                      A
 Frequencies --    264.6303               276.9347               286.2552
 Red. masses --      2.1294                 1.4408                 2.8066
 Frc consts  --      0.0879                 0.0651                 0.1355
 IR Inten    --      0.5615                 0.5538                 0.8678

                     19                     20                     21
                      A                      A                      A
 Frequencies --    312.2535               327.2465               337.0006
 Red. masses --      2.2035                 2.5525                 1.3150
 Frc consts  --      0.1266                 0.1611                 0.0880
 IR Inten    --      0.3230                 1.4185                 0.4820

                     22                     23                     24
                      A                      A                      A
 Frequencies --    352.9917               370.1120               383.5064
 Red. masses --      1.4600                 1.7944                 1.9483
 Frc consts  --      0.1072                 0.1448                 0.1688
 IR Inten    --      0.6457                 0.9488                 2.2841

                     25                     26                     27
                      A                      A                      A
 Frequencies --    388.9361               410.4054               420.5094
 Red. masses --      1.3359                 2.4507                 2.9110
 Frc consts  --      0.1191                 0.2432                 0.3033
 IR Inten    --      0.2131                 1.5623                 5.1546

                     28                     29                     30
                      A                      A                      A
 Frequencies --    438.4106               470.8474               487.8475
 Red. masses --      2.2463                 3.8048                 3.6808
 Frc consts  --      0.2544                 0.4970                 0.5161
 IR Inten    --      0.5779                14.6829                18.4621

                     31                     32                     33
                      A                      A                      A
 Frequencies --    513.4056               537.5960               564.0344
 Red. masses --      3.5594                 3.3866                 3.9709
 Frc consts  --      0.5528                 0.5767                 0.7443
 IR Inten    --      9.9931                10.9539                18.2407

                     34                     35                     36
                      A                      A                      A
 Frequencies --    577.1511               623.7870               682.7519
 Red. masses --      3.2760                 4.1325                 5.0257
 Frc consts  --      0.6429                 0.9474                 1.3803
 IR Inten    --      3.5827                 3.9781                 4.5923

                     37                     38                     39
                      A                      A                      A
 Frequencies --    713.6099               763.5966               776.7794
 Red. masses --      5.7782                 5.4410                 4.9580
 Frc consts  --      1.7337                 1.8692                 1.7626
 IR Inten    --      0.7143                 5.7745                 7.3663

                     40                     41                     42
                      A                      A                      A
 Frequencies --    786.8346               838.8432               854.5667
 Red. masses --      4.9233                 2.6336                 3.4165
 Frc consts  --      1.7959                 1.0919                 1.4700
 IR Inten    --      6.3907                 1.8729                 3.9989

                     43                     44                     45
                      A                      A                      A
 Frequencies --    930.0625               933.1183               940.1518
 Red. masses --      2.0011                 1.9027                 1.7851
 Frc consts  --      1.0199                 0.9761                 0.9296
 IR Inten    --      1.6984                 1.2708                 1.4328

                     46                     47                     48
                      A                      A                      A
 Frequencies --    948.2109               950.6108               969.3927
 Red. masses --      1.7778                 1.7556                 1.6902
 Frc consts  --      0.9418                 0.9347                 0.9358
 IR Inten    --      1.2891                 0.4820                 6.0305

                     49                     50                     51
                      A                      A                      A
 Frequencies --    974.6150               980.4727              1000.0863
 Red. masses --      1.6517                 1.1848                 1.2472
 Frc consts  --      0.9244                 0.6711                 0.7349
 IR Inten    --      3.7025                 0.1551                 6.1281

                     52                     53                     54
                      A                      A                      A
 Frequencies --   1009.8209              1036.0403              1056.4697
 Red. masses --      1.3475                 2.4935                 1.4265
 Frc consts  --      0.8096                 1.5769                 0.9381
 IR Inten    --     18.6686                 6.5658                 3.6169

                     55                     56                     57
                      A                      A                      A
 Frequencies --   1063.7032              1065.6447              1069.5548
 Red. masses --      1.3961                 1.4310                 1.5626
 Frc consts  --      0.9307                 0.9574                 1.0532
 IR Inten    --      2.0678                 0.5678                 5.8587

                     58                     59                     60
                      A                      A                      A
 Frequencies --   1110.1063              1133.7991              1165.8996
 Red. masses --      7.3334                 2.1374                 1.1453
 Frc consts  --      5.3246                 1.6189                 0.9173
 IR Inten    --    147.2281                 3.4111                 5.0663

                     61                     62                     63
                      A                      A                      A
 Frequencies --   1223.1555              1231.8287              1233.5374
 Red. masses --      1.3597                 2.3905                 2.3529
 Frc consts  --      1.1986                 2.1371                 2.1094
 IR Inten    --     34.6568                 3.3854                 3.5704

                     64                     65                     66
                      A                      A                      A
 Frequencies --   1240.1877              1250.5942              1253.6911
 Red. masses --      2.5234                 2.4323                 1.6115
 Frc consts  --      2.2868                 2.2413                 1.4923
 IR Inten    --      3.6555                35.9702                 6.8564

                     67                     68                     69
                      A                      A                      A
 Frequencies --   1268.7855              1280.5862              1309.4929
 Red. masses --      2.5146                 1.7915                 3.2991
 Frc consts  --      2.3850                 1.7309                 3.3331
 IR Inten    --      3.5438                47.3546                61.9401

                     70                     71                     72
                      A                      A                      A
 Frequencies --   1316.5456              1379.1487              1423.7740
 Red. masses --      4.0649                 1.1746                 1.2190
 Frc consts  --      4.1512                 1.3164                 1.4559
 IR Inten    --     82.3183                 3.2098                 4.2166

                     73                     74                     75
                      A                      A                      A
 Frequencies --   1426.8372              1429.5058              1434.5245
 Red. masses --      1.2028                 1.1980                 1.2084
 Frc consts  --      1.4428                 1.4424                 1.4651
 IR Inten    --      4.4499                 6.6943                 2.9187

                     76                     77                     78
                      A                      A                      A
 Frequencies --   1460.9236              1466.3939              1476.5669
 Red. masses --      1.2087                 1.1981                 1.1007
 Frc consts  --      1.5200                 1.5179                 1.4139
 IR Inten    --     17.2479                 2.1843                 3.9399

                     79                     80                     81
                      A                      A                      A
 Frequencies --   1498.4344              1509.1765              1513.8158
 Red. masses --      1.0528                 1.0516                 1.0516
 Frc consts  --      1.3927                 1.4112                 1.4199
 IR Inten    --      5.0698                 0.0292                 1.0408

                     82                     83                     84
                      A                      A                      A
 Frequencies --   1518.2538              1521.9008              1528.8613
 Red. masses --      1.0462                 1.0468                 1.0522
 Frc consts  --      1.4209                 1.4285                 1.4490
 IR Inten    --      0.4725                 2.2866                 8.4809

                     85                     86                     87
                      A                      A                      A
 Frequencies --   1531.3153              1534.6115              1535.2493
 Red. masses --      1.0468                 1.0521                 1.0516
 Frc consts  --      1.4462                 1.4598                 1.4603
 IR Inten    --      7.3832                 0.9549                 9.3958

                     88                     89                     90
                      A                      A                      A
 Frequencies --   1541.9167              1548.4810              1552.7335
 Red. masses --      1.0489                 1.0515                 1.0555
 Frc consts  --      1.4693                 1.4855                 1.4994
 IR Inten    --      5.1540                 8.5415                 0.4791

                     91                     92                     93
                      A                      A                      A
 Frequencies --   1559.3844              1569.2593              1613.4944
 Red. masses --      1.0627                 1.0534                 7.2702
 Frc consts  --      1.5225                 1.5284                11.1515
 IR Inten    --     10.6516                 9.8373                 0.5828

                     94                     95                     96
                      A                      A                      A
 Frequencies --   3050.8728              3056.2636              3056.7022
 Red. masses --      1.0379                 1.0444                 1.0386
 Frc consts  --      5.6918                 5.7480                 5.7176
 IR Inten    --     19.5186                19.1506                 7.4280

                     97                     98                     99
                      A                      A                      A
 Frequencies --   3057.3168              3065.3155              3066.8239
 Red. masses --      1.0410                 1.0413                 1.0437
 Frc consts  --      5.7331                 5.7646                 5.7834
 IR Inten    --     22.8314                48.1382                22.7341

                    100                    101                    102
                      A                      A                      A
 Frequencies --   3075.5946              3087.9428              3109.8867
 Red. masses --      1.0292                 1.0620                 1.1018
 Frc consts  --      5.7358                 5.9662                 6.2781
 IR Inten    --     11.6512                 9.0525                23.4528

                    103                    104                    105
                      A                      A                      A
 Frequencies --   3111.9993              3114.7453              3116.8069
 Red. masses --      1.1018                 1.1019                 1.1008
 Frc consts  --      6.2866                 6.2986                 6.3006
 IR Inten    --      1.4190                11.5577                 6.1760

                    106                    107                    108
                      A                      A                      A
 Frequencies --   3122.2886              3126.7006              3136.6005
 Red. masses --      1.1010                 1.1013                 1.1017
 Frc consts  --      6.3239                 6.3432                 6.3861
 IR Inten    --     65.5225                60.3759                32.6124

                    109                    110                    111
                      A                      A                      A
 Frequencies --   3152.9175              3155.6031              3155.7882
 Red. masses --      1.0985                 1.0952                 1.0908
 Frc consts  --      6.4341                 6.4254                 6.4006
 IR Inten    --     24.7241                 1.4519                 3.3405

                    112                    113                    114
                      A                      A                      A
 Frequencies --   3159.2623              3164.2969              3172.1966
 Red. masses --      1.0992                 1.1038                 1.1085
 Frc consts  --      6.4639                 6.5115                 6.5724
 IR Inten    --     10.9244                 2.7385                 1.5529

                    115                    116                    117
                      A                      A                      A
 Frequencies --   3187.1863              3210.1801              3239.0889
 Red. masses --      1.0945                 1.0901                 1.0881
 Frc consts  --      6.5508                 6.6189                 6.7260
 IR Inten    --     28.5954                 9.5502                 7.2088

 - Thermochemistry -
 -------------------
 Temperature   298.150 Kelvin.  Pressure   1.00000 Atm.
 Atom     1 has atomic number  6 and mass  12.00000

 Molecular mass:   276.12177 amu.
 Principal axes and moments of inertia in atomic units:
                           1         2         3
     Eigenvalues --  3924.614684991.373996133.66984
           X            0.99939   0.03327   0.01034
           Y           -0.03260   0.99769  -0.05951
           Z           -0.01230   0.05914   0.99817
 This molecule is an asymmetric top.
 Rotational symmetry number  1.
 Warning -- assumption of classical behavior for rotation
           may cause significant error
 Rotational temperatures (Kelvin)      0.02207     0.01735     0.01412
 Rotational constants (GHZ):           0.45985     0.36157     0.29424
 Zero-point vibrational energy     937469.1 (Joules/Mol)
                                  224.06048 (Kcal/Mol)
 Warning -- explicit consideration of  34 degrees of freedom as
           vibrations may cause significant error
 Vibrational temperatures:     37.85    99.74   131.83   145.15   168.92
          (Kelvin)            211.18   233.98   256.30   287.25   300.66
                              319.48   329.09   341.97   361.82   369.76
                              380.74   398.45   411.86   449.26   470.83
                              484.87   507.88   532.51   551.78   559.59
                              590.48   605.02   630.78   677.44   701.90
                              738.68   773.48   811.52   830.39   897.49
                              982.33  1026.73  1098.65  1117.61  1132.08
                             1206.91  1229.53  1338.15  1342.55  1352.67
                             1364.26  1367.72  1394.74  1402.25  1410.68
                             1438.90  1452.91  1490.63  1520.02  1530.43
                             1533.23  1538.85  1597.20  1631.28  1677.47
                             1759.85  1772.33  1774.79  1784.35  1799.33
                             1803.78  1825.50  1842.48  1884.07  1894.22
                             1984.29  2048.49  2052.90  2056.74  2063.96
                             2101.94  2109.81  2124.45  2155.91  2171.37
                             2178.04  2184.43  2189.68  2199.69  2203.22
                             2207.96  2208.88  2218.47  2227.92  2234.04
                             2243.61  2257.81  2321.46  4389.53  4397.28
                             4397.91  4398.80  4410.31  4412.48  4425.09
                             4442.86  4474.43  4477.47  4481.42  4484.39
                             4492.28  4498.62  4512.87  4536.35  4540.21
                             4540.48  4545.47  4552.72  4564.08  4585.65
                             4618.73  4660.33

 Zero-point correction=                           0.357063 (Hartree/Particle)
 Thermal correction to Energy=                    0.376868
 Thermal correction to Enthalpy=                  0.377812
 Thermal correction to Gibbs Free Energy=         0.311042
 Sum of electronic and zero-point Energies=          -1456.305766
 Sum of electronic and thermal Energies=             -1456.285961
 Sum of electronic and thermal Enthalpies=           -1456.285017
 Sum of electronic and thermal Free Energies=        -1456.351787

                     E (Thermal)             CV                S
                      KCal/Mol        Cal/Mol-Kelvin    Cal/Mol-Kelvin
 Total                  236.488             77.383            140.530
 Electronic               0.000              0.000              0.000
 Translational            0.889              2.981             42.746
 Rotational               0.889              2.981             33.152
 Vibrational            234.711             71.421             64.632
 Vibration     1          0.593              1.985              6.090
 Vibration     2          0.598              1.969              4.173
 Vibration     3          0.602              1.955              3.625
 Vibration     4          0.604              1.948              3.437
 Vibration     5          0.608              1.935              3.143
 Vibration     6          0.617              1.906              2.714
 Vibration     7          0.623              1.888              2.519
 Vibration     8          0.629              1.869              2.348
 Vibration     9          0.638              1.840              2.136
 Vibration    10          0.642              1.827              2.053
 Vibration    11          0.648              1.807              1.942
 Vibration    12          0.651              1.797              1.889
 Vibration    13          0.656              1.783              1.820
 Vibration    14          0.663              1.760              1.720
 Vibration    15          0.667              1.751              1.682
 Vibration    16          0.671              1.738              1.631
 Vibration    17          0.678              1.716              1.553
 Vibration    18          0.684              1.699              1.496
 Vibration    19          0.701              1.650              1.350
 Vibration    20          0.711              1.621              1.274
 Vibration    21          0.718              1.602              1.226
 Vibration    22          0.729              1.569              1.153
 Vibration    23          0.742              1.534              1.079
 Vibration    24          0.753              1.505              1.025
 Vibration    25          0.757              1.494              1.004
 Vibration    26          0.775              1.448              0.925
 Vibration    27          0.783              1.426              0.890
 Vibration    28          0.799              1.386              0.832
 Vibration    29          0.828              1.315              0.735
 Vibration    30          0.844              1.277              0.689
 Vibration    31          0.868              1.220              0.625
 Vibration    32          0.893              1.167              0.570
 Vibration    33          0.920              1.109              0.516
 Vibration    34          0.934              1.081              0.491

 Optimization completed.
    -- Stationary point found.
 Normal termination of Gaussian 16 at Fri Dec 11 14:03:21 2020.

 ----------------------------------------------------------------------
 # B3LYP/6-311++G(d,p) empiricaldispersion=gd3bj scf=xqc pop=npa geom=c
 heck
 ----------------------------------------------------------------------

 --------------------------------------
 CID_15470847_JID_7780_Energie_neutraal
 --------------------------------------
 Structure from the checkpoint file:  "JID_7780.chk"
 Charge =  0 Multiplicity = 1

 SCF Done:  E(RB3LYP) =  -1456.90171342     A.U. after   15 cycles
 Normal termination of Gaussian 16 at Fri Dec 11 14:15:11 2020.

 ----------------------------------------------------------------------
 # B3LYP/6-311++G(d,p) empiricaldispersion=gd3bj scf=xqc pop=npa geom=c
 heck
 ----------------------------------------------------------------------

 ------------------------------------
 CID_15470847_JID_7780_Energie_kation
 ------------------------------------
 Structure from the checkpoint file:  "JID_7780.chk"
 Charge =  1 Multiplicity = 2

 SCF Done:  E(UB3LYP) =  -1456.59461709     A.U. after   26 cycles
 Normal termination of Gaussian 16 at Fri Dec 11 14:42:00 2020.
 Gaussian 16:  ES64L-G16RevA.03 25-Dec-2016

 ----------------------------------------------------------------------
 # B3LYP/6-311++G(d,p) empiricaldispersion=gd3bj scf=xqc pop=npa geom=c
 heck
 ----------------------------------------------------------------------

 -----------------------------------
 CID_15470847_JID_7780_Energie_anion
 -----------------------------------
 Structure from the checkpoint file:  "JID_7780.chk"
 Charge = -1 Multiplicity = 2

                         Standard orientation:
 ---------------------------------------------------------------------
 Center     Atomic      Atomic             Coordinates (Angstroms)
 Number     Number       Type             X           Y           Z
 ---------------------------------------------------------------------
      1          6           0       -2.173441   -2.805445   -0.053954
      2          6           0       -2.081936   -1.297564    0.297358
      3          6           0       -3.339668   -0.677809   -0.340755
      4          6           0       -2.178278   -1.190390    1.840660
      5          6           0       -0.700064   -0.708192   -0.107870
      6          6           0       -0.233279    0.564996   -0.278845
      7          6           0        1.285544    0.668306   -0.327691
      8         16           0        1.853955   -0.994227   -0.852550
      9          8           0        1.802540   -1.033264   -2.323688
     10          8           0        3.055008   -1.448553   -0.136419
     11          6           0        0.375836   -1.786897   -0.187165
     12         16           0        2.070224    1.259717    1.222533
     13          6           0        1.584568   -0.021966    2.423455
     14          6           0       -0.982771    1.913731   -0.452329
     15          6           0       -1.816510    1.871485   -1.755472
     16          6           0       -1.825597    2.264786    0.791604
     17          6           0       -0.027939    3.120773   -0.646815
     18          1           0       -3.158659   -3.177614    0.243777
     19          1           0       -1.430895   -3.412324    0.470887
     20          1           0       -2.067704   -2.978276   -1.130671
     21          1           0       -4.218760   -1.209579    0.039817
     22          1           0       -3.482054    0.375474   -0.113812
     23          1           0       -3.327649   -0.801133   -1.428047
     24          1           0       -1.346164   -1.716078    2.322212
     25          1           0       -2.161248   -0.152236    2.178977
     26          1           0       -3.109010   -1.651461    2.191953
     27          1           0        1.652838    1.350199   -1.093955
     28          1           0        0.121585   -2.582669   -0.888636
     29          1           0        0.632579   -2.237813    0.776337
     30          1           0        0.504679   -0.183540    2.403463
     31          1           0        2.125928   -0.950477    2.231765
     32          1           0        1.864897    0.364910    3.406159
     33          1           0       -1.151806    1.720063   -2.612963
     34          1           0       -2.559450    1.080921   -1.775590
     35          1           0       -2.332654    2.828698   -1.894915
     36          1           0       -1.171382    2.369379    1.664069
     37          1           0       -2.336663    3.221959    0.636534
     38          1           0       -2.584035    1.522480    1.031372
     39          1           0        0.637070    3.274723    0.204787
     40          1           0        0.572830    3.034658   -1.557935
     41          1           0       -0.640310    4.021543   -0.757532
 ---------------------------------------------------------------------

 SCF Done:  E(UB3LYP) =  -1456.89539364     A.U. after   32 cycles

 The electronic state is 2-A.
 Alpha  occ. eigenvalues --  -88.94244 -88.75330 -19.01984 -19.01871 -10.13943
 Alpha  occ. eigenvalues --  -10.11112 -10.10894 -10.10839 -10.10028 -10.09826
 Alpha  occ. eigenvalues --  -10.09687 -10.07164 -10.06906 -10.06838 -10.06678
 Alpha  occ. eigenvalues --  -10.06665 -10.06657  -8.00838  -7.83938  -5.97102
 Alpha  occ. eigenvalues --   -5.96965  -5.96931  -5.80352  -5.79971  -5.79280
 Alpha  occ. eigenvalues --   -1.00933  -0.90680  -0.78144  -0.73423  -0.72221
 Alpha  occ. eigenvalues --   -0.69158  -0.64186  -0.61904  -0.60400  -0.60072
 Alpha  occ. eigenvalues --   -0.59477  -0.58837  -0.54540  -0.51201  -0.48136
 Alpha  occ. eigenvalues --   -0.47449  -0.42061  -0.41262  -0.39168  -0.37851
 Alpha  occ. eigenvalues --   -0.36799  -0.36339  -0.35560  -0.35426  -0.34846
 Alpha  occ. eigenvalues --   -0.34267  -0.33804  -0.33560  -0.33303  -0.32556
 Alpha  occ. eigenvalues --   -0.30725  -0.29538  -0.29473  -0.29057  -0.28744
 Alpha  occ. eigenvalues --   -0.27863  -0.27661  -0.26821  -0.26071  -0.25002
 Alpha  occ. eigenvalues --   -0.24622  -0.24041  -0.23624  -0.22889  -0.22725
 Alpha  occ. eigenvalues --   -0.21847  -0.20697  -0.19232  -0.15408  -0.13562
 Alpha  occ. eigenvalues --    0.03925
 Alpha virt. eigenvalues --    0.06317   0.06513   0.07005   0.07696   0.08452
 Alpha virt. eigenvalues --    0.08556   0.09111   0.09413   0.10042   0.10807
 Alpha virt. eigenvalues --    0.10860   0.11266   0.11580   0.11650   0.12277

  Beta  occ. eigenvalues --  -88.94243 -88.75308 -19.01980 -19.01870 -10.13933
  Beta  occ. eigenvalues --  -10.11104 -10.10897 -10.10844 -10.09908 -10.09752
  Beta  occ. eigenvalues --  -10.09646 -10.07158 -10.06873 -10.06827 -10.06642
  Beta  occ. eigenvalues --  -10.06629 -10.06617  -8.00838  -7.83916  -5.97102
  Beta  occ. eigenvalues --   -5.96965  -5.96931  -5.80296  -5.79959  -5.79262
  Beta  occ. eigenvalues --   -1.00927  -0.90675  -0.78020  -0.73353  -0.72189
  Beta  occ. eigenvalues --   -0.69082  -0.64105  -0.61810  -0.60349  -0.60016
  Beta  occ. eigenvalues --   -0.59399  -0.58793  -0.54418  -0.51081  -0.48082
  Beta  occ. eigenvalues --   -0.47388  -0.41992  -0.41224  -0.39062  -0.37810
  Beta  occ. eigenvalues --   -0.36741  -0.36298  -0.35502  -0.35385  -0.34782
  Beta  occ. eigenvalues --   -0.34223  -0.33750  -0.33486  -0.33271  -0.32508
  Beta  occ. eigenvalues --   -0.30679  -0.29498  -0.29424  -0.29009  -0.28686
  Beta  occ. eigenvalues --   -0.27826  -0.27623  -0.26744  -0.25988  -0.24942
  Beta  occ. eigenvalues --   -0.24548  -0.24013  -0.23589  -0.22865  -0.22692
  Beta  occ. eigenvalues --   -0.21797  -0.20680  -0.19190  -0.14930  -0.13461
  Beta virt. eigenvalues --    0.06159   0.06940   0.07213   0.07793   0.08134
  Beta virt. eigenvalues --    0.08706   0.08916   0.09428   0.09701   0.10354
  Beta virt. eigenvalues --    0.10968   0.11104   0.11428   0.11743   0.11877

 Mulliken charges and spin densities:
               1          2
     1  C    0.095411  -0.679408
     2  C   -1.356865   1.691644
     3  C    0.000072  -0.600933
     4  C    1.094235  -1.753416
     5  C    0.088943   0.220542
     6  C    0.303638   0.186423
     7  C   -0.030870  -0.153151
     8  S    1.188456  -0.614808
     9  O   -0.234796   0.008770
    10  O   -0.146940   0.004155
    11  C   -0.278558  -0.939119
    12  S    0.127383  -0.223013
    13  C   -0.451183  -0.285712
    14  C   -0.313636   0.785416
    15  C   -0.349976  -0.395547
    16  C    0.307499  -1.034254
    17  C   -0.583871   0.208144
    18  H   -0.232883   0.391971
    19  H   -0.270923   0.433629
    20  H   -0.026769   0.184763
    21  H   -0.263488   0.426835
    22  H   -0.200338   0.317239
    23  H   -0.005283   0.166935
    24  H   -0.327231   0.489492
    25  H   -0.011078   0.146496
    26  H   -0.208257   0.379006
    27  H    0.419015   0.004334
    28  H    0.366560  -0.103106
    29  H    0.129800   0.160006
    30  H    0.394259  -0.248539
    31  H    0.014217   0.208711
    32  H   -0.407835   0.613711
    33  H    0.129220   0.043899
    34  H    0.133405  -0.045604
    35  H    0.049634   0.086453
    36  H   -0.018569   0.193881
    37  H   -0.184868   0.338460
    38  H   -0.083528   0.158634
    39  H    0.024324   0.098863
    40  H    0.058129   0.035802
    41  H    0.063545   0.092395
 Sum of Mulliken charges =  -1.00000   1.00000

 Dipole moment (field-independent basis, Debye):
    X=              1.0750    Y=              3.1082    Z=             -2.6101  Tot=              4.1987
 Quadrupole moment (field-independent basis, Debye-Ang):
   XX=           -193.6456   YY=           -168.6982   ZZ=           -168.2285
   XY=             -0.6869   XZ=              5.6725   YZ=             -2.5176

 Summary of Natural Population Analysis:

                                       Natural Population
                Natural  -----------------------------------------------
    Atom  No    Charge         Core      Valence    Rydberg      Total
 -----------------------------------------------------------------------
      C    1   -0.28519      0.99964     2.27786    0.00769     3.28519
      C    2   -0.05966      0.99955     2.04629    0.01381     3.05966
      C    3   -0.28201      0.99962     2.27503    0.00736     3.28201
      C    4   -0.27693      0.99962     2.26989    0.00743     3.27693
      C    5    0.02062      0.99943     1.96643    0.01352     2.97938
      C    6   -0.00331      0.99939     1.98922    0.01469     3.00331
      C    7   -0.28337      0.99950     2.26792    0.01596     3.28337
      S    8    1.02626      4.99917     1.88152    0.09306     6.97374
      O    9   -0.46790      0.99991     3.46262    0.00537     4.46790
      O   10   -0.46194      0.99991     3.45662    0.00541     4.46194
      C   11   -0.30671      0.99955     2.29359    0.01357     3.30671
      S   12    0.12270      4.99959     2.85916    0.01856     7.87730
      C   13   -0.35827      0.99961     2.35167    0.00698     3.35827
      C   14   -0.05479      0.99956     2.04437    0.01086     3.05479
      C   15   -0.27895      0.99963     2.27243    0.00690     3.27895
      C   16   -0.28047      0.99962     2.27340    0.00745     3.28047
      C   17   -0.28862      0.99964     2.28264    0.00633     3.28862
      H   18    0.10437      0.00000     0.39449    0.00114     0.39563
      H   19    0.10142      0.00000     0.39742    0.00116     0.39858
      H   20    0.10076      0.00000     0.39829    0.00095     0.39924
      H   21    0.10279      0.00000     0.39608    0.00113     0.39721
      H   22    0.10095      0.00000     0.39772    0.00133     0.39905
      H   23    0.10095      0.00000     0.39805    0.00101     0.39905
      H   24    0.10046      0.00000     0.39787    0.00167     0.39954
      H   25    0.10233      0.00000     0.39615    0.00152     0.39767
      H   26    0.10033      0.00000     0.39856    0.00111     0.39967
      H   27    0.12449      0.00000     0.37405    0.00146     0.37551
      H   28    0.12265      0.00000     0.37605    0.00130     0.37735
      H   29    0.12114      0.00000     0.37698    0.00189     0.37886
      H   30    0.10830      0.00000     0.38965    0.00205     0.39170
      H   31    0.10943      0.00000     0.38899    0.00158     0.39057
      H   32    0.11016      0.00000     0.38881    0.00103     0.38984
      H   33    0.10005      0.00000     0.39926    0.00068     0.39995
      H   34    0.10558      0.00000     0.39347    0.00094     0.39442
      H   35    0.09527      0.00000     0.40403    0.00070     0.40473
      H   36    0.10445      0.00000     0.39418    0.00137     0.39555
      H   37    0.09790      0.00000     0.40113    0.00097     0.40210
      H   38    0.09996      0.00000     0.39875    0.00129     0.40004
      H   39    0.10866      0.00000     0.39011    0.00123     0.39134
      H   40    0.09567      0.00000     0.40355    0.00079     0.40433
      H   41    0.10046      0.00000     0.39876    0.00078     0.39954
 =======================================================================
   * Total *   -0.00000     24.99293    49.72305    0.28403    75.00000

 Normal termination of Gaussian 16 at Fri Dec 11 15:13:55 2020.
