 Gaussian 16, Revision A.03,

 -----------------------------------------------------------
 # opt freq B3LYP/6-31G(d) empiricaldispersion=gd3bj scf=xqc
 -----------------------------------------------------------

 ------------------------------
 CID_49758890_JID_2944_neutraal
 ------------------------------
 Symbolic Z-matrix:
 Charge =  0 Multiplicity = 1

 SCF Done:  E(RB3LYP) =  -513.863959287     A.U. after   14 cycles
 SCF Done:  E(RB3LYP) =  -513.867926819     A.U. after   12 cycles
 SCF Done:  E(RB3LYP) =  -513.868406847     A.U. after   12 cycles
 SCF Done:  E(RB3LYP) =  -513.868773840     A.U. after   12 cycles
 SCF Done:  E(RB3LYP) =  -513.869164679     A.U. after   12 cycles
 SCF Done:  E(RB3LYP) =  -513.869602445     A.U. after   12 cycles
 SCF Done:  E(RB3LYP) =  -513.869858519     A.U. after   12 cycles
 SCF Done:  E(RB3LYP) =  -513.869922271     A.U. after   11 cycles
 SCF Done:  E(RB3LYP) =  -513.869990651     A.U. after   11 cycles
 SCF Done:  E(RB3LYP) =  -513.870088532     A.U. after   12 cycles
 SCF Done:  E(RB3LYP) =  -513.870566734     A.U. after   12 cycles
 SCF Done:  E(RB3LYP) =  -513.870608795     A.U. after   12 cycles
 SCF Done:  E(RB3LYP) =  -513.870611581     A.U. after   10 cycles
 SCF Done:  E(RB3LYP) =  -513.870611357     A.U. after   10 cycles
 SCF Done:  E(RB3LYP) =  -513.870611769     A.U. after    9 cycles
 Optimization completed.
    -- Stationary point found.

 1\1\GINC-NODE317\FOpt\RB3LYP\6-31G(d)\C9H11N3\VSC10255\09-Dec-2020\0\\
 # opt freq B3LYP/6-31G(d) empiricaldispersion=gd3bj scf=xqc\\CID_49758
 890_JID_2944_neutraal\\0,1\C,-0.2134687565,-0.019914845,0.4984279112\N
 ,0.5332246693,-0.1294978667,-0.7527954676\C,-0.3140636724,-0.124258689
 1,-1.9530302692\C,-1.1182276182,1.1438958195,-2.1596383791\N,-2.375423
 2245,1.1502772617,-1.689995886\C,-3.0240175355,2.3055542315,-1.8223976
 176\C,-2.531754548,3.512174593,-2.3991616802\C,-1.2174033935,3.4716806
 055,-2.8815964744\C,-0.5184711654,2.2774930346,-2.7544337739\C,-3.5914

 Normal termination of Gaussian 16 at Wed Dec  9 18:22:21 2020.

 --------------------------------------------------------------------
 #N Geom=AllCheck Guess=TCheck SCRF=Check GenChk RB3LYP/6-31G(d) Freq
 --------------------------------------------------------------------

 Structure from the checkpoint file:  "JID_2944.chk"
 ------------------------------
 CID_49758890_JID_2944_neutraal
 ------------------------------
 Charge =  0 Multiplicity = 1

 SCF Done:  E(RB3LYP) =  -513.870611769     A.U. after    1 cycles

  Exact polarizability: 156.396  12.090 112.559 -10.314   9.158  63.654
 Approx polarizability: 234.262  28.262 199.256 -22.624  24.620  98.629

                      1                      2                      3
                      A                      A                      A
 Frequencies --     28.0769                73.1536               118.4000
 Red. masses --      3.2405                 3.9963                 2.0493
 Frc consts  --      0.0015                 0.0126                 0.0169
 IR Inten    --      0.4471                 0.2570                 1.4702

                      4                      5                      6
                      A                      A                      A
 Frequencies --    198.0548               231.3741               247.2743
 Red. masses --      2.6243                 3.2991                 1.8902
 Frc consts  --      0.0607                 0.1041                 0.0681
 IR Inten    --      5.2957                 6.5066                 0.1631

                      7                      8                      9
                      A                      A                      A
 Frequencies --    298.6534               359.3828               412.2382
 Red. masses --      2.8626                 2.8584                 2.5578
 Frc consts  --      0.1504                 0.2175                 0.2561
 IR Inten    --      5.9145                 4.2120                20.5781

                     10                     11                     12
                      A                      A                      A
 Frequencies --    436.6625               466.2670               471.3370
 Red. masses --      3.1370                 1.8316                 2.5106
 Frc consts  --      0.3524                 0.2346                 0.3286
 IR Inten    --      8.9965                49.1169                14.7819

                     13                     14                     15
                      A                      A                      A
 Frequencies --    545.7747               613.5523               620.7351
 Red. masses --      4.6513                 5.8915                 2.7950
 Frc consts  --      0.8163                 1.3067                 0.6345
 IR Inten    --      6.3251                 1.6154                 0.9329

                     16                     17                     18
                      A                      A                      A
 Frequencies --    703.7681               731.5521               749.0671
 Red. masses --      3.4891                 1.4112                 2.0210
 Frc consts  --      1.0182                 0.4450                 0.6681
 IR Inten    --     17.2873                46.2673                55.1447

                     19                     20                     21
                      A                      A                      A
 Frequencies --    783.7869               808.6401               829.5599
 Red. masses --      3.1603                 4.7395                 2.5090
 Frc consts  --      1.1439                 1.8260                 1.0173
 IR Inten    --     66.0928                13.2558                46.3971

                     22                     23                     24
                      A                      A                      A
 Frequencies --    844.5003               856.5319               911.7958
 Red. masses --      1.9361                 1.3785                 3.5595
 Frc consts  --      0.8135                 0.5959                 1.7436
 IR Inten    --     34.6423                 9.9282                13.4834

                     25                     26                     27
                      A                      A                      A
 Frequencies --    930.5927               964.8298               967.8707
 Red. masses --      2.5445                 1.3031                 2.4334
 Frc consts  --      1.2983                 0.7147                 1.3431
 IR Inten    --      7.0741                 1.0019                 7.8707

                     28                     29                     30
                      A                      A                      A
 Frequencies --   1008.5440              1097.0053              1114.0394
 Red. masses --      1.8898                 1.7369                 1.2887
 Frc consts  --      1.1325                 1.2315                 0.9423
 IR Inten    --      2.5191                11.7802                20.6710

                     31                     32                     33
                      A                      A                      A
 Frequencies --   1126.7012              1153.3673              1160.8471
 Red. masses --      2.4849                 1.4146                 1.5187
 Frc consts  --      1.8585                 1.1087                 1.2058
 IR Inten    --     28.6930                 1.2904                12.8724

                     34                     35                     36
                      A                      A                      A
 Frequencies --   1180.7903              1216.5292              1266.5027
 Red. masses --      1.7031                 2.3602                 1.8262
 Frc consts  --      1.3990                 2.0580                 1.7258
 IR Inten    --      9.2210                 2.8425                 2.9465

                     37                     38                     39
                      A                      A                      A
 Frequencies --   1314.8067              1342.4936              1350.9036
 Red. masses --      1.7770                 3.9536                 1.9244
 Frc consts  --      1.8100                 4.1983                 2.0691
 IR Inten    --      1.4091                 9.5434                20.0823

                     40                     41                     42
                      A                      A                      A
 Frequencies --   1372.8813              1384.8937              1442.1713
 Red. masses --      2.8005                 1.4588                 3.5608
 Frc consts  --      3.1099                 1.6485                 4.3635
 IR Inten    --     40.9182                 2.2201                33.3094

                     43                     44                     45
                      A                      A                      A
 Frequencies --   1465.8476              1480.1855              1497.8185
 Red. masses --      2.5521                 1.1593                 1.0960
 Frc consts  --      3.2309                 1.4964                 1.4487
 IR Inten    --     35.1421                 0.4312                 2.7498

                     46                     47                     48
                      A                      A                      A
 Frequencies --   1508.1326              1518.4818              1544.6564
 Red. masses --      1.2233                 1.0583                 1.6220
 Frc consts  --      1.6393                 1.4377                 2.2802
 IR Inten    --      6.8975                 4.8361                 8.9841

                     49                     50                     51
                      A                      A                      A
 Frequencies --   1549.2536              1553.4206              1626.1614
 Red. masses --      1.8339                 3.7413                 5.7599
 Frc consts  --      2.5934                 5.3193                 8.9741
 IR Inten    --      4.9234                19.0694                19.7029

                     52                     53                     54
                      A                      A                      A
 Frequencies --   1661.2689              2998.9369              3054.9185
 Red. masses --      6.5585                 1.0512                 1.0614
 Frc consts  --     10.6643                 5.5704                 5.8362
 IR Inten    --     31.7830                52.5036                42.2856

                     55                     56                     57
                      A                      A                      A
 Frequencies --   3079.3528              3109.6230              3118.9796
 Red. masses --      1.0819                 1.1041                 1.1037
 Frc consts  --      6.0447                 6.2905                 6.3260
 IR Inten    --     54.7971                15.4621                34.6870

                     58                     59                     60
                      A                      A                      A
 Frequencies --   3184.1923              3201.1154              3260.8872
 Red. masses --      1.0871                 1.0952                 1.0906
 Frc consts  --      6.4940                 6.6120                 6.8324
 IR Inten    --      9.0715                22.0268                 3.4236

                     61                     62                     63
                      A                      A                      A
 Frequencies --   3281.7556              3479.8867              3668.2608
 Red. masses --      1.1028                 1.0738                 1.0803
 Frc consts  --      6.9978                 7.6611                 8.5648
 IR Inten    --      4.5482                 1.6404                69.1380

 - Thermochemistry -
 -------------------
 Temperature   298.150 Kelvin.  Pressure   1.00000 Atm.
 Atom     1 has atomic number  6 and mass  12.00000

 Molecular mass:   161.09530 amu.
 Principal axes and moments of inertia in atomic units:
                           1         2         3
     Eigenvalues --   843.895283000.530113486.06949
           X            0.99997  -0.00663   0.00252
           Y            0.00665   0.99995  -0.00687
           Z           -0.00247   0.00689   0.99997
 This molecule is an asymmetric top.
 Rotational symmetry number  1.
 Warning -- assumption of classical behavior for rotation
           may cause significant error
 Rotational temperatures (Kelvin)      0.10264     0.02887     0.02485
 Rotational constants (GHZ):           2.13858     0.60147     0.51770
 Zero-point vibrational energy     505895.0 (Joules/Mol)
                                  120.91181 (Kcal/Mol)
 Warning -- explicit consideration of  15 degrees of freedom as
           vibrations may cause significant error
 Vibrational temperatures:     40.40   105.25   170.35   284.96   332.90
          (Kelvin)            355.77   429.70   517.07   593.12   628.26
                              670.85   678.15   785.25   882.76   893.10
                             1012.57  1052.54  1077.74  1127.69  1163.45
                             1193.55  1215.05  1232.36  1311.87  1338.92
                             1388.17  1392.55  1451.07  1578.35  1602.85
                             1621.07  1659.44  1670.20  1698.89  1750.31
                             1822.21  1891.71  1931.55  1943.65  1975.27
                             1992.55  2074.96  2109.03  2129.66  2155.03
                             2169.87  2184.76  2222.42  2229.03  2235.03
                             2339.68  2390.20  4314.80  4395.35  4430.50
                             4474.05  4487.52  4581.34  4605.69  4691.69
                             4721.71  5006.78  5277.81

 Zero-point correction=                           0.192685 (Hartree/Particle)
 Thermal correction to Energy=                    0.202927
 Thermal correction to Enthalpy=                  0.203871
 Thermal correction to Gibbs Free Energy=         0.156000
 Sum of electronic and zero-point Energies=           -513.677927
 Sum of electronic and thermal Energies=              -513.667685
 Sum of electronic and thermal Enthalpies=            -513.666740
 Sum of electronic and thermal Free Energies=         -513.714612

                     E (Thermal)             CV                S
                      KCal/Mol        Cal/Mol-Kelvin    Cal/Mol-Kelvin
 Total                  127.339             39.859            100.753
 Electronic               0.000              0.000              0.000
 Translational            0.889              2.981             41.139
 Rotational               0.889              2.981             30.557
 Vibrational            125.561             33.898             29.056
 Vibration     1          0.593              1.984              5.961
 Vibration     2          0.599              1.967              4.067
 Vibration     3          0.609              1.934              3.126
 Vibration     4          0.637              1.843              2.151
 Vibration     5          0.653              1.793              1.868
 Vibration     6          0.661              1.767              1.750
 Vibration     7          0.692              1.676              1.424
 Vibration     8          0.734              1.556              1.125
 Vibration     9          0.776              1.444              0.919
 Vibration    10          0.797              1.390              0.837
 Vibration    11          0.824              1.325              0.748
 Vibration    12          0.828              1.314              0.734
 Vibration    13          0.901              1.149              0.553
 Vibration    14          0.973              1.003              0.427
 Vibration    15          0.981              0.988              0.415

 Optimization completed.
    -- Stationary point found.

 1\1\GINC-NODE317\Freq\RB3LYP\6-31G(d)\C9H11N3\VSC10255\09-Dec-2020\0\\
 #N Geom=AllCheck Guess=TCheck SCRF=Check GenChk RB3LYP/6-31G(d) Freq\\
 CID_49758890_JID_2944_neutraal\\0,1\C,-0.2134687565,-0.019914845,0.498
 4279112\N,0.5332246693,-0.1294978667,-0.7527954676\C,-0.3140636724,-0.
 1242586891,-1.9530302692\C,-1.1182276182,1.1438958195,-2.1596383791\N,
 -2.3754232245,1.1502772617,-1.689995886\C,-3.0240175355,2.3055542315,-
 1.8223976176\C,-2.531754548,3.512174593,-2.3991616802\C,-1.2174033935,
 3.4716806055,-2.8815964744\C,-0.5184711654,2.2774930346,-2.7544337739\

 Normal termination of Gaussian 16 at Wed Dec  9 18:27:16 2020.

 ----------------------------------------------------------------------
 # B3LYP/6-311++G(d,p) empiricaldispersion=gd3bj scf=xqc pop=npa geom=c
 heck
 ----------------------------------------------------------------------

 --------------------------------------
 CID_49758890_JID_2944_Energie_neutraal
 --------------------------------------
 Structure from the checkpoint file:  "JID_2944.chk"
 Charge =  0 Multiplicity = 1

 SCF Done:  E(RB3LYP) =  -514.011955950     A.U. after   14 cycles
 Normal termination of Gaussian 16 at Wed Dec  9 18:28:57 2020.

 ----------------------------------------------------------------------
 # B3LYP/6-311++G(d,p) empiricaldispersion=gd3bj scf=xqc pop=npa geom=c
 heck
 ----------------------------------------------------------------------

 ------------------------------------
 CID_49758890_JID_2944_Energie_kation
 ------------------------------------
 Structure from the checkpoint file:  "JID_2944.chk"
 Charge =  1 Multiplicity = 2

 SCF Done:  E(UB3LYP) =  -513.729283425     A.U. after   24 cycles
 Normal termination of Gaussian 16 at Wed Dec  9 18:32:27 2020.
 Gaussian 16:  ES64L-G16RevA.03 25-Dec-2016

 -----------------------------------
 CID_49758890_JID_2944_Energie_anion
 -----------------------------------
 Structure from the checkpoint file:  "JID_2944.chk"
 Charge = -1 Multiplicity = 2

                         Standard orientation:
 ---------------------------------------------------------------------
 Center     Atomic      Atomic             Coordinates (Angstroms)
 Number     Number       Type             X           Y           Z
 ---------------------------------------------------------------------
      1          6           0        2.985762   -1.279635    0.974728
      2          7           0        3.309727   -0.032591    0.285492
      3          6           0        2.446833    0.249622   -0.869609
      4          6           0        0.978290    0.428058   -0.539272
      5          7           0        0.193529   -0.654823   -0.651815
      6          6           0       -1.072996   -0.477898   -0.281029
      7          6           0       -1.670027    0.717913    0.213441
      8          6           0       -0.824828    1.830057    0.316771
      9          6           0        0.502250    1.671146   -0.063192
     10          6           0       -3.049596    0.419951    0.472933
     11          6           0       -3.241941   -0.897637    0.141804
     12          7           0       -2.053878   -1.442642   -0.313250
     13          1           0        3.130398   -2.114993    0.280340
     14          1           0        1.954510   -1.345931    1.357472
     15          1           0        3.679218   -1.411551    1.812114
     16          1           0        3.234818    0.741256    0.944554
     17          1           0        2.832515    1.154457   -1.354489
     18          1           0        2.547437   -0.581809   -1.574995
     19          1           0       -1.193147    2.787614    0.675383
     20          1           0        1.190787    2.509647   -0.005202
     21          1           0       -3.802880    1.094071    0.855821
     22          1           0       -4.136313   -1.502039    0.192358
     23          1           0       -1.905473   -2.389785   -0.625798
 ---------------------------------------------------------------------

 SCF Done:  E(UB3LYP) =  -513.999295252     A.U. after   33 cycles
 SCF Done:  E(UB3LYP) =  -513.999295252     a.u. after    1 cycles

 The electronic state is 2-A.
 Alpha  occ. eigenvalues --  -14.23582 -14.19199 -14.17784 -10.10807 -10.08397
 Alpha  occ. eigenvalues --  -10.08122 -10.07953 -10.07830 -10.05781 -10.05306
 Alpha  occ. eigenvalues --  -10.05219 -10.04600  -0.87323  -0.81051  -0.78680
 Alpha  occ. eigenvalues --   -0.69395  -0.64542  -0.62963  -0.58519  -0.53430
 Alpha  occ. eigenvalues --   -0.51446  -0.47610  -0.47196  -0.42872  -0.38856
 Alpha  occ. eigenvalues --   -0.36745  -0.35231  -0.34084  -0.33763  -0.31418
 Alpha  occ. eigenvalues --   -0.31016  -0.30576  -0.28025  -0.27343  -0.26575
 Alpha  occ. eigenvalues --   -0.25703  -0.25134  -0.23127  -0.18778  -0.15144
 Alpha  occ. eigenvalues --   -0.12450  -0.11376  -0.10101   0.04952
 Alpha virt. eigenvalues --    0.06812   0.07451   0.08130   0.09052   0.09457
 Alpha virt. eigenvalues --    0.09840   0.11252   0.11914   0.12217   0.12477
 Alpha virt. eigenvalues --    0.12982   0.13813   0.14585   0.15346   0.16164

  Beta  occ. eigenvalues --  -14.23556 -14.19168 -14.17588 -10.10820 -10.08272
  Beta  occ. eigenvalues --  -10.08126 -10.07870 -10.07823 -10.05602 -10.05276
  Beta  occ. eigenvalues --  -10.05246 -10.04601  -0.87208  -0.80861  -0.78552
  Beta  occ. eigenvalues --   -0.69189  -0.64409  -0.62804  -0.58432  -0.53281
  Beta  occ. eigenvalues --   -0.51311  -0.47548  -0.47041  -0.42712  -0.38794
  Beta  occ. eigenvalues --   -0.36627  -0.35134  -0.33993  -0.33663  -0.31189
  Beta  occ. eigenvalues --   -0.30943  -0.30500  -0.27920  -0.27278  -0.26500
  Beta  occ. eigenvalues --   -0.25632  -0.25082  -0.22651  -0.18122  -0.14933
  Beta  occ. eigenvalues --   -0.12258  -0.11136  -0.09582
  Beta virt. eigenvalues --    0.07201   0.08160   0.08280   0.08755   0.09357
  Beta virt. eigenvalues --    0.09857   0.10212   0.11801   0.12120   0.12259
  Beta virt. eigenvalues --    0.12462   0.13022   0.13756   0.14699   0.15377

 Mulliken charges and spin densities:
               1          2
     1  C   -0.108405  -0.302829
     2  N   -0.148195   0.049768
     3  C    0.333544  -1.070171
     4  C    0.362139  -0.006057
     5  N    0.027949   0.076629
     6  C   -1.350846   0.576523
     7  C    1.478619  -0.342680
     8  C   -0.080295  -0.501241
     9  C   -0.175929  -0.023642
    10  C    0.789882  -1.237098
    11  C    0.092560  -0.106874
    12  N   -0.349445   0.195953
    13  H    0.085153   0.039849
    14  H    0.098921   0.062222
    15  H   -0.024728   0.144941
    16  H    0.076167   0.136477
    17  H    0.077278   0.076133
    18  H    0.069397   0.102736
    19  H   -0.070419   0.196507
    20  H   -0.214793   0.365699
    21  H   -0.091975   0.208441
    22  H   -1.588705   1.763702
    23  H   -0.287874   0.595011
 Sum of Mulliken charges =  -1.00000   1.00000

 Dipole moment (field-independent basis, Debye):
    X=              5.0493    Y=              3.3708    Z=              1.1899  Tot=              6.1866
 Quadrupole moment (field-independent basis, Debye-Ang):
   XX=           -147.1659   YY=           -104.5267   ZZ=            -91.4027
   XY=            -16.7311   XZ=             -3.2413   YZ=             -1.8322

 Summary of Natural Population Analysis:

                                       Natural Population
                Natural  -----------------------------------------------
    Atom  No    Charge         Core      Valence    Rydberg      Total
 -----------------------------------------------------------------------
      C    1   -0.18034      0.99966     2.17341    0.00727     3.18034
      N    2   -0.33436      0.99976     2.82178    0.01281     3.83436
      C    3   -0.09950      0.99959     2.08794    0.01198     3.09950
      C    4    0.10170      0.99955     1.88558    0.01318     2.89830
      N    5   -0.23005      0.99964     2.71961    0.01080     3.73005
      C    6    0.18546      0.99949     1.79853    0.01651     2.81454
      C    7   -0.06233      0.99949     2.05397    0.00887     3.06233
      C    8   -0.04790      0.99953     2.03926    0.00911     3.04790
      C    9   -0.14645      0.99952     2.13787    0.00906     3.14645
      C   10   -0.15293      0.99954     2.14337    0.01003     3.15293
      C   11    0.02400      0.99957     1.96299    0.01344     2.97600
      N   12   -0.27747      0.99966     2.76680    0.01101     3.77747
      H   13    0.08998      0.00000     0.40875    0.00127     0.41002
      H   14    0.08761      0.00000     0.41074    0.00166     0.41239
      H   15    0.08731      0.00000     0.41164    0.00105     0.41269
      H   16    0.16780      0.00000     0.32840    0.00380     0.33220
      H   17    0.09292      0.00000     0.40591    0.00117     0.40708
      H   18    0.09710      0.00000     0.40140    0.00149     0.40290
      H   19    0.09346      0.00000     0.40531    0.00123     0.40654
      H   20    0.09712      0.00000     0.40167    0.00121     0.40288
      H   21    0.10215      0.00000     0.39700    0.00085     0.39785
      H   22    0.10101      0.00000     0.39363    0.00536     0.39899
      H   23    0.20370      0.00000     0.29085    0.00544     0.29630
 =======================================================================
   * Total *    0.00000     11.99500    30.84640    0.15860    43.00000

 Normal termination of Gaussian 16 at Wed Dec  9 18:37:12 2020.
