 Gaussian 16, Revision A.03,

 -----------------------------------------------------------
 # opt freq B3LYP/6-31G(d) empiricaldispersion=gd3bj scf=xqc
 -----------------------------------------------------------

 ------------------------------
 CID_43544320_JID_2074_neutraal
 ------------------------------
 Symbolic Z-matrix:
 Charge =  0 Multiplicity = 1

 SCF Done:  E(RB3LYP) =  -539.753845074     A.U. after   13 cycles
 SCF Done:  E(RB3LYP) =  -539.758378618     A.U. after   11 cycles
 SCF Done:  E(RB3LYP) =  -539.759172810     A.U. after   11 cycles
 SCF Done:  E(RB3LYP) =  -539.759473937     A.U. after   10 cycles
 SCF Done:  E(RB3LYP) =  -539.759580751     A.U. after   11 cycles
 SCF Done:  E(RB3LYP) =  -539.759689180     A.U. after    9 cycles
 SCF Done:  E(RB3LYP) =  -539.759719205     A.U. after    9 cycles
 SCF Done:  E(RB3LYP) =  -539.759729009     A.U. after    9 cycles
 SCF Done:  E(RB3LYP) =  -539.759730201     A.U. after    8 cycles
 SCF Done:  E(RB3LYP) =  -539.759730387     A.U. after    7 cycles
 Optimization completed.
    -- Stationary point found.
 Normal termination of Gaussian 16 at Wed Dec  9 16:46:51 2020.

 --------------------------------------------------------------------
 #N Geom=AllCheck Guess=TCheck SCRF=Check GenChk RB3LYP/6-31G(d) Freq
 --------------------------------------------------------------------

 Structure from the checkpoint file:  "JID_2074.chk"
 ------------------------------
 CID_43544320_JID_2074_neutraal
 ------------------------------
 Charge =  0 Multiplicity = 1

 SCF Done:  E(RB3LYP) =  -539.759730387     A.U. after    1 cycles

  Exact polarizability: 115.668  -0.925 112.057   2.161  -1.046 100.811
 Approx polarizability: 151.919  -4.009 152.814  -1.221  -1.976 148.400

                      1                      2                      3
                      A                      A                      A
 Frequencies --     45.2332                73.5672               109.6201
 Red. masses --      3.2521                 3.4946                 2.9643
 Frc consts  --      0.0039                 0.0111                 0.0210
 IR Inten    --      0.4209                 0.8641                 0.0469

                      4                      5                      6
                      A                      A                      A
 Frequencies --    147.8894               186.0752               208.0992
 Red. masses --      2.5798                 2.1120                 1.1494
 Frc consts  --      0.0332                 0.0431                 0.0293
 IR Inten    --      1.0013                 0.9502                 1.4241

                      7                      8                      9
                      A                      A                      A
 Frequencies --    220.3125               239.3484               243.7805
 Red. masses --      1.2742                 1.6091                 1.7295
 Frc consts  --      0.0364                 0.0543                 0.0606
 IR Inten    --      5.5013                 5.6723                 1.2177

                     10                     11                     12
                      A                      A                      A
 Frequencies --    268.1549               269.0963               306.1976
 Red. masses --      1.4230                 2.3266                 1.3774
 Frc consts  --      0.0603                 0.0993                 0.0761
 IR Inten    --      3.3923                 3.1526                60.5400

                     13                     14                     15
                      A                      A                      A
 Frequencies --    363.5360               373.8349               383.1658
 Red. masses --      2.3887                 2.5865                 2.0868
 Frc consts  --      0.1860                 0.2130                 0.1805
 IR Inten    --      5.4595                 3.1483                 1.6509

                     16                     17                     18
                      A                      A                      A
 Frequencies --    426.5143               455.5623               484.0586
 Red. masses --      3.3069                 3.3743                 2.5579
 Frc consts  --      0.3544                 0.4126                 0.3531
 IR Inten    --      5.4408                 2.2954                 4.1731

                     19                     20                     21
                      A                      A                      A
 Frequencies --    507.7365               534.1479               572.8438
 Red. masses --      2.8945                 3.4443                 2.5295
 Frc consts  --      0.4397                 0.5790                 0.4891
 IR Inten    --      8.3908                 6.2130                 4.6767

                     22                     23                     24
                      A                      A                      A
 Frequencies --    692.0686               755.9614               822.7841
 Red. masses --      2.6677                 2.8669                 2.6656
 Frc consts  --      0.7528                 0.9653                 1.0632
 IR Inten    --      2.0391                 7.3952                 9.1843

                     25                     26                     27
                      A                      A                      A
 Frequencies --    865.1878               895.8982               907.5900
 Red. masses --      1.8572                 1.3321                 1.9177
 Frc consts  --      0.8191                 0.6299                 0.9307
 IR Inten    --      7.9880                82.2792                 4.0566

                     28                     29                     30
                      A                      A                      A
 Frequencies --    934.8485               943.9576               955.4725
 Red. masses --      1.8210                 1.6846                 1.3808
 Frc consts  --      0.9377                 0.8844                 0.7427
 IR Inten    --      8.4691                 4.6736                31.7198

                     31                     32                     33
                      A                      A                      A
 Frequencies --    970.7815               993.0830              1018.8295
 Red. masses --      1.6038                 1.8848                 2.0746
 Frc consts  --      0.8905                 1.0952                 1.2688
 IR Inten    --      5.2047                 9.2608                14.1216

                     34                     35                     36
                      A                      A                      A
 Frequencies --   1082.9371              1086.5538              1097.8145
 Red. masses --      2.3394                 2.7696                 2.0882
 Frc consts  --      1.6164                 1.9265                 1.4828
 IR Inten    --     62.4418                14.4293                18.3039

                     37                     38                     39
                      A                      A                      A
 Frequencies --   1119.7111              1130.3686              1133.8721
 Red. masses --      1.7908                 2.0131                 2.3629
 Frc consts  --      1.3229                 1.5155                 1.7899
 IR Inten    --     13.8642                12.9112                13.9836

                     40                     41                     42
                      A                      A                      A
 Frequencies --   1159.8351              1175.7452              1187.5804
 Red. masses --      2.1980                 2.1477                 2.4678
 Frc consts  --      1.7421                 1.7492                 2.0507
 IR Inten    --     16.9127                 6.5673                66.6930

                     43                     44                     45
                      A                      A                      A
 Frequencies --   1201.0023              1216.9974              1251.3377
 Red. masses --      1.7323                 2.5813                 1.9814
 Frc consts  --      1.4722                 2.2526                 1.8280
 IR Inten    --      6.9917                32.9865                22.2441

                     46                     47                     48
                      A                      A                      A
 Frequencies --   1305.5308              1316.1670              1320.5482
 Red. masses --      1.2895                 1.2424                 1.2847
 Frc consts  --      1.2949                 1.2681                 1.3199
 IR Inten    --      2.6091                 5.5397                22.1832

                     49                     50                     51
                      A                      A                      A
 Frequencies --   1355.0060              1357.3580              1376.4088
 Red. masses --      1.3125                 1.2690                 1.5221
 Frc consts  --      1.4198                 1.3775                 1.6990
 IR Inten    --      4.9499                 1.3637                11.8272

                     52                     53                     54
                      A                      A                      A
 Frequencies --   1390.7232              1401.1926              1418.6327
 Red. masses --      1.2736                 1.2434                 1.3546
 Frc consts  --      1.4514                 1.4383                 1.6062
 IR Inten    --     22.9021                 1.5654                12.2159

                     55                     56                     57
                      A                      A                      A
 Frequencies --   1429.1450              1434.6677              1438.1900
 Red. masses --      1.2789                 1.3353                 1.3916
 Frc consts  --      1.5390                 1.6193                 1.6958
 IR Inten    --      7.5509                 1.0709                13.1689

                     58                     59                     60
                      A                      A                      A
 Frequencies --   1442.0351              1443.2642              1454.3409
 Red. masses --      1.3060                 1.2893                 1.3976
 Frc consts  --      1.6000                 1.5823                 1.7416
 IR Inten    --      6.4001                14.5902                15.3729

                     61                     62                     63
                      A                      A                      A
 Frequencies --   1510.8295              1518.2529              1522.0393
 Red. masses --      1.0660                 1.0799                 1.0623
 Frc consts  --      1.4337                 1.4667                 1.4499
 IR Inten    --      2.2909                 1.1458                 4.3263

                     64                     65                     66
                      A                      A                      A
 Frequencies --   1524.6406              1527.3895              1532.2470
 Red. masses --      1.0543                 1.0510                 1.0600
 Frc consts  --      1.4440                 1.4446                 1.4662
 IR Inten    --      6.9970                 1.6052                 1.2030

                     67                     68                     69
                      A                      A                      A
 Frequencies --   1539.2461              1542.7697              1552.5925
 Red. masses --      1.0693                 1.0500                 1.0864
 Frc consts  --      1.4927                 1.4724                 1.5430
 IR Inten    --      1.1023                 6.9157                 2.3136

                     70                     71                     72
                      A                      A                      A
 Frequencies --   1672.9943              2924.9261              2946.6311
 Red. masses --      1.0882                 1.0808                 1.0736
 Frc consts  --      1.7946                 5.4478                 5.4922
 IR Inten    --     37.5094                46.9961                67.0854

                     73                     74                     75
                      A                      A                      A
 Frequencies --   2964.5002              3009.2950              3051.6768
 Red. masses --      1.0722                 1.0684                 1.0378
 Frc consts  --      5.5518                 5.7006                 5.6944
 IR Inten    --     66.2461                52.0343                14.8806

                     76                     77                     78
                      A                      A                      A
 Frequencies --   3057.1080              3058.7961              3061.6583
 Red. masses --      1.0369                 1.0407                 1.0834
 Frc consts  --      5.7095                 5.7367                 5.9837
 IR Inten    --     18.4952                18.3101                52.2156

                     79                     80                     81
                      A                      A                      A
 Frequencies --   3069.0265              3103.5338              3104.4605
 Red. masses --      1.0838                 1.0889                 1.0949
 Frc consts  --      6.0145                 6.1797                 6.2174
 IR Inten    --     37.3826                34.0715                17.6472

                     82                     83                     84
                      A                      A                      A
 Frequencies --   3110.1000              3119.2660              3121.7834
 Red. masses --      1.0937                 1.1022                 1.1012
 Frc consts  --      6.2328                 6.3184                 6.3230
 IR Inten    --      4.0706                27.9346                46.5298

                     85                     86                     87
                      A                      A                      A
 Frequencies --   3125.6539              3129.3203              3139.6334
 Red. masses --      1.0999                 1.0959                 1.0982
 Frc consts  --      6.3310                 6.3229                 6.3779
 IR Inten    --     28.3153                30.8603                37.5240

                     88                     89                     90
                      A                      A                      A
 Frequencies --   3145.7721              3468.7668              3558.1952
 Red. masses --      1.1020                 1.0493                 1.0922
 Frc consts  --      6.4252                 7.4384                 8.1473
 IR Inten    --     31.4891                10.4807                 1.2654

 - Thermochemistry -
 -------------------
 Temperature   298.150 Kelvin.  Pressure   1.00000 Atm.
 Atom     1 has atomic number  6 and mass  12.00000

 Molecular mass:   172.15756 amu.
 Principal axes and moments of inertia in atomic units:
                           1         2         3
     Eigenvalues --  1537.121492465.712202890.10883
           X            0.99951   0.01678   0.02660
           Y           -0.01656   0.99983  -0.00823
           Z           -0.02673   0.00779   0.99961
 This molecule is an asymmetric top.
 Rotational symmetry number  1.
 Warning -- assumption of classical behavior for rotation
           may cause significant error
 Rotational temperatures (Kelvin)      0.05635     0.03513     0.02997
 Rotational constants (GHZ):           1.17410     0.73194     0.62445
 Zero-point vibrational energy     775271.7 (Joules/Mol)
                                  185.29439 (Kcal/Mol)
 Warning -- explicit consideration of  21 degrees of freedom as
           vibrations may cause significant error
 Vibrational temperatures:     65.08   105.85   157.72   212.78   267.72
          (Kelvin)            299.41   316.98   344.37   350.75   385.82
                              387.17   440.55   523.05   537.87   551.29
                              613.66   655.45   696.45   730.52   768.52
                              824.19   995.73  1087.66  1183.80  1244.81
                             1289.00  1305.82  1345.04  1358.14  1374.71
                             1396.74  1428.82  1465.87  1558.10  1563.31
                             1579.51  1611.01  1626.35  1631.39  1668.74
                             1691.64  1708.66  1727.97  1750.99  1800.40
                             1878.37  1893.67  1899.97  1949.55  1952.94
                             1980.35  2000.94  2016.00  2041.10  2056.22
                             2064.17  2069.23  2074.77  2076.54  2092.47
                             2173.75  2184.43  2189.88  2193.62  2197.57
                             2204.56  2214.63  2219.70  2233.83  2407.07
                             4208.32  4239.54  4265.25  4329.70  4390.68
                             4398.50  4400.93  4405.04  4415.64  4465.29
                             4466.63  4474.74  4487.93  4491.55  4497.12
                             4502.39  4517.23  4526.06  4990.78  5119.45

 Zero-point correction=                           0.295285 (Hartree/Particle)
 Thermal correction to Energy=                    0.308591
 Thermal correction to Enthalpy=                  0.309536
 Thermal correction to Gibbs Free Energy=         0.256463
 Sum of electronic and zero-point Energies=           -539.464445
 Sum of electronic and thermal Energies=              -539.451139
 Sum of electronic and thermal Enthalpies=            -539.450195
 Sum of electronic and thermal Free Energies=         -539.503268

                     E (Thermal)             CV                S
                      KCal/Mol        Cal/Mol-Kelvin    Cal/Mol-Kelvin
 Total                  193.644             51.438            111.701
 Electronic               0.000              0.000              0.000
 Translational            0.889              2.981             41.337
 Rotational               0.889              2.981             30.772
 Vibrational            191.867             45.477             39.592
 Vibration     1          0.595              1.979              5.016
 Vibration     2          0.599              1.966              4.056
 Vibration     3          0.606              1.942              3.276
 Vibration     4          0.617              1.905              2.699
 Vibration     5          0.632              1.859              2.267
 Vibration     6          0.641              1.828              2.060
 Vibration     7          0.647              1.810              1.957
 Vibration     8          0.657              1.780              1.808
 Vibration     9          0.659              1.773              1.775
 Vibration    10          0.673              1.732              1.608
 Vibration    11          0.673              1.730              1.602
 Vibration    12          0.697              1.662              1.383
 Vibration    13          0.737              1.547              1.107
 Vibration    14          0.745              1.526              1.064
 Vibration    15          0.752              1.506              1.027
 Vibration    16          0.788              1.413              0.870
 Vibration    17          0.814              1.349              0.779
 Vibration    18          0.840              1.285              0.699
 Vibration    19          0.863              1.233              0.639
 Vibration    20          0.889              1.174              0.578
 Vibration    21          0.929              1.090              0.499

 Optimization completed.
    -- Stationary point found.
 Normal termination of Gaussian 16 at Wed Dec  9 16:55:09 2020.

 ----------------------------------------------------------------------
 # B3LYP/6-311++G(d,p) empiricaldispersion=gd3bj scf=xqc pop=npa geom=c
 heck
 ----------------------------------------------------------------------

 --------------------------------------
 CID_43544320_JID_2074_Energie_neutraal
 --------------------------------------
 Structure from the checkpoint file:  "JID_2074.chk"
 Charge =  0 Multiplicity = 1

 SCF Done:  E(RB3LYP) =  -539.920902176     A.U. after   13 cycles
 Normal termination of Gaussian 16 at Wed Dec  9 16:58:07 2020.

 ----------------------------------------------------------------------
 # B3LYP/6-311++G(d,p) empiricaldispersion=gd3bj scf=xqc pop=npa geom=c
 heck
 ----------------------------------------------------------------------

 ------------------------------------
 CID_43544320_JID_2074_Energie_kation
 ------------------------------------
 Structure from the checkpoint file:  "JID_2074.chk"
 Charge =  1 Multiplicity = 2

 SCF Done:  E(UB3LYP) =  -539.632871282     A.U. after   21 cycles
 Normal termination of Gaussian 16 at Wed Dec  9 17:04:26 2020.
 Gaussian 16:  ES64L-G16RevA.03 25-Dec-2016

 ----------------------------------------------------------------------
 # B3LYP/6-311++G(d,p) empiricaldispersion=gd3bj scf=xqc pop=npa geom=c
 heck
 ----------------------------------------------------------------------

 -----------------------------------
 CID_43544320_JID_2074_Energie_anion
 -----------------------------------
 Structure from the checkpoint file:  "JID_2074.chk"
 Charge = -1 Multiplicity = 2

                         Standard orientation:
 ---------------------------------------------------------------------
 Center     Atomic      Atomic             Coordinates (Angstroms)
 Number     Number       Type             X           Y           Z
 ---------------------------------------------------------------------
      1          6           0       -1.885542   -1.979991   -0.505226
      2          6           0       -1.826259   -1.018119    0.682770
      3          6           0       -0.399403   -0.662243    1.105893
      4          7           0        0.251121    0.155367    0.081047
      5          6           0       -0.494154    1.412850   -0.089077
      6          6           0       -1.934608    1.053669   -0.476136
      7          8           0       -2.566137    0.183264    0.448320
      8          6           0        0.095407    2.318448   -1.171243
      9          6           0        1.712772    0.281484    0.252801
     10          6           0        2.163066    0.722264    1.653057
     11          6           0        2.395458   -1.018763   -0.190742
     12          7           0        2.074784   -1.273882   -1.594196
     13          1           0       -2.924404   -2.127796   -0.815815
     14          1           0       -1.466194   -2.952898   -0.224023
     15          1           0       -1.314763   -1.602498   -1.357600
     16          1           0       -2.331696   -1.482115    1.537333
     17          1           0       -0.451212   -0.136756    2.076040
     18          1           0        0.174298   -1.581421    1.257929
     19          1           0       -0.539017    1.970838    0.866824
     20          1           0       -1.928397    0.620019   -1.488309
     21          1           0       -2.549189    1.958814   -0.496751
     22          1           0       -0.623145    3.105546   -1.426142
     23          1           0        1.015653    2.813165   -0.849812
     24          1           0        0.313485    1.740434   -2.075756
     25          1           0        2.039471    1.033325   -0.467953
     26          1           0        1.971076   -0.049372    2.406614
     27          1           0        3.238535    0.930725    1.656855
     28          1           0        1.643839    1.634418    1.967269
     29          1           0        3.480203   -0.887919   -0.089521
     30          1           0        2.117605   -1.838509    0.497513
     31          1           0        2.360753   -2.214233   -1.858549
     32          1           0        1.060439   -1.227872   -1.683243
 ---------------------------------------------------------------------

 SCF Done:  E(UB3LYP) =  -539.904399792     A.U. after   28 cycles

 The electronic state is 2-A.
 Alpha  occ. eigenvalues --  -19.02211 -14.20398 -14.18176 -10.11854 -10.11463
 Alpha  occ. eigenvalues --  -10.10247 -10.09379 -10.08715 -10.08195 -10.06777
 Alpha  occ. eigenvalues --  -10.05617 -10.05515  -0.93908  -0.82771  -0.77068
 Alpha  occ. eigenvalues --   -0.69720  -0.66972  -0.63293  -0.58469  -0.57494
 Alpha  occ. eigenvalues --   -0.55762  -0.51618  -0.47785  -0.43982  -0.41095
 Alpha  occ. eigenvalues --   -0.39175  -0.37733  -0.36790  -0.35922  -0.34986
 Alpha  occ. eigenvalues --   -0.33760  -0.32967  -0.31650  -0.30299  -0.29545
 Alpha  occ. eigenvalues --   -0.29433  -0.28909  -0.27230  -0.26578  -0.26560
 Alpha  occ. eigenvalues --   -0.25893  -0.24959  -0.24087  -0.22220  -0.19891
 Alpha  occ. eigenvalues --   -0.16183  -0.13835  -0.11722   0.04668
 Alpha virt. eigenvalues --    0.06614   0.07120   0.07533   0.08981   0.09338
 Alpha virt. eigenvalues --    0.09540   0.10065   0.10400   0.11584   0.11916
 Alpha virt. eigenvalues --    0.12385   0.12624   0.13453   0.13734   0.14236

  Beta  occ. eigenvalues --  -19.02210 -14.20390 -14.18156 -10.11842 -10.11452
  Beta  occ. eigenvalues --  -10.10238 -10.09371 -10.08695 -10.08168 -10.06760
  Beta  occ. eigenvalues --  -10.05587 -10.05482  -0.93900  -0.82752  -0.77033
  Beta  occ. eigenvalues --   -0.69693  -0.66939  -0.63257  -0.58430  -0.57443
  Beta  occ. eigenvalues --   -0.55698  -0.51573  -0.47735  -0.43937  -0.41065
  Beta  occ. eigenvalues --   -0.39149  -0.37697  -0.36743  -0.35879  -0.34947
  Beta  occ. eigenvalues --   -0.33725  -0.32942  -0.31616  -0.30265  -0.29516
  Beta  occ. eigenvalues --   -0.29401  -0.28874  -0.27191  -0.26545  -0.26520
  Beta  occ. eigenvalues --   -0.25859  -0.24926  -0.24056  -0.22184  -0.19868
  Beta  occ. eigenvalues --   -0.16170  -0.13805  -0.11678
  Beta virt. eigenvalues --    0.06834   0.07562   0.07795   0.08181   0.09522
  Beta virt. eigenvalues --    0.09772   0.10077   0.10517   0.10943   0.12111
  Beta virt. eigenvalues --    0.12326   0.12782   0.13024   0.13712   0.13925

 Mulliken charges and spin densities:
               1          2
     1  C    1.123868  -1.589548
     2  C   -1.043109   0.877617
     3  C    0.723515  -1.060256
     4  N    0.242271  -0.014570
     5  C   -0.307834   0.373777
     6  C    0.227923  -0.727923
     7  O   -0.085760   0.000318
     8  C    0.155877  -0.692280
     9  C   -1.759908   1.668495
    10  C    1.572577  -2.139476
    11  C    0.634351  -1.144775
    12  N   -0.432464   0.097743
    13  H   -0.078219   0.239329
    14  H   -0.243783   0.387748
    15  H   -0.108062   0.252538
    16  H   -0.502094   0.722235
    17  H   -0.062865   0.217641
    18  H   -0.009226   0.147950
    19  H   -0.014336   0.167609
    20  H    0.060861   0.086537
    21  H    0.048457   0.101209
    22  H   -0.091852   0.235664
    23  H   -0.098526   0.261855
    24  H    0.041787   0.115969
    25  H    0.034235   0.145406
    26  H   -0.221273   0.386369
    27  H   -0.374927   0.528097
    28  H   -0.118654   0.263982
    29  H   -0.178587   0.348967
    30  H   -0.432110   0.562617
    31  H   -0.076610   0.321663
    32  H    0.374477  -0.142503
 Sum of Mulliken charges =  -1.00000   1.00000

 Dipole moment (field-independent basis, Debye):
    X=             -2.6639    Y=              2.9707    Z=             -2.1497  Tot=              4.5324
 Quadrupole moment (field-independent basis, Debye-Ang):
   XX=           -135.4993   YY=           -127.6991   ZZ=           -116.7980
   XY=             -2.0303   XZ=              0.2206   YZ=             -0.1263

 Summary of Natural Population Analysis:

                                       Natural Population
                Natural  -----------------------------------------------
    Atom  No    Charge         Core      Valence    Rydberg      Total
 -----------------------------------------------------------------------
      C    1   -0.30017      0.99964     2.29439    0.00614     3.30017
      C    2    0.06266      0.99955     1.92165    0.01614     2.93734
      C    3   -0.10112      0.99958     2.08881    0.01273     3.10112
      N    4   -0.29459      0.99969     2.78107    0.01382     3.79459
      C    5   -0.01750      0.99959     2.00567    0.01225     3.01750
      C    6   -0.00761      0.99953     1.99606    0.01202     3.00761
      O    7   -0.30300      0.99989     3.29383    0.00928     4.30300
      C    8   -0.29347      0.99964     2.28738    0.00645     3.29347
      C    9   -0.01070      0.99958     1.99739    0.01374     3.01070
      C   10   -0.29662      0.99964     2.29136    0.00562     3.29662
      C   11   -0.08779      0.99960     2.07683    0.01136     3.08779
      N   12   -0.42561      0.99977     2.91558    0.01025     3.92561
      H   13    0.10098      0.00000     0.39800    0.00102     0.39902
      H   14    0.10498      0.00000     0.39348    0.00154     0.39502
      H   15    0.09883      0.00000     0.39939    0.00177     0.40117
      H   16    0.09159      0.00000     0.40685    0.00156     0.40841
      H   17    0.08832      0.00000     0.40986    0.00182     0.41168
      H   18    0.10447      0.00000     0.39350    0.00203     0.39553
      H   19    0.08198      0.00000     0.41605    0.00197     0.41802
      H   20    0.07919      0.00000     0.41938    0.00143     0.42081
      H   21    0.08970      0.00000     0.40913    0.00117     0.41030
      H   22    0.10044      0.00000     0.39873    0.00083     0.39956
      H   23    0.10347      0.00000     0.39546    0.00107     0.39653
      H   24    0.10470      0.00000     0.39420    0.00111     0.39530
      H   25    0.09940      0.00000     0.39800    0.00260     0.40060
      H   26    0.10061      0.00000     0.39815    0.00123     0.39939
      H   27    0.10332      0.00000     0.39538    0.00130     0.39668
      H   28    0.10053      0.00000     0.39838    0.00109     0.39947
      H   29    0.09089      0.00000     0.40781    0.00129     0.40911
      H   30    0.07952      0.00000     0.41808    0.00239     0.42048
      H   31    0.17398      0.00000     0.32433    0.00168     0.32602
      H   32    0.17861      0.00000     0.31850    0.00289     0.32139
 =======================================================================
   * Total *   -0.00000     11.99569    35.84270    0.16161    48.00000

 Normal termination of Gaussian 16 at Wed Dec  9 17:13:09 2020.
