 Gaussian 16, Revision A.03,

 -----------------------------------------------------------
 # opt freq B3LYP/6-31G(d) empiricaldispersion=gd3bj scf=xqc
 -----------------------------------------------------------

 ------------------------------
 CID_54078102_JID_1063_neutraal
 ------------------------------
 Symbolic Z-matrix:
 Charge =  0 Multiplicity = 1

 SCF Done:  E(RB3LYP) =  -1666.22406892     A.U. after   16 cycles
 SCF Done:  E(RB3LYP) =  -1666.23648178     A.U. after   13 cycles
 SCF Done:  E(RB3LYP) =  -1666.23799967     A.U. after   12 cycles
 SCF Done:  E(RB3LYP) =  -1666.23944369     A.U. after   12 cycles
 SCF Done:  E(RB3LYP) =  -1666.23956464     A.U. after   10 cycles
 SCF Done:  E(RB3LYP) =  -1666.23958702     A.U. after   10 cycles
 SCF Done:  E(RB3LYP) =  -1666.23958032     A.U. after   10 cycles
 SCF Done:  E(RB3LYP) =  -1666.23959040     A.U. after    9 cycles
 Optimization completed.
    -- Stationary point found.
 Normal termination of Gaussian 16 at Sun Dec 13 19:57:58 2020.

 --------------------------------------------------------------------
 #N Geom=AllCheck Guess=TCheck SCRF=Check GenChk RB3LYP/6-31G(d) Freq
 --------------------------------------------------------------------

 Structure from the checkpoint file:  "JID_1063.chk"
 ------------------------------
 CID_54078102_JID_1063_neutraal
 ------------------------------
 Charge =  0 Multiplicity = 1

 SCF Done:  E(RB3LYP) =  -1666.23959040     A.U. after    1 cycles

  Exact polarizability: 114.700  -0.609 132.764  -0.040  -0.046  54.547
 Approx polarizability: 183.241  -0.985 247.954  -0.081  -0.133  97.485

 ******    3 imaginary frequencies (negative Signs) ******

                      1                      2                      3
                      A                      A                      A
 Frequencies --   -302.1401               -33.3593                -8.1233
 Red. masses --      1.0673                12.0537                12.1117
 Frc consts  --      0.0574                 0.0079                 0.0005
 IR Inten    --    112.0829                 0.8722                14.7244

                      4                      5                      6
                      A                      A                      A
 Frequencies --    158.7781               165.3317               208.7339
 Red. masses --      1.1127                 8.1987                13.8627
 Frc consts  --      0.0165                 0.1320                 0.3559
 IR Inten    --    106.1926                 1.1039                 4.4229

                      7                      8                      9
                      A                      A                      A
 Frequencies --    218.4297               248.6279               268.2680
 Red. masses --     10.4431                 9.4443                 9.1980
 Frc consts  --      0.2936                 0.3440                 0.3900
 IR Inten    --      3.8005                 0.2506                 0.4735

                     10                     11                     12
                      A                      A                      A
 Frequencies --    310.1975               335.2502               412.2512
 Red. masses --     13.3927                10.8618                10.7162
 Frc consts  --      0.7593                 0.7193                 1.0730
 IR Inten    --      1.2922                 2.3155                10.5722

                     13                     14                     15
                      A                      A                      A
 Frequencies --    470.8322               474.1847               503.7824
 Red. masses --      9.7594                16.4462                 5.5644
 Frc consts  --      1.2747                 2.1788                 0.8321
 IR Inten    --     58.0139                23.1337                 6.2184

                     16                     17                     18
                      A                      A                      A
 Frequencies --    518.6860               559.1484               571.4218
 Red. masses --      9.8988                13.7444                 7.0951
 Frc consts  --      1.5691                 2.5318                 1.3650
 IR Inten    --     74.6220                43.1005               110.9756

                     19                     20                     21
                      A                      A                      A
 Frequencies --    612.9983               669.4679               771.9945
 Red. masses --      2.9395                 1.9130                12.4626
 Frc consts  --      0.6508                 0.5052                 4.3761
 IR Inten    --      1.6578                54.3513                 4.6159

                     22                     23                     24
                      A                      A                      A
 Frequencies --    816.5169               853.6871               989.7234
 Red. masses --     17.2674                 3.4839                 8.4306
 Frc consts  --      6.7828                 1.4959                 4.8656
 IR Inten    --    113.4952                10.5444                50.3047

                     25                     26                     27
                      A                      A                      A
 Frequencies --   1067.5680              1139.2180              1157.8116
 Red. masses --      6.1149                 1.5319                 1.8798
 Frc consts  --      4.1061                 1.1714                 1.4847
 IR Inten    --    117.4891                 6.6579                 1.2551

                     28                     29                     30
                      A                      A                      A
 Frequencies --   1190.0086              1220.0482              1254.5838
 Red. masses --      2.0953                 3.1344                 4.8259
 Frc consts  --      1.7483                 2.7489                 4.4754
 IR Inten    --    190.2613                41.2299               666.2476

                     31                     32                     33
                      A                      A                      A
 Frequencies --   1384.2319              1441.9663              1699.2952
 Red. masses --     20.6327                 2.7883                 9.5628
 Frc consts  --     23.2929                 3.4159                16.2695
 IR Inten    --    219.9096                45.7555               218.7498

                     34                     35                     36
                      A                      A                      A
 Frequencies --   3281.4806              3654.9171              3766.0272
 Red. masses --      1.0955                 1.0655                 1.0663
 Frc consts  --      6.9505                 8.3862                 8.9100
 IR Inten    --      7.4519               122.3392               101.4969

 - Thermochemistry -
 -------------------
 Temperature   298.150 Kelvin.  Pressure   1.00000 Atm.
 Atom     1 has atomic number  6 and mass  12.00000

 Molecular mass:   212.92242 amu.
 Principal axes and moments of inertia in atomic units:
                           1         2         3
     Eigenvalues --  1677.756682426.612103738.74014
           X            0.99900   0.04480  -0.00002
           Y           -0.04480   0.99900   0.00001
           Z            0.00002  -0.00001   1.00000
 This molecule is an asymmetric top.
 Rotational symmetry number  1.
 Warning -- assumption of classical behavior for rotation
           may cause significant error
 Rotational temperatures (Kelvin)      0.05162     0.03569     0.02317
 Rotational constants (GHZ):           1.07569     0.74373     0.48271
    3 imaginary frequencies ignored.
 Zero-point vibrational energy     193767.9 (Joules/Mol)
                                   46.31165 (Kcal/Mol)
 Warning -- explicit consideration of  16 degrees of freedom as
           vibrations may cause significant error
 Vibrational temperatures:    228.45   237.88   300.32   314.27   357.72
          (Kelvin)            385.98   446.30   482.35   593.14   677.42
                              682.25   724.83   746.27   804.49   822.15
                              881.97   963.21  1110.73  1174.79  1228.27
                             1423.99  1535.99  1639.08  1665.83  1712.16
                             1755.38  1805.07  1991.60  2074.67  2444.91
                             4721.32  5258.61  5418.47

 Zero-point correction=                           0.073802 (Hartree/Particle)
 Thermal correction to Energy=                    0.082949
 Thermal correction to Enthalpy=                  0.083893
 Thermal correction to Gibbs Free Energy=         0.038969
 Sum of electronic and zero-point Energies=          -1666.165788
 Sum of electronic and thermal Energies=             -1666.156641
 Sum of electronic and thermal Enthalpies=           -1666.155697
 Sum of electronic and thermal Free Energies=        -1666.200621

                     E (Thermal)             CV                S
                      KCal/Mol        Cal/Mol-Kelvin    Cal/Mol-Kelvin
 Total                   52.051             34.641             94.551
 Electronic               0.000              0.000              0.000
 Translational            0.889              2.981             41.971
 Rotational               0.889              2.981             31.099
 Vibrational             50.274             28.679             21.481
 Vibration     1          0.621              1.893              2.564
 Vibration     2          0.624              1.885              2.488
 Vibration     3          0.642              1.827              2.055
 Vibration     4          0.646              1.813              1.972
 Vibration     5          0.662              1.765              1.740
 Vibration     6          0.673              1.731              1.607
 Vibration     7          0.699              1.654              1.361
 Vibration     8          0.716              1.605              1.235
 Vibration     9          0.776              1.444              0.919
 Vibration    10          0.828              1.315              0.735
 Vibration    11          0.831              1.307              0.726
 Vibration    12          0.859              1.242              0.649
 Vibration    13          0.874              1.209              0.613
 Vibration    14          0.915              1.120              0.526
 Vibration    15          0.928              1.093              0.502
 Vibration    16          0.972              1.004              0.428

                           ! Non-Optimized Parameters !
 Normal termination of Gaussian 16 at Sun Dec 13 20:00:28 2020.

 ----------------------------------------------------------------------
 # B3LYP/6-311++G(d,p) empiricaldispersion=gd3bj scf=xqc pop=npa geom=c
 heck
 ----------------------------------------------------------------------

 --------------------------------------
 CID_54078102_JID_1063_Energie_neutraal
 --------------------------------------
 Structure from the checkpoint file:  "JID_1063.chk"
 Charge =  0 Multiplicity = 1

 SCF Done:  E(RB3LYP) =  -1666.46943917     A.U. after   15 cycles
 Normal termination of Gaussian 16 at Sun Dec 13 20:01:25 2020.

 ----------------------------------------------------------------------
 # B3LYP/6-311++G(d,p) empiricaldispersion=gd3bj scf=xqc pop=npa geom=c
 heck
 ----------------------------------------------------------------------

 ------------------------------------
 CID_54078102_JID_1063_Energie_kation
 ------------------------------------
 Structure from the checkpoint file:  "JID_1063.chk"
 Charge =  1 Multiplicity = 2

 SCF Done:  E(UB3LYP) =  -1666.17593413     A.U. after   25 cycles
 Normal termination of Gaussian 16 at Sun Dec 13 20:03:45 2020.
 Gaussian 16:  ES64L-G16RevA.03 25-Dec-2016

 ----------------------------------------------------------------------
 # B3LYP/6-311++G(d,p) empiricaldispersion=gd3bj scf=xqc pop=npa geom=c
 heck
 ----------------------------------------------------------------------

 -----------------------------------
 CID_54078102_JID_1063_Energie_anion
 -----------------------------------
 Structure from the checkpoint file:  "JID_1063.chk"
 Charge = -1 Multiplicity = 2

                         Standard orientation:
 ---------------------------------------------------------------------
 Center     Atomic      Atomic             Coordinates (Angstroms)
 Number     Number       Type             X           Y           Z
 ---------------------------------------------------------------------
      1          6           0        1.614273    1.913179   -0.000118
      2          6           0        0.306416    1.606478    0.000535
      3          7           0        0.032388    0.219702   -0.000317
      4          6           0        1.173373   -0.609404    0.000576
      5         16           0        1.352623   -2.245463    0.001185
      6         16           0        2.584832    0.453712   -0.001091
      7         16           0       -1.682158   -0.192762   -0.000301
      8          8           0       -2.241484    0.231924    1.267246
      9          8           0       -2.243326    0.244012   -1.262777
     10          8           0       -1.492097   -1.791991   -0.007831
     11          8           0       -0.778325    2.404237    0.002393
     12          1           0        2.050683    2.901207    0.000425
     13          1           0       -2.388654   -2.185947    0.003682
     14          1           0       -0.496022    3.332036    0.003212
 ---------------------------------------------------------------------

 SCF Done:  E(UB3LYP) =  -1666.47656305     A.U. after   33 cycles
 SCF Done:  E(UB3LYP) =  -1666.47671719     a.u. after    3 cycles

 The electronic state is 2-A.
 Alpha  occ. eigenvalues --  -89.01012 -88.75924 -88.67093 -19.08910 -19.06780
 Alpha  occ. eigenvalues --  -19.03940 -19.03687 -14.28151 -10.17957 -10.14615
 Alpha  occ. eigenvalues --  -10.08219  -8.06828  -7.84519  -7.75868  -6.03175
 Alpha  occ. eigenvalues --   -6.03084  -6.02922  -5.80875  -5.80491  -5.79997
 Alpha  occ. eigenvalues --   -5.72258  -5.71746  -5.71395  -1.07459  -0.99158
 Alpha  occ. eigenvalues --   -0.96139  -0.93548  -0.87470  -0.71745  -0.66829
 Alpha  occ. eigenvalues --   -0.60165  -0.56525  -0.53840  -0.49005  -0.44959
 Alpha  occ. eigenvalues --   -0.43550  -0.39550  -0.39235  -0.37073  -0.35271
 Alpha  occ. eigenvalues --   -0.33464  -0.32636  -0.29873  -0.27625  -0.27434
 Alpha  occ. eigenvalues --   -0.25664  -0.25152  -0.24385  -0.23732  -0.21289
 Alpha  occ. eigenvalues --   -0.18679  -0.16382  -0.09134  -0.08450   0.03688
 Alpha virt. eigenvalues --    0.05736   0.06002   0.08738   0.10094   0.12242
 Alpha virt. eigenvalues --    0.12492   0.12903   0.13172   0.14054   0.14214
 Alpha virt. eigenvalues --    0.14774   0.15118   0.16308   0.16589   0.16967

  Beta  occ. eigenvalues --  -89.00989 -88.75903 -88.67061 -19.08843 -19.06725
  Beta  occ. eigenvalues --  -19.03935 -19.03638 -14.28032 -10.17977 -10.14114
  Beta  occ. eigenvalues --  -10.08151  -8.06800  -7.84500  -7.75840  -6.03156
  Beta  occ. eigenvalues --   -6.03054  -6.02900  -5.80856  -5.80489  -5.79929
  Beta  occ. eigenvalues --   -5.72258  -5.71644  -5.71362  -1.07339  -0.99050
  Beta  occ. eigenvalues --   -0.95993  -0.93462  -0.87157  -0.71537  -0.66363
  Beta  occ. eigenvalues --   -0.59995  -0.56362  -0.53667  -0.48817  -0.44878
  Beta  occ. eigenvalues --   -0.43359  -0.39412  -0.39124  -0.36964  -0.34999
  Beta  occ. eigenvalues --   -0.33164  -0.32521  -0.29783  -0.27511  -0.26849
  Beta  occ. eigenvalues --   -0.25425  -0.24921  -0.24180  -0.23511  -0.21226
  Beta  occ. eigenvalues --   -0.18328  -0.15491  -0.09021  -0.07983
  Beta virt. eigenvalues --    0.06618   0.07395   0.08788   0.09376   0.10696
  Beta virt. eigenvalues --    0.12326   0.12465   0.13184   0.13341   0.14117
  Beta virt. eigenvalues --    0.14447   0.14700   0.15140   0.16351   0.16479

 Mulliken charges and spin densities:
               1          2
     1  C    0.794339  -0.849114
     2  C   -0.022428  -0.080841
     3  N    0.094208   0.017220
     4  C   -0.091409   0.184854
     5  S   -0.507027   0.022572
     6  S   -0.099524  -0.007305
     7  S    0.414323   0.086229
     8  O   -0.205070  -0.001725
     9  O   -0.172302  -0.022787
    10  O   -0.098110  -0.061964
    11  O   -0.232023   0.008228
    12  H   -0.606311   0.845863
    13  H    0.010150   0.269708
    14  H   -0.278816   0.589062
 Sum of Mulliken charges =  -1.00000   1.00000

 Dipole moment (field-independent basis, Debye):
    X=             -1.4842    Y=             -1.3148    Z=              0.1672  Tot=              1.9898
 Quadrupole moment (field-independent basis, Debye-Ang):
   XX=           -114.4873   YY=           -126.3925   ZZ=           -101.6988
   XY=              7.9413   XZ=              0.0880   YZ=             -0.9945

 Summary of Natural Population Analysis:

                                       Natural Population
                Natural  -----------------------------------------------
    Atom  No    Charge         Core      Valence    Rydberg      Total
 -----------------------------------------------------------------------
      C    1   -0.25110      0.99944     2.24078    0.01089     3.25110
      C    2    0.23879      0.99935     1.74540    0.01645     2.76121
      N    3   -0.33693      0.99953     2.82080    0.01661     3.83693
      C    4    0.01092      0.99970     1.97048    0.01889     2.98908
      S    5   -0.06275      4.99947     3.04675    0.01654     8.06275
      S    6    0.19901      4.99941     2.77697    0.02461     7.80099
      S    7    1.19851      4.99946     1.69703    0.10500     6.80149
      O    8   -0.43415      0.99989     3.42840    0.00585     4.43415
      O    9   -0.42993      0.99989     3.42433    0.00570     4.42993
      O   10   -0.41062      0.99990     3.40370    0.00702     4.41062
      O   11   -0.33379      0.99986     3.32702    0.00690     4.33379
      H   12    0.11606      0.00000     0.38151    0.00242     0.38394
      H   13    0.24641      0.00000     0.24661    0.00698     0.25359
      H   14    0.24957      0.00000     0.23564    0.01479     0.25043
 =======================================================================
   * Total *   -0.00000     22.99592    30.74542    0.25866    54.00000

 Normal termination of Gaussian 16 at Sun Dec 13 20:12:25 2020.
