 Gaussian 16, Revision A.03,

 -----------------------------------------------------------
 # opt freq B3LYP/6-31G(d) empiricaldispersion=gd3bj scf=xqc
 -----------------------------------------------------------

 -------------------------------
 CID_105271834_JID_8890_neutraal
 -------------------------------
 Symbolic Z-matrix:
 Charge =  0 Multiplicity = 1

 SCF Done:  E(RB3LYP) =  -821.324159051     A.U. after   14 cycles
 SCF Done:  E(RB3LYP) =  -821.334309722     A.U. after   12 cycles
 SCF Done:  E(RB3LYP) =  -821.334129119     A.U. after   13 cycles
 SCF Done:  E(RB3LYP) =  -821.333794777     A.U. after   12 cycles
 SCF Done:  E(RB3LYP) =  -821.332855850     A.U. after   12 cycles
 SCF Done:  E(RB3LYP) =  -821.335006343     A.U. after   10 cycles
 SCF Done:  E(RB3LYP) =  -821.337009851     A.U. after   12 cycles
 SCF Done:  E(RB3LYP) =  -821.336586830     A.U. after   12 cycles
 SCF Done:  E(RB3LYP) =  -821.337308423     A.U. after   11 cycles
 SCF Done:  E(RB3LYP) =  -821.337309716     A.U. after   11 cycles
 SCF Done:  E(RB3LYP) =  -821.337376145     A.U. after    9 cycles
 SCF Done:  E(RB3LYP) =  -821.337382240     A.U. after    9 cycles
 SCF Done:  E(RB3LYP) =  -821.337384709     A.U. after    9 cycles
 SCF Done:  E(RB3LYP) =  -821.337385282     A.U. after    8 cycles
 SCF Done:  E(RB3LYP) =  -821.337385482     A.U. after    7 cycles
 SCF Done:  E(RB3LYP) =  -821.337385529     A.U. after    6 cycles
 Optimization completed.
    -- Stationary point found.
 Normal termination of Gaussian 16 at Fri Dec 11 21:24:20 2020.

 --------------------------------------------------------------------
 #N Geom=AllCheck Guess=TCheck SCRF=Check GenChk RB3LYP/6-31G(d) Freq
 --------------------------------------------------------------------

 Structure from the checkpoint file:  "JID_8890.chk"
 -------------------------------
 CID_105271834_JID_8890_neutraal
 -------------------------------
 Charge =  0 Multiplicity = 1

 SCF Done:  E(RB3LYP) =  -821.337385528     A.U. after    1 cycles

  Exact polarizability: 178.216  -2.953 164.342 -11.051  -1.992 133.937
 Approx polarizability: 233.597  -3.079 244.950 -23.197  -3.264 200.051

                      1                      2                      3
                      A                      A                      A
 Frequencies --     33.5246                41.8728                59.7164
 Red. masses --      3.8349                 2.9693                 3.2528
 Frc consts  --      0.0025                 0.0031                 0.0068
 IR Inten    --      0.5822                 0.9782                 0.2918

                      4                      5                      6
                      A                      A                      A
 Frequencies --     65.5332                82.9846                94.2092
 Red. masses --      3.3679                 3.5435                 2.7228
 Frc consts  --      0.0085                 0.0144                 0.0142
 IR Inten    --      1.8203                 0.6333                 1.4776

                      7                      8                      9
                      A                      A                      A
 Frequencies --    112.3781               128.0161               137.1137
 Red. masses --      3.5270                 2.1564                 2.8666
 Frc consts  --      0.0262                 0.0208                 0.0318
 IR Inten    --      0.8396                 0.1689                 1.2281

                     10                     11                     12
                      A                      A                      A
 Frequencies --    142.9051               159.7730               177.6787
 Red. masses --      3.2183                 2.4153                 1.5440
 Frc consts  --      0.0387                 0.0363                 0.0287
 IR Inten    --      0.7776                10.9727                26.2192

                     13                     14                     15
                      A                      A                      A
 Frequencies --    196.4344               202.0434               226.0935
 Red. masses --      1.9381                 1.5215                 1.0538
 Frc consts  --      0.0441                 0.0366                 0.0317
 IR Inten    --      3.6533                 0.1838                 0.2354

                     16                     17                     18
                      A                      A                      A
 Frequencies --    227.6760               242.6484               262.3209
 Red. masses --      2.1623                 2.0169                 1.6420
 Frc consts  --      0.0660                 0.0700                 0.0666
 IR Inten    --      1.9734                 4.6942                 1.8413

                     19                     20                     21
                      A                      A                      A
 Frequencies --    267.3708               283.5533               306.9767
 Red. masses --      2.1679                 2.0783                 2.3311
 Frc consts  --      0.0913                 0.0985                 0.1294
 IR Inten    --      0.0719                 1.6354                 0.6898

                     22                     23                     24
                      A                      A                      A
 Frequencies --    328.4648               356.6601               381.1259
 Red. masses --      2.6119                 3.4750                 3.4141
 Frc consts  --      0.1660                 0.2604                 0.2922
 IR Inten    --      0.6607                 1.0385                 0.6249

                     25                     26                     27
                      A                      A                      A
 Frequencies --    392.8527               447.3098               476.0398
 Red. masses --      2.2029                 3.6417                 3.0810
 Frc consts  --      0.2003                 0.4293                 0.4114
 IR Inten    --      2.2605                 3.3581                 5.3753

                     28                     29                     30
                      A                      A                      A
 Frequencies --    497.2132               516.2189               549.6684
 Red. masses --      2.8602                 2.7555                 3.1529
 Frc consts  --      0.4166                 0.4326                 0.5613
 IR Inten    --      0.2858                 0.8068                17.9923

                     31                     32                     33
                      A                      A                      A
 Frequencies --    618.7744               689.3766               694.1113
 Red. masses --      3.9769                 3.0553                 5.4618
 Frc consts  --      0.8971                 0.8555                 1.5504
 IR Inten    --     10.0631                 1.6011                 1.3923

                     34                     35                     36
                      A                      A                      A
 Frequencies --    701.9412               752.5771               805.9770
 Red. masses --      3.9902                 1.5585                 2.3166
 Frc consts  --      1.1584                 0.5201                 0.8866
 IR Inten    --     12.2482                 1.9468                 3.3166

                     37                     38                     39
                      A                      A                      A
 Frequencies --    831.1681               876.7669               885.6963
 Red. masses --      2.9056                 2.1734                 1.3671
 Frc consts  --      1.1827                 0.9844                 0.6319
 IR Inten    --      5.5453                21.3892                 4.9064

                     40                     41                     42
                      A                      A                      A
 Frequencies --    888.6518               901.0276               924.2512
 Red. masses --      2.7714                 2.4154                 1.9519
 Frc consts  --      1.2895                 1.1554                 0.9824
 IR Inten    --      5.3834                11.5620                36.4471

                     43                     44                     45
                      A                      A                      A
 Frequencies --    927.8732               957.6594               969.0932
 Red. masses --      1.7924                 1.3383                 1.3278
 Frc consts  --      0.9092                 0.7232                 0.7347
 IR Inten    --      9.2139                 1.2595                 1.3695

                     46                     47                     48
                      A                      A                      A
 Frequencies --    979.7043              1001.9534              1006.1375
 Red. masses --      2.8928                 8.7129                 1.6277
 Frc consts  --      1.6359                 5.1536                 0.9708
 IR Inten    --     17.0937                 9.6092                44.5379

                     49                     50                     51
                      A                      A                      A
 Frequencies --   1045.3364              1067.1251              1078.2623
 Red. masses --      1.9354                 2.3430                 2.0465
 Frc consts  --      1.2461                 1.5720                 1.4019
 IR Inten    --     20.8225                 0.7435                19.4228

                     52                     53                     54
                      A                      A                      A
 Frequencies --   1090.4471              1098.7205              1140.0576
 Red. masses --      2.3850                 2.0237                 2.7505
 Frc consts  --      1.6709                 1.4394                 2.1062
 IR Inten    --      2.0050                 6.7255                97.6298

                     55                     56                     57
                      A                      A                      A
 Frequencies --   1144.3727              1158.6687              1165.3554
 Red. masses --      2.7722                 2.0716                 2.2780
 Frc consts  --      2.1390                 1.6386                 1.8227
 IR Inten    --     62.1803                 1.6035                 3.2259

                     58                     59                     60
                      A                      A                      A
 Frequencies --   1179.0207              1191.0219              1202.8307
 Red. masses --      2.1743                 1.2827                 1.4413
 Frc consts  --      1.7808                 1.0721                 1.2286
 IR Inten    --     57.0639                 2.2451                40.9726

                     61                     62                     63
                      A                      A                      A
 Frequencies --   1217.3211              1223.3803              1227.6334
 Red. masses --      1.4163                 1.6323                 2.1390
 Frc consts  --      1.2366                 1.4394                 1.8994
 IR Inten    --      4.1923                13.4735                14.3061

                     64                     65                     66
                      A                      A                      A
 Frequencies --   1250.5882              1263.9345              1295.4966
 Red. masses --      1.4663                 1.2786                 2.5064
 Frc consts  --      1.3512                 1.2035                 2.4784
 IR Inten    --     11.5900                 1.5928                11.9319

                     67                     68                     69
                      A                      A                      A
 Frequencies --   1309.6285              1315.8783              1323.8522
 Red. masses --      1.5799                 1.4894                 2.7659
 Frc consts  --      1.5966                 1.5194                 2.8560
 IR Inten    --      4.9164                12.7648                31.0518

                     70                     71                     72
                      A                      A                      A
 Frequencies --   1329.9091              1373.6801              1383.5368
 Red. masses --      1.7875                 1.2353                 1.3509
 Frc consts  --      1.8627                 1.3734                 1.5235
 IR Inten    --     13.8797                 2.6408                11.4133

                     73                     74                     75
                      A                      A                      A
 Frequencies --   1400.4538              1402.0482              1409.1263
 Red. masses --      1.3015                 1.3333                 1.3067
 Frc consts  --      1.5039                 1.5442                 1.5287
 IR Inten    --      1.4567                 3.1047                 9.4008

                     76                     77                     78
                      A                      A                      A
 Frequencies --   1422.0615              1426.2443              1432.4764
 Red. masses --      2.0684                 1.2950                 1.3094
 Frc consts  --      2.4645                 1.5521                 1.5831
 IR Inten    --      7.8402                10.2477                11.6592

                     79                     80                     81
                      A                      A                      A
 Frequencies --   1439.2389              1442.0902              1445.0920
 Red. masses --      1.4684                 1.3155                 1.2765
 Frc consts  --      1.7921                 1.6119                 1.5706
 IR Inten    --      6.2715                 6.0463                 3.7110

                     82                     83                     84
                      A                      A                      A
 Frequencies --   1464.3555              1499.3052              1501.6811
 Red. masses --      1.7624                 1.1597                 1.2023
 Frc consts  --      2.2267                 1.5359                 1.5974
 IR Inten    --     19.9577                 6.8401                18.1503

                     85                     86                     87
                      A                      A                      A
 Frequencies --   1508.3976              1518.8484              1521.3490
 Red. masses --      1.0546                 1.1241                 1.3504
 Frc consts  --      1.4137                 1.5278                 1.8414
 IR Inten    --      0.0977                 9.9950                32.2729

                     88                     89                     90
                      A                      A                      A
 Frequencies --   1522.8434              1523.5879              1525.7038
 Red. masses --      1.3532                 1.1936                 1.1173
 Frc consts  --      1.8489                 1.6325                 1.5324
 IR Inten    --     15.1578                 8.2350                 3.8207

                     91                     92                     93
                      A                      A                      A
 Frequencies --   1529.3735              1534.0647              1540.5119
 Red. masses --      1.0585                 1.1416                 1.0671
 Frc consts  --      1.4588                 1.5829                 1.4920
 IR Inten    --      2.1454                19.4639                 1.8448

                     94                     95                     96
                      A                      A                      A
 Frequencies --   1541.1968              1545.8048              1549.3255
 Red. masses --      1.0730                 1.0854                 1.1094
 Frc consts  --      1.5017                 1.5281                 1.5691
 IR Inten    --     13.0031                 4.5086                 3.8119

                     97                     98                     99
                      A                      A                      A
 Frequencies --   1566.2562              1694.0337              2999.6696
 Red. masses --      4.5247                 1.0604                 1.0610
 Frc consts  --      6.5398                 1.7930                 5.6250
 IR Inten    --     14.4413                34.5856                19.4665

                    100                    101                    102
                      A                      A                      A
 Frequencies --   3003.5415              3032.6490              3040.5547
 Red. masses --      1.0632                 1.0808                 1.0691
 Frc consts  --      5.6513                 5.8566                 5.8233
 IR Inten    --     76.5728                45.8742                 9.6566

                    103                    104                    105
                      A                      A                      A
 Frequencies --   3043.6845              3046.0044              3057.1771
 Red. masses --      1.0518                 1.0510                 1.0350
 Frc consts  --      5.7412                 5.7451                 5.6996
 IR Inten    --     21.4341                61.7838                19.3722

                    106                    107                    108
                      A                      A                      A
 Frequencies --   3061.6408              3067.0152              3072.3909
 Red. masses --      1.0356                 1.0967                 1.0961
 Frc consts  --      5.7193                 6.0784                 6.0960
 IR Inten    --     20.4176                22.7983                52.0843

                    109                    110                    111
                      A                      A                      A
 Frequencies --   3083.5999              3096.5757              3109.2572
 Red. masses --      1.0616                 1.0876                 1.1016
 Frc consts  --      5.9473                 6.1446                 6.2744
 IR Inten    --     13.5716                10.5722                47.5245

                    112                    113                    114
                      A                      A                      A
 Frequencies --   3114.3975              3115.8773              3127.4897
 Red. masses --      1.1019                 1.0972                 1.1029
 Frc consts  --      6.2969                 6.2762                 6.3558
 IR Inten    --     54.4473                 8.7330                13.0481

                    115                    116                    117
                      A                      A                      A
 Frequencies --   3128.0242              3130.8759              3135.9215
 Red. masses --      1.1024                 1.1030                 1.0989
 Frc consts  --      6.3555                 6.3703                 6.3671
 IR Inten    --      8.9537                43.2438                25.5763

                    118                    119                    120
                      A                      A                      A
 Frequencies --   3140.7428              3149.0692              3266.5621
 Red. masses --      1.1025                 1.1015                 1.0967
 Frc consts  --      6.4077                 6.4359                 6.8945
 IR Inten    --      5.3220                15.1662                14.3452

                    121                    122                    123
                      A                      A                      A
 Frequencies --   3405.1645              3491.8360              3509.5024
 Red. masses --      1.0515                 1.0891                 1.0753
 Frc consts  --      7.1837                 7.8236                 7.8029
 IR Inten    --      3.6453                 1.7652                 4.7263

 - Thermochemistry -
 -------------------
 Temperature   298.150 Kelvin.  Pressure   1.00000 Atm.
 Atom     1 has atomic number  6 and mass  12.00000

 Molecular mass:   255.20591 amu.
 Principal axes and moments of inertia in atomic units:
                           1         2         3
     Eigenvalues --  2927.606775923.393986721.35787
           X            0.99974  -0.02161  -0.00665
           Y            0.02134   0.99902  -0.03873
           Z            0.00748   0.03858   0.99923
 This molecule is an asymmetric top.
 Rotational symmetry number  1.
 Warning -- assumption of classical behavior for rotation
           may cause significant error
 Rotational temperatures (Kelvin)      0.02959     0.01462     0.01289
 Rotational constants (GHZ):           0.61646     0.30468     0.26851
 Zero-point vibrational energy    1012159.6 (Joules/Mol)
                                  241.91195 (Kcal/Mol)
 Warning -- explicit consideration of  31 degrees of freedom as
           vibrations may cause significant error
 Vibrational temperatures:     48.23    60.25    85.92    94.29   119.40
          (Kelvin)            135.55   161.69   184.19   197.28   205.61
                              229.88   255.64   282.63   290.70   325.30
                              327.57   349.12   377.42   384.69   407.97
                              441.67   472.59   513.15   548.36   565.23
                              643.58   684.92   715.38   742.72   790.85
                              890.28   991.86   998.67  1009.94  1082.79
                             1159.62  1195.87  1261.47  1274.32  1278.57
                             1296.38  1329.79  1335.00  1377.86  1394.31
                             1409.58  1441.59  1447.61  1504.01  1535.36
                             1551.38  1568.91  1580.81  1640.29  1646.50
                             1667.07  1676.69  1696.35  1713.61  1730.61
                             1751.45  1760.17  1766.29  1799.32  1818.52
                             1863.93  1884.26  1893.26  1904.73  1913.44
                             1976.42  1990.60  2014.94  2017.23  2027.42
                             2046.03  2052.05  2061.01  2070.74  2074.85
                             2079.17  2106.88  2157.17  2160.58  2170.25
                             2185.28  2188.88  2191.03  2192.10  2195.15
                             2200.43  2207.18  2216.45  2217.44  2224.07
                             2229.13  2253.49  2437.34  4315.86  4321.43
                             4363.31  4374.68  4379.18  4382.52  4398.60
                             4405.02  4412.75  4420.49  4436.61  4455.28
                             4473.53  4480.92  4483.05  4499.76  4500.53
                             4504.63  4511.89  4518.83  4530.81  4699.85
                             4899.27  5023.97  5049.39

 Zero-point correction=                           0.385511 (Hartree/Particle)
 Thermal correction to Energy=                    0.405902
 Thermal correction to Enthalpy=                  0.406847
 Thermal correction to Gibbs Free Energy=         0.336650
 Sum of electronic and zero-point Energies=           -820.951874
 Sum of electronic and thermal Energies=              -820.931483
 Sum of electronic and thermal Enthalpies=            -820.930539
 Sum of electronic and thermal Free Energies=         -821.000736

                     E (Thermal)             CV                S
                      KCal/Mol        Cal/Mol-Kelvin    Cal/Mol-Kelvin
 Total                  254.708             75.012            147.742
 Electronic               0.000              0.000              0.000
 Translational            0.889              2.981             42.511
 Rotational               0.889              2.981             33.122
 Vibrational            252.930             69.051             72.110
 Vibration     1          0.594              1.983              5.609
 Vibration     2          0.594              1.980              5.168
 Vibration     3          0.597              1.974              4.467
 Vibration     4          0.597              1.971              4.283
 Vibration     5          0.600              1.961              3.819
 Vibration     6          0.603              1.953              3.571
 Vibration     7          0.607              1.939              3.227
 Vibration     8          0.611              1.925              2.976
 Vibration     9          0.614              1.916              2.844
 Vibration    10          0.616              1.910              2.765
 Vibration    11          0.622              1.892              2.552
 Vibration    12          0.628              1.870              2.353
 Vibration    13          0.636              1.845              2.166
 Vibration    14          0.639              1.837              2.114
 Vibration    15          0.650              1.801              1.910
 Vibration    16          0.651              1.799              1.897
 Vibration    17          0.659              1.775              1.783
 Vibration    18          0.670              1.742              1.646
 Vibration    19          0.672              1.733              1.613
 Vibration    20          0.682              1.704              1.512
 Vibration    21          0.697              1.660              1.379
 Vibration    22          0.712              1.619              1.268
 Vibration    23          0.732              1.562              1.137
 Vibration    24          0.751              1.510              1.035
 Vibration    25          0.760              1.485              0.989
 Vibration    26          0.806              1.367              0.804
 Vibration    27          0.833              1.303              0.721
 Vibration    28          0.853              1.256              0.665
 Vibration    29          0.871              1.214              0.619
 Vibration    30          0.905              1.140              0.545
 Vibration    31          0.979              0.992              0.418

                           ! Non-Optimized Parameters !
 Normal termination of Gaussian 16 at Fri Dec 11 21:47:17 2020.

 ----------------------------------------------------------------------
 # B3LYP/6-311++G(d,p) empiricaldispersion=gd3bj scf=xqc pop=npa geom=c
 heck
 ----------------------------------------------------------------------

 ---------------------------------------
 CID_105271834_JID_8890_Energie_neutraal
 ---------------------------------------
 Structure from the checkpoint file:  "JID_8890.chk"
 Charge =  0 Multiplicity = 1

 SCF Done:  E(RB3LYP) =  -821.574011595     A.U. after   14 cycles
 Normal termination of Gaussian 16 at Fri Dec 11 21:56:19 2020.

 ----------------------------------------------------------------------
 # B3LYP/6-311++G(d,p) empiricaldispersion=gd3bj scf=xqc pop=npa geom=c
 heck
 ----------------------------------------------------------------------

 -------------------------------------
 CID_105271834_JID_8890_Energie_kation
 -------------------------------------
 Structure from the checkpoint file:  "JID_8890.chk"
 Charge =  1 Multiplicity = 2

 SCF Done:  E(UB3LYP) =  -821.288275783     A.U. after   26 cycles
 Normal termination of Gaussian 16 at Fri Dec 11 22:19:17 2020.
 Gaussian 16:  ES64L-G16RevA.03 25-Dec-2016

 ----------------------------------------------------------------------
 # B3LYP/6-311++G(d,p) empiricaldispersion=gd3bj scf=xqc pop=npa geom=c
 heck
 ----------------------------------------------------------------------

 ------------------------------------
 CID_105271834_JID_8890_Energie_anion
 ------------------------------------
 Structure from the checkpoint file:  "JID_8890.chk"
 Charge = -1 Multiplicity = 2

                         Standard orientation:
 ---------------------------------------------------------------------
 Center     Atomic      Atomic             Coordinates (Angstroms)
 Number     Number       Type             X           Y           Z
 ---------------------------------------------------------------------
      1          6           0        4.696556    0.405533   -0.399462
      2          6           0        3.641617   -0.517669   -1.019179
      3          6           0        2.554356   -0.985438   -0.039508
      4          6           0        1.746951    0.144919    0.611430
      5          6           0        1.055947    1.089310   -0.383149
      6          6           0        0.154185    0.384193   -1.443197
      7          6           0       -0.741800   -0.717440   -0.974744
      8          7           0       -0.463049   -2.015308   -1.099148
      9          6           0       -1.537973   -2.620614   -0.529606
     10          7           0       -2.470234   -1.798295   -0.073467
     11          7           0       -1.948325   -0.574970   -0.373977
     12          6           0       -2.689524    0.634962   -0.008875
     13          6           0       -4.045817    0.651796   -0.717096
     14          6           0       -2.828154    0.710644    1.514915
     15          7           0        0.420433    2.132898    0.428136
     16          7           0       -0.370342    3.038389   -0.422124
     17          8           0        0.700855   -0.351766    1.453499
     18          6           0        1.131843   -0.983203    2.639980
     19          1           0        4.266727    1.359721   -0.073937
     20          1           0        5.493216    0.631844   -1.116765
     21          1           0        5.160129   -0.062570    0.477731
     22          1           0        3.181883   -0.019668   -1.883199
     23          1           0        4.137360   -1.409365   -1.422592
     24          1           0        1.859611   -1.667001   -0.539763
     25          1           0        3.040900   -1.558518    0.760549
     26          1           0        2.409144    0.770300    1.230024
     27          1           0        1.848002    1.590147   -0.956986
     28          1           0       -0.430202    1.165318   -1.939002
     29          1           0        0.805467   -0.064539   -2.197878
     30          1           0       -1.643709   -3.694821   -0.456789
     31          1           0       -2.088830    1.474718   -0.369785
     32          1           0       -4.643697   -0.212707   -0.415446
     33          1           0       -4.590806    1.566339   -0.459646
     34          1           0       -3.916244    0.620697   -1.803737
     35          1           0       -1.850355    0.620837    1.998938
     36          1           0       -3.287094    1.661300    1.807444
     37          1           0       -3.455686   -0.108836    1.877146
     38          1           0       -0.262515    1.658050    1.016931
     39          1           0       -0.664138    3.775214    0.223159
     40          1           0        0.330044    3.506781   -1.004040
     41          1           0        1.608858   -1.953064    2.446721
     42          1           0        1.837043   -0.347813    3.199018
     43          1           0        0.239550   -1.149196    3.248917
 ---------------------------------------------------------------------

 SCF Done:  E(UB3LYP) =  -821.563435667     A.U. after   31 cycles

 The electronic state is 2-A.
 Alpha  occ. eigenvalues --  -19.03563 -14.29423 -14.23720 -14.22419 -14.22141
 Alpha  occ. eigenvalues --  -14.20191 -10.14413 -10.12786 -10.12576 -10.12541
 Alpha  occ. eigenvalues --  -10.12079 -10.11070 -10.08534 -10.07620 -10.07491
 Alpha  occ. eigenvalues --  -10.07270 -10.06733 -10.06545  -0.97829  -0.94925
 Alpha  occ. eigenvalues --   -0.86046  -0.80862  -0.75644  -0.72628  -0.69478
 Alpha  occ. eigenvalues --   -0.68566  -0.63887  -0.63200  -0.60459  -0.59454
 Alpha  occ. eigenvalues --   -0.55815  -0.54612  -0.52569  -0.51144  -0.47513
 Alpha  occ. eigenvalues --   -0.45621  -0.42649  -0.42185  -0.41184  -0.38686
 Alpha  occ. eigenvalues --   -0.37807  -0.36627  -0.36541  -0.35569  -0.35131
 Alpha  occ. eigenvalues --   -0.34473  -0.33886  -0.33408  -0.32343  -0.31824
 Alpha  occ. eigenvalues --   -0.31348  -0.30177  -0.30058  -0.29812  -0.28950
 Alpha  occ. eigenvalues --   -0.27868  -0.26777  -0.26434  -0.26392  -0.25380
 Alpha  occ. eigenvalues --   -0.24364  -0.23959  -0.23101  -0.22655  -0.22159
 Alpha  occ. eigenvalues --   -0.18881  -0.18176  -0.17256  -0.15921  -0.10860
 Alpha  occ. eigenvalues --    0.04132
 Alpha virt. eigenvalues --    0.06014   0.06468   0.07424   0.07940   0.08460
 Alpha virt. eigenvalues --    0.08606   0.08976   0.09758   0.09963   0.10258
 Alpha virt. eigenvalues --    0.10432   0.10734   0.11709   0.11744   0.12243

  Beta  occ. eigenvalues --  -19.03558 -14.29422 -14.23717 -14.22405 -14.22072
  Beta  occ. eigenvalues --  -14.20190 -10.14411 -10.12781 -10.12564 -10.12536
  Beta  occ. eigenvalues --  -10.12079 -10.11055 -10.08523 -10.07607 -10.07476
  Beta  occ. eigenvalues --  -10.07252 -10.06728 -10.06514  -0.97825  -0.94917
  Beta  occ. eigenvalues --   -0.85983  -0.80856  -0.75630  -0.72578  -0.69439
  Beta  occ. eigenvalues --   -0.68533  -0.63821  -0.63177  -0.60428  -0.59420
  Beta  occ. eigenvalues --   -0.55772  -0.54592  -0.52551  -0.51101  -0.47479
  Beta  occ. eigenvalues --   -0.45600  -0.42615  -0.42165  -0.41157  -0.38646
  Beta  occ. eigenvalues --   -0.37789  -0.36591  -0.36518  -0.35550  -0.35111
  Beta  occ. eigenvalues --   -0.34415  -0.33861  -0.33379  -0.32296  -0.31807
  Beta  occ. eigenvalues --   -0.31329  -0.30152  -0.30035  -0.29783  -0.28922
  Beta  occ. eigenvalues --   -0.27830  -0.26755  -0.26407  -0.26368  -0.25353
  Beta  occ. eigenvalues --   -0.24340  -0.23930  -0.23072  -0.22637  -0.22138
  Beta  occ. eigenvalues --   -0.18872  -0.18171  -0.17247  -0.15908  -0.10810
  Beta virt. eigenvalues --    0.06155   0.06798   0.07035   0.07804   0.08387
  Beta virt. eigenvalues --    0.08663   0.08960   0.09132   0.09794   0.10178
  Beta virt. eigenvalues --    0.10567   0.10740   0.10898   0.11920   0.11982

 Mulliken charges and spin densities:
               1          2
     1  C    0.636282  -1.248262
     2  C   -0.597206   0.332832
     3  C   -0.133805  -0.215794
     4  C    0.043733   0.006460
     5  C    0.170502  -0.862910
     6  C   -0.042532  -0.330542
     7  C   -0.581407   0.133110
     8  N    0.028597   0.006891
     9  C    0.068222   0.042392
    10  N   -0.166225  -0.028293
    11  N    0.484157   0.013702
    12  C   -1.133760   0.787864
    13  C   -0.214522  -0.375827
    14  C    0.241750  -0.801195
    15  N   -0.200081   0.266302
    16  N    0.150453  -0.561481
    17  O   -0.126000   0.001271
    18  C    0.039171  -0.333310
    19  H   -0.307617   0.461544
    20  H   -0.357506   0.498415
    21  H   -0.046348   0.178664
    22  H    0.059154   0.053213
    23  H   -0.078074   0.237729
    24  H    0.254605  -0.017166
    25  H    0.027082   0.088810
    26  H    0.385559  -0.140741
    27  H   -0.134762   0.397857
    28  H    0.069777   0.129755
    29  H    0.082085   0.131806
    30  H    0.122278   0.023309
    31  H    0.740415  -0.434089
    32  H    0.120189   0.045757
    33  H   -0.115535   0.260863
    34  H    0.010097   0.143184
    35  H    0.087214   0.061852
    36  H   -0.213792   0.367776
    37  H    0.132426   0.037827
    38  H    0.103497   0.111923
    39  H   -0.290658   0.534022
    40  H   -0.387554   0.645155
    41  H    0.067942   0.087055
    42  H   -0.072271   0.210083
    43  H    0.074466   0.052186
 Sum of Mulliken charges =  -1.00000   1.00000

 Dipole moment (field-independent basis, Debye):
    X=             -2.6444    Y=             -6.8936    Z=              1.6030  Tot=              7.5555
 Quadrupole moment (field-independent basis, Debye-Ang):
   XX=           -187.2337   YY=           -175.5615   ZZ=           -145.5433
   XY=             -2.5633   XZ=              6.1601   YZ=              0.2621

 Summary of Natural Population Analysis:

                                       Natural Population
                Natural  -----------------------------------------------
    Atom  No    Charge         Core      Valence    Rydberg      Total
 -----------------------------------------------------------------------
      C    1   -0.28789      0.99967     2.28323    0.00500     3.28789
      C    2   -0.18979      0.99964     2.18239    0.00776     3.18979
      C    3   -0.21208      0.99960     2.20387    0.00862     3.21208
      C    4    0.06974      0.99950     1.91667    0.01408     2.93026
      C    5   -0.01662      0.99956     1.99970    0.01737     3.01662
      C    6   -0.22962      0.99956     2.22044    0.00962     3.22962
      C    7    0.21195      0.99959     1.77036    0.01810     2.78805
      N    8   -0.27555      0.99970     2.76749    0.00836     3.77555
      C    9    0.08719      0.99970     1.89394    0.01917     2.91281
      N   10   -0.16765      0.99973     2.65827    0.00966     3.66765
      N   11   -0.11741      0.99959     2.60381    0.01401     3.61741
      C   12   -0.02364      0.99959     2.01215    0.01191     3.02364
      C   13   -0.28594      0.99964     2.28081    0.00548     3.28594
      C   14   -0.28927      0.99964     2.28377    0.00585     3.28927
      N   15   -0.25900      0.99973     2.74467    0.01460     3.75900
      N   16   -0.33907      0.99978     2.82757    0.01172     3.83907
      O   17   -0.30894      0.99987     3.29849    0.01057     4.30894
      C   18   -0.09613      0.99961     2.08735    0.00917     3.09613
      H   19    0.09918      0.00000     0.39968    0.00114     0.40082
      H   20    0.09984      0.00000     0.39917    0.00099     0.40016
      H   21    0.09469      0.00000     0.40423    0.00109     0.40531
      H   22    0.09402      0.00000     0.40466    0.00131     0.40598
      H   23    0.09577      0.00000     0.40332    0.00090     0.40423
      H   24    0.11745      0.00000     0.38069    0.00186     0.38255
      H   25    0.09459      0.00000     0.40411    0.00129     0.40541
      H   26    0.08953      0.00000     0.40796    0.00251     0.41047
      H   27    0.10129      0.00000     0.39684    0.00186     0.39871
      H   28    0.12198      0.00000     0.37628    0.00173     0.37802
      H   29    0.11505      0.00000     0.38349    0.00146     0.38495
      H   30    0.08871      0.00000     0.41051    0.00078     0.41129
      H   31    0.12047      0.00000     0.37576    0.00376     0.37953
      H   32    0.10415      0.00000     0.39486    0.00099     0.39585
      H   33    0.10213      0.00000     0.39714    0.00073     0.39787
      H   34    0.10142      0.00000     0.39787    0.00071     0.39858
      H   35    0.10389      0.00000     0.39473    0.00138     0.39611
      H   36    0.10229      0.00000     0.39677    0.00095     0.39771
      H   37    0.10397      0.00000     0.39501    0.00102     0.39603
      H   38    0.17230      0.00000     0.32228    0.00542     0.32770
      H   39    0.18002      0.00000     0.31475    0.00523     0.31998
      H   40    0.17754      0.00000     0.31629    0.00616     0.32246
      H   41    0.07980      0.00000     0.41921    0.00099     0.42020
      H   42    0.07966      0.00000     0.41934    0.00100     0.42034
      H   43    0.08997      0.00000     0.40930    0.00073     0.41003
 =======================================================================
   * Total *   -0.00000     17.99368    51.75926    0.24706    70.00000

 Normal termination of Gaussian 16 at Fri Dec 11 22:46:09 2020.
