 Gaussian 16, Revision A.03,

 -----------------------------------------------------------
 # opt freq B3LYP/6-31G(d) empiricaldispersion=gd3bj scf=xqc
 -----------------------------------------------------------

 -------------------------------
 CID_129672500_JID_2100_neutraal
 -------------------------------
 Symbolic Z-matrix:
 Charge =  0 Multiplicity = 1

 SCF Done:  E(RB3LYP) =  -558.450373265     A.U. after   14 cycles
 SCF Done:  E(RB3LYP) =  -558.453907592     A.U. after   11 cycles
 SCF Done:  E(RB3LYP) =  -558.454555445     A.U. after   11 cycles
 SCF Done:  E(RB3LYP) =  -558.454832895     A.U. after   11 cycles
 SCF Done:  E(RB3LYP) =  -558.455108446     A.U. after   11 cycles
 SCF Done:  E(RB3LYP) =  -558.455203605     A.U. after   11 cycles
 SCF Done:  E(RB3LYP) =  -558.455234580     A.U. after    9 cycles
 SCF Done:  E(RB3LYP) =  -558.455254329     A.U. after    8 cycles
 SCF Done:  E(RB3LYP) =  -558.455265510     A.U. after    8 cycles
 SCF Done:  E(RB3LYP) =  -558.455270280     A.U. after    8 cycles
 SCF Done:  E(RB3LYP) =  -558.455274514     A.U. after    9 cycles
 SCF Done:  E(RB3LYP) =  -558.455277150     A.U. after    8 cycles
 SCF Done:  E(RB3LYP) =  -558.455277382     A.U. after    7 cycles
 SCF Done:  E(RB3LYP) =  -558.455277521     A.U. after    8 cycles
 SCF Done:  E(RB3LYP) =  -558.455277526     A.U. after    7 cycles
 Optimization completed.
    -- Stationary point found.
 Normal termination of Gaussian 16 at Wed Dec  9 16:50:57 2020.

 --------------------------------------------------------------------
 #N Geom=AllCheck Guess=TCheck SCRF=Check GenChk RB3LYP/6-31G(d) Freq
 --------------------------------------------------------------------

 Structure from the checkpoint file:  "JID_2100.chk"
 -------------------------------
 CID_129672500_JID_2100_neutraal
 -------------------------------
 Charge =  0 Multiplicity = 1

 SCF Done:  E(RB3LYP) =  -558.455277526     A.U. after    1 cycles

  Exact polarizability: 116.546   3.750  95.765  -0.437  -0.565  95.883
 Approx polarizability: 160.398   8.386 129.637   7.624  -0.978 146.246

                      1                      2                      3
                      A                      A                      A
 Frequencies --     50.5693                66.2450                89.7441
 Red. masses --      3.8816                 4.6188                 1.9617
 Frc consts  --      0.0058                 0.0119                 0.0093
 IR Inten    --      0.1317                 0.4770                 0.2029

                      4                      5                      6
                      A                      A                      A
 Frequencies --    106.9823               121.0658               172.2040
 Red. masses --      1.7530                 3.0889                 3.0166
 Frc consts  --      0.0118                 0.0267                 0.0527
 IR Inten    --      0.3847                 4.7074                 1.5155

                      7                      8                      9
                      A                      A                      A
 Frequencies --    199.8097               213.0201               245.1493
 Red. masses --      2.3769                 1.5984                 1.6483
 Frc consts  --      0.0559                 0.0427                 0.0584
 IR Inten    --      2.1849                 2.2413                 2.2473

                     10                     11                     12
                      A                      A                      A
 Frequencies --    278.2347               293.0035               310.4954
 Red. masses --      1.6551                 1.8205                 1.3649
 Frc consts  --      0.0755                 0.0921                 0.0775
 IR Inten    --      7.5209                 2.7738                85.4083

                     13                     14                     15
                      A                      A                      A
 Frequencies --    322.6294               373.0585               401.8057
 Red. masses --      3.0024                 3.3753                 2.6456
 Frc consts  --      0.1841                 0.2768                 0.2517
 IR Inten    --     45.9918                 1.4165                 0.4553

                     16                     17                     18
                      A                      A                      A
 Frequencies --    421.2875               459.0973               518.0311
 Red. masses --      3.3701                 2.1991                 2.7944
 Frc consts  --      0.3524                 0.2731                 0.4418
 IR Inten    --      4.0926                17.4679                 7.9245

                     19                     20                     21
                      A                      A                      A
 Frequencies --    542.2510               610.5250               705.5786
 Red. masses --      1.3044                 4.1515                 4.2241
 Frc consts  --      0.2260                 0.9117                 1.2390
 IR Inten    --     84.7918                 5.1233                 9.2806

                     22                     23                     24
                      A                      A                      A
 Frequencies --    743.3255               760.3268               793.1440
 Red. masses --      3.8880                 3.0309                 1.6136
 Frc consts  --      1.2657                 1.0324                 0.5981
 IR Inten    --     11.3841                 5.2765                 2.4704

                     25                     26                     27
                      A                      A                      A
 Frequencies --    801.9730               854.1606               877.0215
 Red. masses --      1.3702                 2.2765                 1.7973
 Frc consts  --      0.5192                 0.9786                 0.8145
 IR Inten    --      2.6522                 5.7304                 1.7301

                     28                     29                     30
                      A                      A                      A
 Frequencies --    946.2693               968.8297               996.4422
 Red. masses --      1.8615                 1.7918                 1.9693
 Frc consts  --      0.9821                 0.9909                 1.1521
 IR Inten    --      2.8196                 3.2850                 3.5542

                     31                     32                     33
                      A                      A                      A
 Frequencies --   1037.0158              1053.7320              1071.6780
 Red. masses --      1.9269                 2.0635                 1.8390
 Frc consts  --      1.2209                 1.3499                 1.2444
 IR Inten    --     31.4443                12.1095                 2.2464

                     34                     35                     36
                      A                      A                      A
 Frequencies --   1074.9838              1089.8934              1109.1928
 Red. masses --      2.0878                 4.0204                 1.8389
 Frc consts  --      1.4215                 2.8137                 1.3330
 IR Inten    --      4.9370                96.3234                 1.3252

                     37                     38                     39
                      A                      A                      A
 Frequencies --   1116.0860              1155.4993              1199.3912
 Red. masses --      2.1533                 1.7595                 1.9906
 Frc consts  --      1.5803                 1.3841                 1.6871
 IR Inten    --      4.9545                15.1598                 4.3635

                     40                     41                     42
                      A                      A                      A
 Frequencies --   1207.4909              1223.4652              1268.3118
 Red. masses --      1.9383                 1.9016                 1.3775
 Frc consts  --      1.6651                 1.6771                 1.3056
 IR Inten    --      4.8524                25.1624                 7.4481

                     43                     44                     45
                      A                      A                      A
 Frequencies --   1285.1648              1314.2860              1327.2742
 Red. masses --      2.0795                 1.3702                 1.2608
 Frc consts  --      2.0236                 1.3945                 1.3087
 IR Inten    --    102.9139                 7.1227                 5.5224

                     46                     47                     48
                      A                      A                      A
 Frequencies --   1347.8806              1368.7538              1385.4611
 Red. masses --      1.3055                 1.3699                 1.5166
 Frc consts  --      1.3974                 1.5122                 1.7152
 IR Inten    --      3.8752                 8.7968                 9.5620

                     49                     50                     51
                      A                      A                      A
 Frequencies --   1387.6619              1402.4663              1408.9798
 Red. masses --      1.3950                 1.3138                 1.4277
 Frc consts  --      1.5827                 1.5225                 1.6699
 IR Inten    --      7.7275                 9.4421                17.6285

                     52                     53                     54
                      A                      A                      A
 Frequencies --   1439.0463              1444.3994              1446.1595
 Red. masses --      1.4121                 1.2447                 1.2412
 Frc consts  --      1.7230                 1.5300                 1.5294
 IR Inten    --     12.8515                 5.1338                 8.4293

                     55                     56                     57
                      A                      A                      A
 Frequencies --   1464.8309              1509.6112              1515.0624
 Red. masses --      2.0377                 1.0787                 1.0831
 Frc consts  --      2.5762                 1.4484                 1.4648
 IR Inten    --     69.6642                 4.8635                 0.2197

                     58                     59                     60
                      A                      A                      A
 Frequencies --   1520.4289              1530.4000              1530.5852
 Red. masses --      1.0780                 1.0847                 1.0447
 Frc consts  --      1.4683                 1.4969                 1.4420
 IR Inten    --      0.2776                 1.6302                 6.4355

                     61                     62                     63
                      A                      A                      A
 Frequencies --   1536.4446              1543.4908              1545.2222
 Red. masses --      1.0583                 1.0553                 1.0560
 Frc consts  --      1.4719                 1.4813                 1.4856
 IR Inten    --      3.0120                11.5005                 5.4290

                     64                     65                     66
                      A                      A                      A
 Frequencies --   1811.4876              3012.2812              3025.3067
 Red. masses --      9.8046                 1.0681                 1.0619
 Frc consts  --     18.9561                 5.7104                 5.7265
 IR Inten    --    350.5612                36.5062                19.0883

                     67                     68                     69
                      A                      A                      A
 Frequencies --   3038.0198              3053.0323              3054.5765
 Red. masses --      1.0691                 1.0813                 1.0401
 Frc consts  --      5.8134                 5.9382                 5.7177
 IR Inten    --     27.2077                51.6005                16.6206

                     70                     71                     72
                      A                      A                      A
 Frequencies --   3060.5148              3061.6802              3062.0535
 Red. masses --      1.0681                 1.0711                 1.0679
 Frc consts  --      5.8948                 5.9158                 5.8993
 IR Inten    --     25.4884                40.1592                42.8821

                     73                     74                     75
                      A                      A                      A
 Frequencies --   3097.4062              3103.2875              3117.3316
 Red. masses --      1.0979                 1.0959                 1.1003
 Frc consts  --      6.2059                 6.2180                 6.3000
 IR Inten    --     44.3610                12.4359                13.4924

                     76                     77                     78
                      A                      A                      A
 Frequencies --   3123.5578              3126.6097              3132.6182
 Red. masses --      1.0977                 1.0965                 1.1006
 Frc consts  --      6.3102                 6.3157                 6.3633
 IR Inten    --     62.3133                16.7730                34.1181

                     79                     80                     81
                      A                      A                      A
 Frequencies --   3153.8723              3619.3400              3747.3773
 Red. masses --      1.1013                 1.0774                 1.0659
 Frc consts  --      6.4543                 8.3152                 8.8191
 IR Inten    --     11.8971                23.6649                 8.2382

 - Thermochemistry -
 -------------------
 Temperature   298.150 Kelvin.  Pressure   1.00000 Atm.
 Atom     1 has atomic number  6 and mass  12.00000

 Molecular mass:   171.12593 amu.
 Principal axes and moments of inertia in atomic units:
                           1         2         3
     Eigenvalues --  1429.893202808.041453008.43293
           X            0.99970   0.00113  -0.02458
           Y           -0.00031   0.99945   0.03307
           Z            0.02460  -0.03305   0.99915
 This molecule is an asymmetric top.
 Rotational symmetry number  1.
 Warning -- assumption of classical behavior for rotation
           may cause significant error
 Rotational temperatures (Kelvin)      0.06057     0.03084     0.02879
 Rotational constants (GHZ):           1.26215     0.64270     0.59989
 Zero-point vibrational energy     678898.6 (Joules/Mol)
                                  162.26066 (Kcal/Mol)
 Warning -- explicit consideration of  20 degrees of freedom as
           vibrations may cause significant error
 Vibrational temperatures:     72.76    95.31   129.12   153.92   174.19
          (Kelvin)            247.76   287.48   306.49   352.72   400.32
                              421.57   446.73   464.19   536.75   578.11
                              606.14   660.54   745.33   780.18   878.41
                             1015.17  1069.48  1093.94  1141.16  1153.86
                             1228.95  1261.84  1361.47  1393.93  1433.66
                             1492.03  1516.09  1541.91  1546.66  1568.11
                             1595.88  1605.80  1662.51  1725.66  1737.31
                             1760.29  1824.82  1849.07  1890.96  1909.65
                             1939.30  1969.33  1993.37  1996.54  2017.84
                             2027.21  2070.47  2078.17  2080.70  2107.56
                             2171.99  2179.84  2187.56  2201.90  2202.17
                             2210.60  2220.74  2223.23  2606.33  4334.00
                             4352.74  4371.03  4392.63  4394.85  4403.40
                             4405.07  4405.61  4456.48  4464.94  4485.14
                             4494.10  4498.49  4507.14  4537.72  5207.42
                             5391.64

 Zero-point correction=                           0.258579 (Hartree/Particle)
 Thermal correction to Energy=                    0.271960
 Thermal correction to Enthalpy=                  0.272904
 Thermal correction to Gibbs Free Energy=         0.218993
 Sum of electronic and zero-point Energies=           -558.196699
 Sum of electronic and thermal Energies=              -558.183318
 Sum of electronic and thermal Enthalpies=            -558.182374
 Sum of electronic and thermal Free Energies=         -558.236285

                     E (Thermal)             CV                S
                      KCal/Mol        Cal/Mol-Kelvin    Cal/Mol-Kelvin
 Total                  170.657             49.918            113.465
 Electronic               0.000              0.000              0.000
 Translational            0.889              2.981             41.319
 Rotational               0.889              2.981             30.869
 Vibrational            168.880             43.956             41.277
 Vibration     1          0.595              1.977              4.795
 Vibration     2          0.598              1.970              4.262
 Vibration     3          0.602              1.956              3.666
 Vibration     4          0.606              1.944              3.323
 Vibration     5          0.609              1.932              3.083
 Vibration     6          0.626              1.877              2.411
 Vibration     7          0.638              1.840              2.135
 Vibration     8          0.644              1.821              2.018
 Vibration     9          0.660              1.771              1.765
 Vibration    10          0.679              1.714              1.544
 Vibration    11          0.688              1.687              1.457
 Vibration    12          0.699              1.654              1.360
 Vibration    13          0.708              1.630              1.297
 Vibration    14          0.744              1.527              1.067
 Vibration    15          0.767              1.466              0.956
 Vibration    16          0.784              1.424              0.888
 Vibration    17          0.817              1.341              0.769
 Vibration    18          0.873              1.210              0.615
 Vibration    19          0.897              1.157              0.560
 Vibration    20          0.970              1.010              0.432

 Optimization completed.
    -- Stationary point found.
 Normal termination of Gaussian 16 at Wed Dec  9 16:58:12 2020.

 ----------------------------------------------------------------------
 # B3LYP/6-311++G(d,p) empiricaldispersion=gd3bj scf=xqc pop=npa geom=c
 heck
 ----------------------------------------------------------------------

 ---------------------------------------
 CID_129672500_JID_2100_Energie_neutraal
 ---------------------------------------
 Structure from the checkpoint file:  "JID_2100.chk"
 Charge =  0 Multiplicity = 1

 SCF Done:  E(RB3LYP) =  -558.628751490     A.U. after   14 cycles
 Normal termination of Gaussian 16 at Wed Dec  9 17:00:49 2020.

 ----------------------------------------------------------------------
 # B3LYP/6-311++G(d,p) empiricaldispersion=gd3bj scf=xqc pop=npa geom=c
 heck
 ----------------------------------------------------------------------

 -------------------------------------
 CID_129672500_JID_2100_Energie_kation
 -------------------------------------
 Structure from the checkpoint file:  "JID_2100.chk"
 Charge =  1 Multiplicity = 2

 SCF Done:  E(UB3LYP) =  -558.298641321     A.U. after   27 cycles
 Normal termination of Gaussian 16 at Wed Dec  9 17:07:24 2020.
 Gaussian 16:  ES64L-G16RevA.03 25-Dec-2016

 ----------------------------------------------------------------------
 # B3LYP/6-311++G(d,p) empiricaldispersion=gd3bj scf=xqc pop=npa geom=c
 heck
 ----------------------------------------------------------------------

 ------------------------------------
 CID_129672500_JID_2100_Energie_anion
 ------------------------------------
 Structure from the checkpoint file:  "JID_2100.chk"
 Charge = -1 Multiplicity = 2

                         Standard orientation:
 ---------------------------------------------------------------------
 Center     Atomic      Atomic             Coordinates (Angstroms)
 Number     Number       Type             X           Y           Z
 ---------------------------------------------------------------------
      1          6           0        2.036125   -2.131559   -0.678338
      2          6           0        1.939708   -0.629804   -0.962485
      3          6           0        0.681070    0.066190   -0.407661
      4          6           0       -0.644825   -0.517914   -0.960700
      5          6           0       -1.601698   -0.693412    0.248753
      6          7           0       -0.693137   -0.606779    1.379700
      7          6           0        0.576367   -0.182062    1.107158
      8          8           0        1.463565   -0.030131    1.933993
      9          6           0       -2.712760    0.364722    0.329522
     10          8           0       -3.678535    0.204990   -0.696908
     11          6           0        0.732120    1.596805   -0.673312
     12          6           0        1.944530    2.347424   -0.115295
     13          1           0        2.042431   -2.321281    0.399881
     14          1           0        2.965348   -2.536872   -1.092682
     15          1           0        1.209135   -2.699593   -1.119016
     16          1           0        2.813544   -0.145029   -0.517667
     17          1           0        1.987637   -0.444990   -2.044652
     18          1           0       -1.079225    0.136575   -1.725567
     19          1           0       -0.477121   -1.485872   -1.437507
     20          1           0       -2.089544   -1.675255    0.218328
     21          1           0       -0.975324   -0.777964    2.335702
     22          1           0       -3.258111    0.250715    1.272582
     23          1           0       -2.268091    1.371916    0.325873
     24          1           0       -3.256822    0.436371   -1.538622
     25          1           0        0.678987    1.739500   -1.761912
     26          1           0       -0.182980    2.044965   -0.263786
     27          1           0        2.868963    2.060087   -0.625967
     28          1           0        1.813831    3.426094   -0.256275
     29          1           0        2.075233    2.146889    0.950856
 ---------------------------------------------------------------------

 SCF Done:  E(UB3LYP) =  -558.616055308     A.U. after   33 cycles
 SCF Done:  E(UB3LYP) =  -558.616055308     a.u. after    1 cycles

 The electronic state is 2-A.
 Alpha  occ. eigenvalues --  -19.02228 -18.98997 -14.23936 -10.16791 -10.11664
 Alpha  occ. eigenvalues --  -10.11388 -10.08957 -10.07107 -10.07105 -10.06822
 Alpha  occ. eigenvalues --  -10.05949 -10.05669  -0.93986  -0.92446  -0.84180
 Alpha  occ. eigenvalues --   -0.72590  -0.65936  -0.65427  -0.62032  -0.56381
 Alpha  occ. eigenvalues --   -0.52871  -0.51790  -0.49991  -0.44347  -0.42383
 Alpha  occ. eigenvalues --   -0.40348  -0.37110  -0.36331  -0.35200  -0.34217
 Alpha  occ. eigenvalues --   -0.33435  -0.32950  -0.31429  -0.30026  -0.28711
 Alpha  occ. eigenvalues --   -0.28092  -0.27779  -0.27199  -0.25855  -0.24858
 Alpha  occ. eigenvalues --   -0.24621  -0.23848  -0.21674  -0.21211  -0.19157
 Alpha  occ. eigenvalues --   -0.15434  -0.15232   0.04586
 Alpha virt. eigenvalues --    0.06730   0.07236   0.07547   0.09150   0.09472
 Alpha virt. eigenvalues --    0.10028   0.10254   0.10868   0.11695   0.12036
 Alpha virt. eigenvalues --    0.12621   0.13232   0.13425   0.14037   0.14628

  Beta  occ. eigenvalues --  -19.02182 -18.98993 -14.23923 -10.16786 -10.11637
  Beta  occ. eigenvalues --  -10.11374 -10.08957 -10.07078 -10.07063 -10.06808
  Beta  occ. eigenvalues --  -10.05926 -10.05659  -0.93978  -0.92355  -0.84154
  Beta  occ. eigenvalues --   -0.72564  -0.65879  -0.65393  -0.61985  -0.56302
  Beta  occ. eigenvalues --   -0.52820  -0.51732  -0.49911  -0.44300  -0.42299
  Beta  occ. eigenvalues --   -0.40306  -0.37057  -0.36294  -0.35177  -0.34158
  Beta  occ. eigenvalues --   -0.33394  -0.32915  -0.31383  -0.30002  -0.28661
  Beta  occ. eigenvalues --   -0.28066  -0.27736  -0.27156  -0.25808  -0.24822
  Beta  occ. eigenvalues --   -0.24588  -0.23812  -0.21640  -0.21181  -0.19112
  Beta  occ. eigenvalues --   -0.15409  -0.15207
  Beta virt. eigenvalues --    0.06995   0.07650   0.07827   0.08531   0.09622
  Beta virt. eigenvalues --    0.09952   0.10393   0.10660   0.11207   0.12031
  Beta virt. eigenvalues --    0.12431   0.12871   0.13436   0.13770   0.14159

 Mulliken charges and spin densities:
               1          2
     1  C    0.362503  -0.915953
     2  C   -0.411938  -0.084640
     3  C    0.650531   0.462030
     4  C    0.561220  -0.974588
     5  C   -0.814868   0.660206
     6  N   -0.295583   0.048315
     7  C    0.065313  -0.335212
     8  O   -0.354716   0.019488
     9  C    1.714656  -2.124273
    10  O   -0.264237   0.041617
    11  C   -0.202530  -0.154448
    12  C    0.030693  -0.673716
    13  H    0.047552   0.126295
    14  H   -0.190938   0.331660
    15  H   -0.021317   0.148495
    16  H    0.293897  -0.147996
    17  H   -0.220237   0.392404
    18  H   -0.708960   0.873461
    19  H   -0.237886   0.422950
    20  H   -0.423528   0.651378
    21  H    0.139624   0.186722
    22  H   -0.289948   0.454023
    23  H   -0.179605   0.354879
    24  H   -0.059531   0.309241
    25  H   -0.344324   0.518096
    26  H    0.156043  -0.034681
    27  H   -0.010259   0.137516
    28  H   -0.117206   0.251942
    29  H    0.125579   0.054788
 Sum of Mulliken charges =  -1.00000   1.00000

 Dipole moment (field-independent basis, Debye):
    X=              3.2628    Y=              0.1583    Z=              3.2757  Tot=              4.6261
 Quadrupole moment (field-independent basis, Debye-Ang):
   XX=           -132.5645   YY=           -112.7119   ZZ=           -120.6717
   XY=              0.8626   XZ=             -7.4460   YZ=              1.1554

 Summary of Natural Population Analysis:

                                       Natural Population
                Natural  -----------------------------------------------
    Atom  No    Charge         Core      Valence    Rydberg      Total
 -----------------------------------------------------------------------
      C    1   -0.28736      0.99966     2.28248    0.00523     3.28736
      C    2   -0.18871      0.99960     2.17880    0.01031     3.18871
      C    3   -0.07254      0.99951     2.05816    0.01487     3.07254
      C    4   -0.19189      0.99959     2.17907    0.01323     3.19189
      C    5   -0.01923      0.99960     2.00623    0.01341     3.01923
      N    6   -0.31785      0.99965     2.80811    0.01009     3.81785
      C    7    0.35330      0.99959     1.62104    0.02607     2.64670
      O    8   -0.32824      0.99987     3.32288    0.00549     4.32824
      C    9   -0.00671      0.99956     1.99510    0.01204     3.00671
      O   10   -0.36737      0.99990     3.36089    0.00658     4.36737
      C   11   -0.18227      0.99960     2.17250    0.01017     3.18227
      C   12   -0.29064      0.99966     2.28525    0.00573     3.29064
      H   13    0.10114      0.00000     0.39791    0.00095     0.39886
      H   14    0.09847      0.00000     0.40081    0.00072     0.40153
      H   15    0.09694      0.00000     0.40196    0.00110     0.40306
      H   16    0.10341      0.00000     0.39517    0.00142     0.39659
      H   17    0.09894      0.00000     0.39990    0.00116     0.40106
      H   18    0.10509      0.00000     0.39057    0.00434     0.39491
      H   19    0.10791      0.00000     0.38995    0.00214     0.39209
      H   20    0.09693      0.00000     0.40130    0.00176     0.40307
      H   21    0.19640      0.00000     0.30101    0.00259     0.30360
      H   22    0.08532      0.00000     0.41295    0.00173     0.41468
      H   23    0.07755      0.00000     0.42049    0.00195     0.42245
      H   24    0.23365      0.00000     0.25973    0.00663     0.26635
      H   25    0.10066      0.00000     0.39761    0.00173     0.39934
      H   26    0.09629      0.00000     0.40185    0.00186     0.40371
      H   27    0.09504      0.00000     0.40409    0.00087     0.40496
      H   28    0.09721      0.00000     0.40207    0.00072     0.40279
      H   29    0.10856      0.00000     0.39047    0.00098     0.39144
 =======================================================================
   * Total *    0.00000     11.99579    34.83835    0.16586    47.00000

 Normal termination of Gaussian 16 at Wed Dec  9 17:15:41 2020.
