 Gaussian 16, Revision A.03,

 -----------------------------------------------------------
 # opt freq B3LYP/6-31G(d) empiricaldispersion=gd3bj scf=xqc
 -----------------------------------------------------------

 ------------------------------
 CID_11194994_JID_5011_neutraal
 ------------------------------
 Symbolic Z-matrix:
 Charge =  0 Multiplicity = 1

 SCF Done:  E(RB3LYP) =  -614.579957200     A.U. after   14 cycles
 SCF Done:  E(RB3LYP) =  -614.584532725     A.U. after   12 cycles
 SCF Done:  E(RB3LYP) =  -614.585111111     A.U. after   12 cycles
 SCF Done:  E(RB3LYP) =  -614.585333610     A.U. after   11 cycles
 SCF Done:  E(RB3LYP) =  -614.585407618     A.U. after   11 cycles
 SCF Done:  E(RB3LYP) =  -614.585432968     A.U. after   10 cycles
 SCF Done:  E(RB3LYP) =  -614.585444399     A.U. after   10 cycles
 SCF Done:  E(RB3LYP) =  -614.585447724     A.U. after    9 cycles
 SCF Done:  E(RB3LYP) =  -614.585450684     A.U. after   10 cycles
 SCF Done:  E(RB3LYP) =  -614.585454030     A.U. after   10 cycles
 SCF Done:  E(RB3LYP) =  -614.585455193     A.U. after   10 cycles
 SCF Done:  E(RB3LYP) =  -614.585455360     A.U. after    7 cycles
 Optimization completed.
    -- Stationary point found.
 Normal termination of Gaussian 16 at Thu Dec 10 14:44:22 2020.

 --------------------------------------------------------------------
 #N Geom=AllCheck Guess=TCheck SCRF=Check GenChk RB3LYP/6-31G(d) Freq
 --------------------------------------------------------------------

 Structure from the checkpoint file:  "JID_5011.chk"
 ------------------------------
 CID_11194994_JID_5011_neutraal
 ------------------------------
 Charge =  0 Multiplicity = 1

 SCF Done:  E(RB3LYP) =  -614.585455360     A.U. after    1 cycles

  Exact polarizability: 191.239  10.963 176.212 -26.934   8.860  82.239
 Approx polarizability: 290.395  23.342 310.277 -57.240  22.679 132.768

                      1                      2                      3
                      A                      A                      A
 Frequencies --     19.8396                38.3266                68.6401
 Red. masses --      4.3355                 3.5352                 3.0870
 Frc consts  --      0.0010                 0.0031                 0.0086
 IR Inten    --      0.3869                 0.1595                 0.3585

                      4                      5                      6
                      A                      A                      A
 Frequencies --    116.9630               172.6227               196.8346
 Red. masses --      3.5072                 3.8615                 3.0139
 Frc consts  --      0.0283                 0.0678                 0.0688
 IR Inten    --      1.1936                 0.8531                 3.6625

                      7                      8                      9
                      A                      A                      A
 Frequencies --    234.5808               250.0498               291.3175
 Red. masses --      3.9340                 1.1506                 1.2085
 Frc consts  --      0.1275                 0.0424                 0.0604
 IR Inten    --      1.3472                 0.7151                37.3951

                     10                     11                     12
                      A                      A                      A
 Frequencies --    306.9654               319.5420               397.7199
 Red. masses --      3.1007                 3.2127                 1.8394
 Frc consts  --      0.1721                 0.1933                 0.1714
 IR Inten    --      6.1531                 2.2829                 6.0336

                     13                     14                     15
                      A                      A                      A
 Frequencies --    418.1878               426.6653               447.2383
 Red. masses --      2.6315                 2.5406                 3.5510
 Frc consts  --      0.2711                 0.2725                 0.4185
 IR Inten    --      6.7247                 6.0182                 6.9111

                     16                     17                     18
                      A                      A                      A
 Frequencies --    472.4851               477.6356               509.0257
 Red. masses --      2.3878                 3.5076                 3.8233
 Frc consts  --      0.3141                 0.4715                 0.5837
 IR Inten    --     45.3045                 2.1213                13.9990

                     19                     20                     21
                      A                      A                      A
 Frequencies --    548.5382               577.6991               621.6610
 Red. masses --      4.2373                 3.2348                 3.1581
 Frc consts  --      0.7512                 0.6361                 0.7191
 IR Inten    --     14.6006                17.2028                11.7003

                     22                     23                     24
                      A                      A                      A
 Frequencies --    648.3361               662.9593               735.9198
 Red. masses --      3.1671                 2.7936                 1.7141
 Frc consts  --      0.7844                 0.7234                 0.5469
 IR Inten    --     12.4809                13.2131                 1.4899

                     25                     26                     27
                      A                      A                      A
 Frequencies --    741.1533               781.9375               794.4927
 Red. masses --      2.5054                 1.7255                 2.6862
 Frc consts  --      0.8108                 0.6216                 0.9990
 IR Inten    --      4.4532                49.0441                54.5821

                     28                     29                     30
                      A                      A                      A
 Frequencies --    795.8625               803.8177               855.4133
 Red. masses --      2.2737                 4.2941                 1.5837
 Frc consts  --      0.8485                 1.6347                 0.6828
 IR Inten    --      5.9617                 3.0349                 6.4202

                     31                     32                     33
                      A                      A                      A
 Frequencies --    872.5178               878.1926               915.0490
 Red. masses --      1.6878                 3.3448                 1.4971
 Frc consts  --      0.7570                 1.5198                 0.7386
 IR Inten    --      0.6008                 4.3701               121.2813

                     34                     35                     36
                      A                      A                      A
 Frequencies --    935.2629               945.8959               959.5424
 Red. masses --      1.3387                 1.9286                 1.2608
 Frc consts  --      0.6899                 1.0167                 0.6839
 IR Inten    --      4.0157                45.7840                 0.3175

                     37                     38                     39
                      A                      A                      A
 Frequencies --    967.5049               983.4748              1018.3190
 Red. masses --      1.6939                 1.2813                 2.8288
 Frc consts  --      0.9342                 0.7302                 1.7283
 IR Inten    --      0.2995                 0.0772                15.9916

                     40                     41                     42
                      A                      A                      A
 Frequencies --   1045.2002              1066.1031              1083.6408
 Red. masses --      1.6367                 2.2650                 1.7494
 Frc consts  --      1.0534                 1.5168                 1.2103
 IR Inten    --      2.9367                11.7501                25.7422

                     43                     44                     45
                      A                      A                      A
 Frequencies --   1114.3378              1148.0599              1180.5232
 Red. masses --      2.0102                 2.0375                 1.4037
 Frc consts  --      1.4707                 1.5823                 1.1526
 IR Inten    --     11.5909                 9.3385                 6.4728

                     46                     47                     48
                      A                      A                      A
 Frequencies --   1184.8935              1205.2638              1215.3438
 Red. masses --      1.9614                 1.1509                 1.4290
 Frc consts  --      1.6224                 0.9850                 1.2436
 IR Inten    --     20.3126                 1.9318                 0.5860

                     49                     50                     51
                      A                      A                      A
 Frequencies --   1249.5766              1278.5094              1285.5338
 Red. masses --      2.1218                 1.3651                 1.6743
 Frc consts  --      1.9520                 1.3146                 1.6303
 IR Inten    --      0.2758                17.8540                11.8933

                     52                     53                     54
                      A                      A                      A
 Frequencies --   1300.8826              1320.0207              1349.7600
 Red. masses --      1.4220                 2.4535                 1.4386
 Frc consts  --      1.4178                 2.5188                 1.5442
 IR Inten    --      2.1941                62.1717                19.5768

                     55                     56                     57
                      A                      A                      A
 Frequencies --   1386.6062              1403.4966              1410.8868
 Red. masses --      2.1775                 1.5137                 3.9700
 Frc consts  --      2.4667                 1.7567                 4.6561
 IR Inten    --     34.9216                 5.9982                11.0445

                     58                     59                     60
                      A                      A                      A
 Frequencies --   1424.4249              1446.1605              1453.2264
 Red. masses --      1.2701                 1.4464                 2.2092
 Frc consts  --      1.5183                 1.7823                 2.7489
 IR Inten    --     12.8322                16.6271                59.8285

                     61                     62                     63
                      A                      A                      A
 Frequencies --   1485.7528              1511.1841              1515.7365
 Red. masses --      2.1690                 2.0590                 1.0903
 Frc consts  --      2.8211                 2.7704                 1.4759
 IR Inten    --      8.1622                 5.7498                 3.1862

                     64                     65                     66
                      A                      A                      A
 Frequencies --   1522.6885              1537.1120              1545.2993
 Red. masses --      1.0703                 1.0872                 1.8849
 Frc consts  --      1.4621                 1.5134                 2.6519
 IR Inten    --      5.5886                 4.4853                46.0111

                     67                     68                     69
                      A                      A                      A
 Frequencies --   1589.5508              1636.8017              1655.9049
 Red. masses --      2.3007                 6.7553                 4.5792
 Frc consts  --      3.4249                10.6632                 7.3980
 IR Inten    --    121.9651                94.9007                10.5437

                     70                     71                     72
                      A                      A                      A
 Frequencies --   1683.4774              1702.0738              3020.2037
 Red. masses --      5.2534                 1.1036                 1.0832
 Frc consts  --      8.7721                 1.8837                 5.8214
 IR Inten    --      5.9736                40.0319                35.5373

                     73                     74                     75
                      A                      A                      A
 Frequencies --   3043.8705              3052.2206              3105.8016
 Red. masses --      1.0407                 1.0681                 1.0986
 Frc consts  --      5.6808                 5.8627                 6.2439
 IR Inten    --     27.2067                73.7039                51.2112

                     76                     77                     78
                      A                      A                      A
 Frequencies --   3110.8896              3143.1880              3178.1253
 Red. masses --      1.0975                 1.1002                 1.0846
 Frc consts  --      6.2578                 6.4043                 6.4546
 IR Inten    --     22.9709                19.4332                 8.8583

                     79                     80                     81
                      A                      A                      A
 Frequencies --   3182.1537              3184.2834              3197.0809
 Red. masses --      1.0868                 1.0863                 1.0928
 Frc consts  --      6.4842                 6.4896                 6.5808
 IR Inten    --      3.3204                 2.6865                24.7850

                     82                     83                     84
                      A                      A                      A
 Frequencies --   3200.9032              3210.7483              3213.9739
 Red. masses --      1.0924                 1.0971                 1.0934
 Frc consts  --      6.5944                 6.6638                 6.6542
 IR Inten    --     43.7486                35.7776                15.0759

                     85                     86                     87
                      A                      A                      A
 Frequencies --   3466.3867              3547.8843              3634.4258
 Red. masses --      1.0498                 1.0914                 1.0738
 Frc consts  --      7.4323                 8.0938                 8.3571
 IR Inten    --      0.6261                 0.7286                 6.2001

 - Thermochemistry -
 -------------------
 Temperature   298.150 Kelvin.  Pressure   1.00000 Atm.
 Atom     1 has atomic number  6 and mass  12.00000

 Molecular mass:   200.13135 amu.
 Principal axes and moments of inertia in atomic units:
                           1         2         3
     Eigenvalues --  1855.969394041.434475114.86157
           X            0.99993  -0.01054  -0.00485
           Y            0.01057   0.99992   0.00645
           Z            0.00478  -0.00650   0.99997
 This molecule is an asymmetric top.
 Rotational symmetry number  1.
 Warning -- assumption of classical behavior for rotation
           may cause significant error
 Rotational temperatures (Kelvin)      0.04667     0.02143     0.01693
 Rotational constants (GHZ):           0.97240     0.44656     0.35284
 Zero-point vibrational energy     703633.7 (Joules/Mol)
                                  168.17248 (Kcal/Mol)
 Warning -- explicit consideration of  20 degrees of freedom as
           vibrations may cause significant error
 Vibrational temperatures:     28.54    55.14    98.76   168.28   248.37
          (Kelvin)            283.20   337.51   359.77   419.14   441.65
                              459.75   572.23   601.68   613.88   643.48
                              679.80   687.21   732.37   789.22   831.18
                              894.43   932.81   953.85  1058.82  1066.35
                             1125.03  1143.10  1145.07  1156.51  1230.75
                             1255.36  1263.52  1316.55  1345.63  1360.93
                             1380.57  1392.02  1415.00  1465.13  1503.81
                             1533.88  1559.12  1603.28  1651.80  1698.51
                             1704.80  1734.11  1748.61  1797.86  1839.49
                             1849.60  1871.68  1899.22  1942.00  1995.02
                             2019.32  2029.95  2049.43  2080.70  2090.87
                             2137.67  2174.26  2180.81  2190.81  2211.56
                             2223.34  2287.01  2354.99  2382.48  2422.15
                             2448.90  4345.40  4379.45  4391.46  4468.56
                             4475.88  4522.35  4572.61  4578.41  4581.47
                             4599.89  4605.39  4619.55  4624.19  4987.36
                             5104.61  5229.13

 Zero-point correction=                           0.268000 (Hartree/Particle)
 Thermal correction to Energy=                    0.281478
 Thermal correction to Enthalpy=                  0.282422
 Thermal correction to Gibbs Free Energy=         0.226963
 Sum of electronic and zero-point Energies=           -614.317455
 Sum of electronic and thermal Energies=              -614.303977
 Sum of electronic and thermal Enthalpies=            -614.303033
 Sum of electronic and thermal Free Energies=         -614.358492

                     E (Thermal)             CV                S
                      KCal/Mol        Cal/Mol-Kelvin    Cal/Mol-Kelvin
 Total                  176.630             53.821            116.724
 Electronic               0.000              0.000              0.000
 Translational            0.889              2.981             41.786
 Rotational               0.889              2.981             32.017
 Vibrational            174.853             47.860             42.920
 Vibration     1          0.593              1.986              6.650
 Vibration     2          0.594              1.982              5.344
 Vibration     3          0.598              1.969              4.192
 Vibration     4          0.608              1.935              3.150
 Vibration     5          0.626              1.876              2.407
 Vibration     6          0.636              1.844              2.162
 Vibration     7          0.654              1.788              1.844
 Vibration     8          0.663              1.763              1.730
 Vibration     9          0.687              1.690              1.466
 Vibration    10          0.697              1.660              1.379
 Vibration    11          0.705              1.636              1.312
 Vibration    12          0.764              1.475              0.971
 Vibration    13          0.781              1.431              0.898
 Vibration    14          0.788              1.412              0.870
 Vibration    15          0.806              1.367              0.804
 Vibration    16          0.829              1.311              0.731
 Vibration    17          0.834              1.300              0.716
 Vibration    18          0.864              1.230              0.636
 Vibration    19          0.904              1.143              0.547
 Vibration    20          0.934              1.080              0.490

 Optimization completed.
    -- Stationary point found.
 Normal termination of Gaussian 16 at Thu Dec 10 14:54:05 2020.

 ----------------------------------------------------------------------
 # B3LYP/6-311++G(d,p) empiricaldispersion=gd3bj scf=xqc pop=npa geom=c
 heck
 ----------------------------------------------------------------------

 --------------------------------------
 CID_11194994_JID_5011_Energie_neutraal
 --------------------------------------
 Structure from the checkpoint file:  "JID_5011.chk"
 Charge =  0 Multiplicity = 1

 SCF Done:  E(RB3LYP) =  -614.755718879     A.U. after   15 cycles
 Normal termination of Gaussian 16 at Thu Dec 10 14:57:57 2020.

 ----------------------------------------------------------------------
 # B3LYP/6-311++G(d,p) empiricaldispersion=gd3bj scf=xqc pop=npa geom=c
 heck
 ----------------------------------------------------------------------

 ------------------------------------
 CID_11194994_JID_5011_Energie_kation
 ------------------------------------
 Structure from the checkpoint file:  "JID_5011.chk"
 Charge =  1 Multiplicity = 2

 SCF Done:  E(UB3LYP) =  -614.502285926     A.U. after   22 cycles
 Normal termination of Gaussian 16 at Thu Dec 10 15:08:13 2020.
 Gaussian 16:  ES64L-G16RevA.03 25-Dec-2016

 ----------------------------------------------------------------------
 # B3LYP/6-311++G(d,p) empiricaldispersion=gd3bj scf=xqc pop=npa geom=c
 heck
 ----------------------------------------------------------------------

 -----------------------------------
 CID_11194994_JID_5011_Energie_anion
 -----------------------------------
 Structure from the checkpoint file:  "JID_5011.chk"
 Charge = -1 Multiplicity = 2

                         Standard orientation:
 ---------------------------------------------------------------------
 Center     Atomic      Atomic             Coordinates (Angstroms)
 Number     Number       Type             X           Y           Z
 ---------------------------------------------------------------------
      1          6           0        3.150882   -1.758293    0.508931
      2          6           0        3.185015   -0.229262    0.469005
      3          6           0        2.706418    0.318129   -0.899756
      4          7           0        1.332641   -0.024175   -1.246113
      5          6           0        0.228107    0.607949   -0.677475
      6          6           0        0.220955    1.980306   -0.454409
      7          6           0       -0.911013    2.632173    0.070365
      8          6           0       -2.058650    1.935245    0.368691
      9          6           0       -2.103680    0.534021    0.159860
     10          6           0       -3.270760   -0.215457    0.466137
     11          6           0       -3.314461   -1.578728    0.293224
     12          6           0       -2.176747   -2.261709   -0.191859
     13          6           0       -1.031023   -1.564327   -0.505238
     14          6           0       -0.953456   -0.153732   -0.355028
     15          7           0        2.451730    0.284120    1.629511
     16          1           0        2.119194   -2.126406    0.436118
     17          1           0        3.560972   -2.118810    1.455800
     18          1           0        3.727336   -2.193777   -0.315281
     19          1           0        4.231135    0.092506    0.579491
     20          1           0        2.816516    1.406235   -0.916326
     21          1           0        3.355475   -0.068551   -1.696000
     22          1           0        1.207542   -1.012357   -1.403831
     23          1           0        1.094781    2.569638   -0.709694
     24          1           0       -0.869720    3.706842    0.225938
     25          1           0       -2.934966    2.439230    0.765606
     26          1           0       -4.137309    0.318489    0.848006
     27          1           0       -4.216639   -2.133306    0.534980
     28          1           0       -2.203186   -3.340658   -0.313209
     29          1           0       -0.175718   -2.129414   -0.863938
     30          1           0        2.427203    1.302542    1.604298
     31          1           0        1.477265   -0.009707    1.569561
 ---------------------------------------------------------------------

 SCF Done:  E(UB3LYP) =  -614.749427413     A.U. after   32 cycles

 The electronic state is 2-A.
 Alpha  occ. eigenvalues --  -14.20032 -14.17721 -10.08893 -10.08788 -10.07829
 Alpha  occ. eigenvalues --  -10.05381 -10.05330 -10.05268 -10.04422 -10.04325
 Alpha  occ. eigenvalues --  -10.04276 -10.03858 -10.03471 -10.03439 -10.02958
 Alpha  occ. eigenvalues --   -0.81986  -0.77066  -0.73600  -0.68926  -0.64901
 Alpha  occ. eigenvalues --   -0.62606  -0.61302  -0.59150  -0.56669  -0.49946
 Alpha  occ. eigenvalues --   -0.49108  -0.47752  -0.45139  -0.41591  -0.38849
 Alpha  occ. eigenvalues --   -0.38444  -0.36909  -0.36107  -0.34477  -0.33500
 Alpha  occ. eigenvalues --   -0.32628  -0.30923  -0.30140  -0.29046  -0.28532
 Alpha  occ. eigenvalues --   -0.27177  -0.26943  -0.26213  -0.25079  -0.24625
 Alpha  occ. eigenvalues --   -0.23370  -0.21586  -0.20938  -0.20798  -0.18340
 Alpha  occ. eigenvalues --   -0.14562  -0.12460  -0.12174  -0.06856   0.04838
 Alpha virt. eigenvalues --    0.06684   0.08060   0.08266   0.09350   0.09671
 Alpha virt. eigenvalues --    0.09714   0.10659   0.11176   0.11460   0.11774
 Alpha virt. eigenvalues --    0.12248   0.12793   0.13547   0.14128   0.14308

  Beta  occ. eigenvalues --  -14.20025 -14.17709 -10.08878 -10.08771 -10.07616
  Beta  occ. eigenvalues --  -10.05426 -10.05377 -10.05240 -10.04392 -10.04278
  Beta  occ. eigenvalues --  -10.04228 -10.03633 -10.03455 -10.03203 -10.02809
  Beta  occ. eigenvalues --   -0.81880  -0.77019  -0.73414  -0.68674  -0.64694
  Beta  occ. eigenvalues --   -0.62402  -0.61161  -0.58872  -0.56570  -0.49559
  Beta  occ. eigenvalues --   -0.49044  -0.47590  -0.44977  -0.41510  -0.38728
  Beta  occ. eigenvalues --   -0.38252  -0.36808  -0.36037  -0.34402  -0.33404
  Beta  occ. eigenvalues --   -0.32585  -0.30841  -0.30000  -0.28901  -0.28429
  Beta  occ. eigenvalues --   -0.27045  -0.26829  -0.25850  -0.24984  -0.24580
  Beta  occ. eigenvalues --   -0.23297  -0.21284  -0.20840  -0.20267  -0.17764
  Beta  occ. eigenvalues --   -0.14291  -0.11859  -0.11616  -0.06082
  Beta virt. eigenvalues --    0.07316   0.08204   0.08363   0.08964   0.09541
  Beta virt. eigenvalues --    0.09813   0.10025   0.10715   0.11368   0.11509
  Beta virt. eigenvalues --    0.11897   0.12336   0.12899   0.13971   0.14202

 Mulliken charges and spin densities:
               1          2
     1  C    0.395447  -1.027732
     2  C   -0.049972  -0.104311
     3  C   -0.129036  -0.250029
     4  N    0.056829  -0.013736
     5  C   -0.236684   0.225520
     6  C   -0.062362  -0.079569
     7  C   -0.068989  -0.242512
     8  C   -0.406548   0.125557
     9  C    0.470057  -0.046018
    10  C   -0.178624   0.147079
    11  C   -0.327340   0.073655
    12  C   -0.575578   0.099427
    13  C   -0.430328   0.127249
    14  C    0.538955  -0.052204
    15  N   -0.206558  -0.029218
    16  H    0.062447   0.069207
    17  H   -0.007714   0.162636
    18  H   -0.142460   0.274120
    19  H   -0.579490   0.764237
    20  H   -0.045333   0.187395
    21  H   -0.258268   0.412873
    22  H    0.315542  -0.041559
    23  H    0.061741   0.045168
    24  H    0.087355   0.043977
    25  H    0.084685  -0.010205
    26  H    0.092556  -0.012146
    27  H    0.104708   0.000802
    28  H    0.106126   0.010262
    29  H   -0.019810   0.022894
    30  H    0.097388   0.133900
    31  H    0.251258  -0.016717
 Sum of Mulliken charges =  -1.00000   1.00000

 Dipole moment (field-independent basis, Debye):
    X=             -3.4453    Y=             -0.1644    Z=             -0.7979  Tot=              3.5403
 Quadrupole moment (field-independent basis, Debye-Ang):
   XX=           -154.4633   YY=           -113.3750   ZZ=           -115.3663
   XY=              0.7575   XZ=             -5.6672   YZ=              1.1587

 Summary of Natural Population Analysis:

                                       Natural Population
                Natural  -----------------------------------------------
    Atom  No    Charge         Core      Valence    Rydberg      Total
 -----------------------------------------------------------------------
      C    1   -0.29322      0.99964     2.28598    0.00760     3.29322
      C    2   -0.02174      0.99962     2.00938    0.01274     3.02174
      C    3   -0.08799      0.99959     2.07568    0.01271     3.08799
      N    4   -0.32084      0.99968     2.81044    0.01071     3.82084
      C    5    0.12700      0.99946     1.86152    0.01202     2.87300
      C    6   -0.13827      0.99953     2.12925    0.00950     3.13827
      C    7   -0.09438      0.99957     2.08376    0.01105     3.09438
      C    8   -0.09266      0.99953     2.08490    0.00823     3.09266
      C    9   -0.02883      0.99950     2.02136    0.00797     3.02883
      C   10   -0.05371      0.99954     2.04550    0.00868     3.05371
      C   11   -0.10397      0.99957     2.09470    0.00969     3.10397
      C   12   -0.10111      0.99957     2.09216    0.00938     3.10111
      C   13   -0.06094      0.99954     2.05327    0.00813     3.06094
      C   14   -0.05105      0.99946     2.04294    0.00864     3.05105
      N   15   -0.42438      0.99977     2.91465    0.00996     3.92438
      H   16    0.09663      0.00000     0.40204    0.00133     0.40337
      H   17    0.10420      0.00000     0.39485    0.00095     0.39580
      H   18    0.09789      0.00000     0.40107    0.00103     0.40211
      H   19    0.08943      0.00000     0.40772    0.00285     0.41057
      H   20    0.09497      0.00000     0.40371    0.00133     0.40503
      H   21    0.09372      0.00000     0.40525    0.00103     0.40628
      H   22    0.18327      0.00000     0.31412    0.00262     0.31673
      H   23    0.09470      0.00000     0.40376    0.00154     0.40530
      H   24    0.09237      0.00000     0.40681    0.00081     0.40763
      H   25    0.08970      0.00000     0.40896    0.00135     0.41030
      H   26    0.08788      0.00000     0.41064    0.00147     0.41212
      H   27    0.09164      0.00000     0.40776    0.00061     0.40836
      H   28    0.09051      0.00000     0.40810    0.00139     0.40949
      H   29    0.08462      0.00000     0.41364    0.00174     0.41538
      H   30    0.17589      0.00000     0.32227    0.00184     0.32411
      H   31    0.17868      0.00000     0.31937    0.00195     0.32132
 =======================================================================
   * Total *    0.00001     14.99359    38.83556    0.17085    53.99999

 Normal termination of Gaussian 16 at Thu Dec 10 15:21:48 2020.
