 Gaussian 16, Revision A.03,

 -----------------------------------------------------------
 # opt freq B3LYP/6-31G(d) empiricaldispersion=gd3bj scf=xqc
 -----------------------------------------------------------

 -------------------------------
 CID_130916942_JID_3197_neutraal
 -------------------------------
 Symbolic Z-matrix:
 Charge =  0 Multiplicity = 1

 SCF Done:  E(RB3LYP) =  -592.849162797     A.U. after   14 cycles
 SCF Done:  E(RB3LYP) =  -592.853852089     A.U. after   12 cycles
 SCF Done:  E(RB3LYP) =  -592.854463531     A.U. after   12 cycles
 SCF Done:  E(RB3LYP) =  -592.854726819     A.U. after   11 cycles
 SCF Done:  E(RB3LYP) =  -592.854852744     A.U. after   12 cycles
 SCF Done:  E(RB3LYP) =  -592.854888610     A.U. after   11 cycles
 SCF Done:  E(RB3LYP) =  -592.854913194     A.U. after   10 cycles
 SCF Done:  E(RB3LYP) =  -592.854917015     A.U. after    9 cycles
 SCF Done:  E(RB3LYP) =  -592.854918861     A.U. after    8 cycles
 SCF Done:  E(RB3LYP) =  -592.854920414     A.U. after    9 cycles
 SCF Done:  E(RB3LYP) =  -592.854920765     A.U. after    8 cycles
 SCF Done:  E(RB3LYP) =  -592.854920866     A.U. after    7 cycles
 Optimization completed.
    -- Stationary point found.
 Normal termination of Gaussian 16 at Wed Dec  9 22:27:48 2020.

 --------------------------------------------------------------------
 #N Geom=AllCheck Guess=TCheck SCRF=Check GenChk RB3LYP/6-31G(d) Freq
 --------------------------------------------------------------------

 Structure from the checkpoint file:  "JID_3197.chk"
 -------------------------------
 CID_130916942_JID_3197_neutraal
 -------------------------------
 Charge =  0 Multiplicity = 1

 SCF Done:  E(RB3LYP) =  -592.854920866     A.U. after    1 cycles

  Exact polarizability: 134.259  -0.557  78.650  -4.007   8.060 108.231
 Approx polarizability: 191.479  -3.397 115.493  -1.948  14.336 201.358

                      1                      2                      3
                      A                      A                      A
 Frequencies --     32.0676                53.0892                89.3375
 Red. masses --      4.2339                 4.2988                 5.0201
 Frc consts  --      0.0026                 0.0071                 0.0236
 IR Inten    --      0.7028                 0.1250                 1.2606

                      4                      5                      6
                      A                      A                      A
 Frequencies --    138.1621               195.5390               217.9349
 Red. masses --      3.3772                 4.1420                 4.0470
 Frc consts  --      0.0380                 0.0933                 0.1132
 IR Inten    --      0.7124                 6.4766                 2.1554

                      7                      8                      9
                      A                      A                      A
 Frequencies --    293.3057               325.1699               357.7470
 Red. masses --      2.2685                 3.4804                 1.3818
 Frc consts  --      0.1150                 0.2168                 0.1042
 IR Inten    --     15.4780                 6.8736               102.3833

                     10                     11                     12
                      A                      A                      A
 Frequencies --    379.0060               416.4127               450.9936
 Red. masses --      4.5831                 3.0096                 3.9944
 Frc consts  --      0.3879                 0.3075                 0.4787
 IR Inten    --      0.3071                 0.4915                 3.1907

                     13                     14                     15
                      A                      A                      A
 Frequencies --    483.3601               519.0790               593.0614
 Red. masses --      3.8617                 3.7892                 4.0948
 Frc consts  --      0.5316                 0.6015                 0.8486
 IR Inten    --      6.6290                 2.1126                21.6522

                     16                     17                     18
                      A                      A                      A
 Frequencies --    635.4606               687.7261               720.5873
 Red. masses --      6.3870                 5.0373                 1.7465
 Frc consts  --      1.5196                 1.4037                 0.5343
 IR Inten    --      0.0530                 3.5297                33.9830

                     19                     20                     21
                      A                      A                      A
 Frequencies --    768.8256               783.9393               817.4067
 Red. masses --      2.9529                 2.2223                 1.3076
 Frc consts  --      1.0284                 0.8047                 0.5147
 IR Inten    --      7.0992                15.5828                11.1308

                     22                     23                     24
                      A                      A                      A
 Frequencies --    844.7870               867.9469               890.5858
 Red. masses --      3.6536                 1.2476                 5.2388
 Frc consts  --      1.5363                 0.5538                 2.4481
 IR Inten    --     22.1317                 0.0253                14.7073

                     25                     26                     27
                      A                      A                      A
 Frequencies --    921.7874               936.3487               958.6733
 Red. masses --      4.8260                 1.4050                 1.8238
 Frc consts  --      2.4160                 0.7258                 0.9876
 IR Inten    --     69.2453                 0.3632                19.1171

                     28                     29                     30
                      A                      A                      A
 Frequencies --    978.8623               994.5292              1004.4292
 Red. masses --      1.3406                 2.2626                 1.2621
 Frc consts  --      0.7568                 1.3185                 0.7502
 IR Inten    --      0.3743                 4.5491                 0.4002

                     31                     32                     33
                      A                      A                      A
 Frequencies --   1021.4807              1050.3640              1070.6873
 Red. masses --      6.0548                 2.9186                 1.7843
 Frc consts  --      3.7223                 1.8971                 1.2052
 IR Inten    --      0.7995                 8.7088                 5.5551

                     34                     35                     36
                      A                      A                      A
 Frequencies --   1086.4413              1099.5732              1125.4960
 Red. masses --      2.9687                 5.2210                 1.8123
 Frc consts  --      2.0646                 3.7192                 1.3526
 IR Inten    --     19.8881                66.7222                 4.9707

                     37                     38                     39
                      A                      A                      A
 Frequencies --   1143.3154              1192.6646              1195.0467
 Red. masses --      2.3943                 1.8884                 1.0981
 Frc consts  --      1.8440                 1.5826                 0.9240
 IR Inten    --     14.8364                 4.8368                 0.1629

                     40                     41                     42
                      A                      A                      A
 Frequencies --   1213.8997              1222.6385              1289.5630
 Red. masses --      1.1534                 1.2848                 1.4071
 Frc consts  --      1.0014                 1.1316                 1.3786
 IR Inten    --      4.7240                13.8543                 2.7111

                     43                     44                     45
                      A                      A                      A
 Frequencies --   1312.7256              1334.5106              1348.4193
 Red. masses --      1.9538                 1.9469                 2.2892
 Frc consts  --      1.9837                 2.0429                 2.4523
 IR Inten    --     19.8416                42.7930                 1.2554

                     46                     47                     48
                      A                      A                      A
 Frequencies --   1367.4463              1394.1606              1442.7542
 Red. masses --      2.1785                 1.2641                 1.2647
 Frc consts  --      2.4001                 1.4477                 1.5511
 IR Inten    --      2.0680                 3.2189                66.8561

                     49                     50                     51
                      A                      A                      A
 Frequencies --   1495.0217              1507.9138              1521.2420
 Red. masses --      2.2104                 1.1052                 1.0876
 Frc consts  --      2.9109                 1.4806                 1.4829
 IR Inten    --      6.3271                 7.4701                 1.6462

                     52                     53                     54
                      A                      A                      A
 Frequencies --   1544.5451              1643.5461              1665.3909
 Red. masses --      2.1881                 5.6204                 5.5363
 Frc consts  --      3.0755                 8.9451                 9.0470
 IR Inten    --      9.7597                 1.6742                 2.9914

                     55                     56                     57
                      A                      A                      A
 Frequencies --   1695.1421              2980.1555              3034.1878
 Red. masses --      8.0110                 1.0716                 1.0710
 Frc consts  --     13.5628                 5.6076                 5.8092
 IR Inten    --     16.4113                45.7614                22.9291

                     58                     59                     60
                      A                      A                      A
 Frequencies --   3115.3001              3116.8856              3175.9722
 Red. masses --      1.0923                 1.0923                 1.0867
 Frc consts  --      6.2457                 6.2521                 6.4579
 IR Inten    --      3.0544                33.8596                 7.9883

                     61                     62                     63
                      A                      A                      A
 Frequencies --   3189.2589              3199.4781              3211.8400
 Red. masses --      1.0872                 1.0921                 1.0970
 Frc consts  --      6.5154                 6.5870                 6.6674
 IR Inten    --      1.3149                26.4374                23.4863

                     64                     65                     66
                      A                      A                      A
 Frequencies --   3236.5925              3240.4603              3715.3720
 Red. masses --      1.0941                 1.0919                 1.0654
 Frc consts  --      6.7527                 6.7554                 8.6646
 IR Inten    --      5.6766                 2.1191                25.0399

 - Thermochemistry -
 -------------------
 Temperature   298.150 Kelvin.  Pressure   1.00000 Atm.
 Atom     1 has atomic number  6 and mass  12.00000

 Molecular mass:   177.07898 amu.
 Principal axes and moments of inertia in atomic units:
                           1         2         3
     Eigenvalues --  1368.740872870.916443161.73199
           X            0.99979  -0.00704  -0.01915
           Y            0.00765   0.99947   0.03163
           Z            0.01891  -0.03177   0.99932
 This molecule is an asymmetric top.
 Rotational symmetry number  1.
 Warning -- assumption of classical behavior for rotation
           may cause significant error
 Rotational temperatures (Kelvin)      0.06328     0.03017     0.02739
 Rotational constants (GHZ):           1.31854     0.62863     0.57081
 Zero-point vibrational energy     511736.4 (Joules/Mol)
                                  122.30795 (Kcal/Mol)
 Warning -- explicit consideration of  15 degrees of freedom as
           vibrations may cause significant error
 Vibrational temperatures:     46.14    76.38   128.54   198.78   281.34
          (Kelvin)            313.56   422.00   467.85   514.72   545.31
                              599.13   648.88   695.45   746.84   853.28
                              914.29   989.48  1036.76  1106.17  1127.91
                             1176.07  1215.46  1248.78  1281.35  1326.25
                             1347.20  1379.32  1408.36  1430.91  1445.15
                             1469.68  1511.24  1540.48  1563.15  1582.04
                             1619.34  1644.98  1715.98  1719.41  1746.53
                             1759.10  1855.39  1888.72  1920.06  1940.07
                             1967.45  2005.89  2075.80  2151.00  2169.55
                             2188.73  2222.26  2364.70  2396.13  2438.93
                             4287.78  4365.52  4482.22  4484.50  4569.52
                             4588.63  4603.34  4621.12  4656.73  4662.30
                             5345.59

 Zero-point correction=                           0.194910 (Hartree/Particle)
 Thermal correction to Energy=                    0.206021
 Thermal correction to Enthalpy=                  0.206965
 Thermal correction to Gibbs Free Energy=         0.156899
 Sum of electronic and zero-point Energies=           -592.660011
 Sum of electronic and thermal Energies=              -592.648900
 Sum of electronic and thermal Enthalpies=            -592.647956
 Sum of electronic and thermal Free Energies=         -592.698022

                     E (Thermal)             CV                S
                      KCal/Mol        Cal/Mol-Kelvin    Cal/Mol-Kelvin
 Total                  129.280             43.064            105.372
 Electronic               0.000              0.000              0.000
 Translational            0.889              2.981             41.421
 Rotational               0.889              2.981             30.897
 Vibrational            127.502             37.102             33.053
 Vibration     1          0.594              1.983              5.697
 Vibration     2          0.596              1.976              4.699
 Vibration     3          0.602              1.957              3.675
 Vibration     4          0.614              1.915              2.829
 Vibration     5          0.636              1.846              2.175
 Vibration     6          0.646              1.814              1.976
 Vibration     7          0.688              1.686              1.455
 Vibration     8          0.709              1.625              1.284
 Vibration     9          0.733              1.559              1.132
 Vibration    10          0.749              1.515              1.043
 Vibration    11          0.780              1.435              0.904
 Vibration    12          0.810              1.359              0.793
 Vibration    13          0.840              1.287              0.701
 Vibration    14          0.874              1.208              0.612
 Vibration    15          0.951              1.047              0.462

 Optimization completed.
    -- Stationary point found.
 Normal termination of Gaussian 16 at Wed Dec  9 22:34:31 2020.

 ----------------------------------------------------------------------
 # B3LYP/6-311++G(d,p) empiricaldispersion=gd3bj scf=xqc pop=npa geom=c
 heck
 ----------------------------------------------------------------------

 ---------------------------------------
 CID_130916942_JID_3197_Energie_neutraal
 ---------------------------------------
 Structure from the checkpoint file:  "JID_3197.chk"
 Charge =  0 Multiplicity = 1

 SCF Done:  E(RB3LYP) =  -593.025071466     A.U. after   14 cycles
 Normal termination of Gaussian 16 at Wed Dec  9 22:37:16 2020.

 ----------------------------------------------------------------------
 # B3LYP/6-311++G(d,p) empiricaldispersion=gd3bj scf=xqc pop=npa geom=c
 heck
 ----------------------------------------------------------------------

 -------------------------------------
 CID_130916942_JID_3197_Energie_kation
 -------------------------------------
 Structure from the checkpoint file:  "JID_3197.chk"
 Charge =  1 Multiplicity = 2

 SCF Done:  E(UB3LYP) =  -592.697284915     A.U. after   33 cycles
 SCF Done:  E(UB3LYP) =  -592.697590169     a.u. after   14 cycles
 Normal termination of Gaussian 16 at Thu Dec 10 00:42:28 2020.
 Gaussian 16:  ES64L-G16RevA.03 25-Dec-2016

 ----------------------------------------------------------------------
 # B3LYP/6-311++G(d,p) empiricaldispersion=gd3bj scf=xqc pop=npa geom=c
 heck
 ----------------------------------------------------------------------

 ------------------------------------
 CID_130916942_JID_3197_Energie_anion
 ------------------------------------
 Structure from the checkpoint file:  "JID_3197.chk"
 Charge = -1 Multiplicity = 2

                         Standard orientation:
 ---------------------------------------------------------------------
 Center     Atomic      Atomic             Coordinates (Angstroms)
 Number     Number       Type             X           Y           Z
 ---------------------------------------------------------------------
      1          6           0       -1.680868   -0.513881    1.308051
      2          6           0       -2.412564   -1.544423    0.497628
      3          7           0       -2.377204   -1.357831   -0.765280
      4          8           0       -1.620616   -0.212201   -1.041184
      5          6           0       -0.964767    0.256963    0.176745
      6          6           0       -1.194898    1.774472    0.267345
      7          8           0       -0.578367    2.498071   -0.771694
      8          6           0        0.526101   -0.049606    0.095648
      9          6           0        1.108621   -0.497203   -1.093944
     10          6           0        2.483627   -0.730323   -1.160810
     11          6           0        3.291942   -0.509763   -0.046128
     12          6           0        2.718700   -0.051685    1.141772
     13          6           0        1.345777    0.178223    1.210267
     14          1           0       -0.985243   -0.953124    2.028177
     15          1           0       -2.385832    0.117790    1.867517
     16          1           0       -2.971192   -2.386691    0.890775
     17          1           0       -2.268324    1.968599    0.188066
     18          1           0       -0.857852    2.112291    1.262594
     19          1           0        0.364832    2.264787   -0.767193
     20          1           0        0.473296   -0.667297   -1.954777
     21          1           0        2.921918   -1.085518   -2.089207
     22          1           0        4.361442   -0.691495   -0.100837
     23          1           0        3.339535    0.125874    2.015389
     24          1           0        0.909693    0.536010    2.140050
 ---------------------------------------------------------------------

 SCF Done:  E(UB3LYP) =  -593.014538911     A.U. after   33 cycles
 SCF Done:  E(UB3LYP) =  -593.014538911     a.u. after    1 cycles

 The electronic state is 2-A.
 Alpha  occ. eigenvalues --  -19.06680 -19.03317 -14.27380 -10.15068 -10.12963
 Alpha  occ. eigenvalues --  -10.11854 -10.09651 -10.09439 -10.08612 -10.08469
 Alpha  occ. eigenvalues --  -10.08407 -10.08329 -10.08269  -1.00608  -0.93783
 Alpha  occ. eigenvalues --   -0.78055  -0.76445  -0.71744  -0.65722  -0.65230
 Alpha  occ. eigenvalues --   -0.60103  -0.54256  -0.52470  -0.50151  -0.47806
 Alpha  occ. eigenvalues --   -0.44049  -0.43087  -0.39272  -0.38606  -0.36813
 Alpha  occ. eigenvalues --   -0.36324  -0.35141  -0.34292  -0.33289  -0.32224
 Alpha  occ. eigenvalues --   -0.30504  -0.29493  -0.27600  -0.27104  -0.25788
 Alpha  occ. eigenvalues --   -0.24993  -0.24482  -0.21050  -0.19186  -0.16647
 Alpha  occ. eigenvalues --   -0.16241  -0.15674   0.04196
 Alpha virt. eigenvalues --    0.06198   0.06993   0.07338   0.07588   0.07999
 Alpha virt. eigenvalues --    0.08115   0.08896   0.09380   0.10328   0.10993
 Alpha virt. eigenvalues --    0.11578   0.12388   0.13140   0.13990   0.15789

  Beta  occ. eigenvalues --  -19.06667 -19.03311 -14.27378 -10.15067 -10.12944
  Beta  occ. eigenvalues --  -10.11839 -10.09612 -10.09439 -10.08604 -10.08446
  Beta  occ. eigenvalues --  -10.08392 -10.08308 -10.08264  -1.00584  -0.93769
  Beta  occ. eigenvalues --   -0.78034  -0.76417  -0.71713  -0.65686  -0.65196
  Beta  occ. eigenvalues --   -0.60055  -0.54213  -0.52436  -0.50108  -0.47767
  Beta  occ. eigenvalues --   -0.44000  -0.43057  -0.39226  -0.38549  -0.36772
  Beta  occ. eigenvalues --   -0.36290  -0.35106  -0.34254  -0.33248  -0.32191
  Beta  occ. eigenvalues --   -0.30468  -0.29473  -0.27582  -0.27066  -0.25759
  Beta  occ. eigenvalues --   -0.24959  -0.24462  -0.21036  -0.19171  -0.16632
  Beta  occ. eigenvalues --   -0.16229  -0.15654
  Beta virt. eigenvalues --    0.06664   0.07015   0.07400   0.07597   0.08000
  Beta virt. eigenvalues --    0.08313   0.08779   0.09499   0.09920   0.10901
  Beta virt. eigenvalues --    0.11703   0.12097   0.12647   0.13690   0.14208

 Mulliken charges and spin densities:
               1          2
     1  C    1.671927  -2.080425
     2  C   -0.120249   0.052345
     3  N   -0.159690  -0.006579
     4  O    0.158888  -0.012076
     5  C   -0.687106   1.030448
     6  C    0.721473  -1.124219
     7  O   -0.229015   0.011230
     8  C   -0.023908  -0.155800
     9  C   -0.084980   0.455680
    10  C   -0.936849   0.402357
    11  C    1.747064  -2.033054
    12  C    0.789668  -1.139533
    13  C   -0.753470   0.337800
    14  H   -0.249443   0.439127
    15  H   -0.522310   0.698011
    16  H   -0.639876   0.859783
    17  H    0.171444   0.038699
    18  H   -0.310052   0.482674
    19  H    0.243274   0.010087
    20  H    0.169652   0.055645
    21  H   -0.125918   0.293333
    22  H   -0.328292   0.488214
    23  H   -1.007872   1.206699
    24  H   -0.494359   0.689557
 Sum of Mulliken charges =  -1.00000   1.00000

 Dipole moment (field-independent basis, Debye):
    X=             -0.6763    Y=              0.3390    Z=             -5.2985  Tot=              5.3522
 Quadrupole moment (field-independent basis, Debye-Ang):
   XX=           -139.9210   YY=           -113.3862   ZZ=           -126.1509
   XY=             -2.2981   XZ=             -5.6310   YZ=              0.6573

 Summary of Natural Population Analysis:

                                       Natural Population
                Natural  -----------------------------------------------
    Atom  No    Charge         Core      Valence    Rydberg      Total
 -----------------------------------------------------------------------
      C    1   -0.22899      0.99958     2.21853    0.01088     3.22899
      C    2    0.02556      0.99965     1.95969    0.01510     2.97444
      N    3   -0.05675      0.99966     2.54413    0.01296     3.55675
      O    4   -0.21986      0.99988     3.21031    0.00967     4.21986
      C    5    0.11229      0.99948     1.86974    0.01849     2.88771
      C    6   -0.00836      0.99951     1.99482    0.01403     3.00836
      O    7   -0.36350      0.99990     3.35737    0.00623     4.36350
      C    8   -0.04180      0.99945     2.02739    0.01496     3.04180
      C    9   -0.10039      0.99950     2.09084    0.01005     3.10039
      C   10   -0.09950      0.99956     2.08976    0.01018     3.09950
      C   11   -0.10116      0.99956     2.09108    0.01052     3.10116
      C   12   -0.09338      0.99956     2.08271    0.01111     3.09338
      C   13   -0.10255      0.99950     2.09166    0.01139     3.10255
      H   14    0.12040      0.00000     0.37697    0.00263     0.37960
      H   15    0.11481      0.00000     0.38195    0.00324     0.38519
      H   16    0.10325      0.00000     0.39525    0.00149     0.39675
      H   17    0.09298      0.00000     0.40566    0.00135     0.40702
      H   18    0.08342      0.00000     0.41488    0.00170     0.41658
      H   19    0.23176      0.00000     0.26540    0.00284     0.26824
      H   20    0.11385      0.00000     0.38491    0.00124     0.38615
      H   21    0.10017      0.00000     0.39904    0.00079     0.39983
      H   22    0.10290      0.00000     0.39568    0.00142     0.39710
      H   23    0.10660      0.00000     0.39025    0.00316     0.39340
      H   24    0.10824      0.00000     0.38840    0.00336     0.39176
 =======================================================================
   * Total *   -0.00000     12.99478    33.82641    0.17881    47.00000

 Normal termination of Gaussian 16 at Thu Dec 10 00:50:41 2020.
