 Gaussian 16, Revision A.03,

 -----------------------------------------------------------
 # opt freq B3LYP/6-31G(d) empiricaldispersion=gd3bj scf=xqc
 -----------------------------------------------------------

 -------------------------------
 CID_130974166_JID_4651_neutraal
 -------------------------------
 Symbolic Z-matrix:
 Charge =  0 Multiplicity = 1

 SCF Done:  E(RB3LYP) =  -950.173052935     A.U. after   16 cycles
 SCF Done:  E(RB3LYP) =  -950.176782533     A.U. after   13 cycles
 SCF Done:  E(RB3LYP) =  -950.178237233     A.U. after   12 cycles
 SCF Done:  E(RB3LYP) =  -950.179702069     A.U. after   14 cycles
 SCF Done:  E(RB3LYP) =  -950.180190553     A.U. after   12 cycles
 SCF Done:  E(RB3LYP) =  -950.180487276     A.U. after   12 cycles
 SCF Done:  E(RB3LYP) =  -950.180594835     A.U. after   11 cycles
 SCF Done:  E(RB3LYP) =  -950.180644825     A.U. after   11 cycles
 SCF Done:  E(RB3LYP) =  -950.180674318     A.U. after   11 cycles
 SCF Done:  E(RB3LYP) =  -950.180682982     A.U. after   10 cycles
 SCF Done:  E(RB3LYP) =  -950.180686680     A.U. after   10 cycles
 SCF Done:  E(RB3LYP) =  -950.180687581     A.U. after    8 cycles
 Optimization completed.
    -- Stationary point found.
 Normal termination of Gaussian 16 at Thu Dec 10 10:16:08 2020.

 --------------------------------------------------------------------
 #N Geom=AllCheck Guess=TCheck SCRF=Check GenChk RB3LYP/6-31G(d) Freq
 --------------------------------------------------------------------

 Structure from the checkpoint file:  "JID_4651.chk"
 -------------------------------
 CID_130974166_JID_4651_neutraal
 -------------------------------
 Charge =  0 Multiplicity = 1

 SCF Done:  E(RB3LYP) =  -950.180687581     A.U. after    1 cycles

  Exact polarizability: 222.139   1.397 152.541  -1.067   1.063  62.883
 Approx polarizability: 326.650   3.943 275.012  -3.748   3.577  98.584

                      1                      2                      3
                      A                      A                      A
 Frequencies --     36.8259                58.0036                73.8485
 Red. masses --      4.8242                 4.1426                 2.0249
 Frc consts  --      0.0039                 0.0082                 0.0065
 IR Inten    --      1.2841                 1.0223                 2.7402

                      4                      5                      6
                      A                      A                      A
 Frequencies --     80.2586               112.7745               163.8296
 Red. masses --      4.8900                 4.0430                 4.2996
 Frc consts  --      0.0186                 0.0303                 0.0680
 IR Inten    --      0.4076                 2.8209                 0.8407

                      7                      8                      9
                      A                      A                      A
 Frequencies --    209.8507               264.1116               277.9800
 Red. masses --      3.8203                 1.6807                 2.7471
 Frc consts  --      0.0991                 0.0691                 0.1251
 IR Inten    --      0.4325                 3.0040                 3.7222

                     10                     11                     12
                      A                      A                      A
 Frequencies --    306.6357               335.7115               350.9340
 Red. masses --      4.9118                 5.7887                 3.4624
 Frc consts  --      0.2721                 0.3844                 0.2512
 IR Inten    --      0.0607                 3.1148                 4.7549

                     13                     14                     15
                      A                      A                      A
 Frequencies --    434.4775               467.5699               517.2418
 Red. masses --      2.0524                 1.9487                 5.3184
 Frc consts  --      0.2283                 0.2510                 0.8383
 IR Inten    --     41.4269                53.5343                 4.5535

                     16                     17                     18
                      A                      A                      A
 Frequencies --    522.4747               600.6917               634.1029
 Red. masses --      4.1517                 3.2231                 5.3303
 Frc consts  --      0.6677                 0.6852                 1.2628
 IR Inten    --     28.3693                 2.4373                 9.4257

                     19                     20                     21
                      A                      A                      A
 Frequencies --    655.3061               689.9689               723.4552
 Red. masses --     10.0738                 3.7606                 7.7725
 Frc consts  --      2.5488                 1.0548                 2.3968
 IR Inten    --      4.1701                 1.7490                11.1224

                     22                     23                     24
                      A                      A                      A
 Frequencies --    739.6727               743.9415               798.4605
 Red. masses --      1.5999                 7.0837                 2.2529
 Frc consts  --      0.5157                 2.3099                 0.8462
 IR Inten    --      3.0963                19.4839                70.1474

                     25                     26                     27
                      A                      A                      A
 Frequencies --    821.7872               833.1517               840.3198
 Red. masses --      1.5396                 1.1817                 5.2491
 Frc consts  --      0.6126                 0.4833                 2.1838
 IR Inten    --      9.2670                 1.4378                28.0168

                     28                     29                     30
                      A                      A                      A
 Frequencies --    858.3687               882.7092               918.0235
 Red. masses --      1.4415                 3.1939                 1.3988
 Frc consts  --      0.6258                 1.4663                 0.6946
 IR Inten    --      0.1375                 1.2666                 1.3593

                     31                     32                     33
                      A                      A                      A
 Frequencies --    963.6655               984.3521              1002.0716
 Red. masses --      2.4805                 1.2756                 6.7247
 Frc consts  --      1.3572                 0.7282                 3.9785
 IR Inten    --      0.3458                 0.0171                 8.5945

                     34                     35                     36
                      A                      A                      A
 Frequencies --   1043.6998              1082.3202              1088.8174
 Red. masses --      2.9960                 1.8789                 2.0138
 Frc consts  --      1.9228                 1.2968                 1.4066
 IR Inten    --      5.0955                 2.1131                 0.0575

                     37                     38                     39
                      A                      A                      A
 Frequencies --   1127.6056              1180.3715              1195.4903
 Red. masses --      1.6293                 1.5111                 1.2961
 Frc consts  --      1.2206                 1.2405                 1.0914
 IR Inten    --      3.9037                 4.3105                55.4273

                     40                     41                     42
                      A                      A                      A
 Frequencies --   1214.5167              1265.2304              1298.8798
 Red. masses --      2.2722                 1.6248                 2.2813
 Frc consts  --      1.9747                 1.5325                 2.2676
 IR Inten    --      9.3466                 9.8817                34.3544

                     43                     44                     45
                      A                      A                      A
 Frequencies --   1313.2208              1322.2633              1347.1649
 Red. masses --      1.1637                 2.4219                 3.2347
 Frc consts  --      1.1824                 2.4948                 3.4588
 IR Inten    --      2.5038                19.5689                48.9046

                     46                     47                     48
                      A                      A                      A
 Frequencies --   1376.8415              1409.8057              1435.7613
 Red. masses --      2.3327                 1.7883                 1.8618
 Frc consts  --      2.6054                 2.0942                 2.2612
 IR Inten    --     41.9061                 4.6351                25.6840

                     49                     50                     51
                      A                      A                      A
 Frequencies --   1447.4834              1474.6034              1513.1059
 Red. masses --      1.4775                 3.8164                 2.6131
 Frc consts  --      1.8239                 4.8894                 3.5249
 IR Inten    --     53.3399                23.5455               149.9463

                     52                     53                     54
                      A                      A                      A
 Frequencies --   1523.5724              1532.2117              1557.3395
 Red. masses --      1.0594                 1.0711                 2.0129
 Frc consts  --      1.4489                 1.4816                 2.8764
 IR Inten    --     13.5121                46.9156               172.6420

                     55                     56                     57
                      A                      A                      A
 Frequencies --   1561.7833              1596.8556              1632.7172
 Red. masses --      1.2684                 5.6621                 5.0891
 Frc consts  --      1.8228                 8.5066                 7.9930
 IR Inten    --      5.3728                 6.4263                99.5283

                     58                     59                     60
                      A                      A                      A
 Frequencies --   1655.2887              2990.5431              3046.0185
 Red. masses --      5.7741                 1.0705                 1.0899
 Frc consts  --      9.3214                 5.6405                 5.9581
 IR Inten    --    373.8356                57.4932                25.4448

                     61                     62                     63
                      A                      A                      A
 Frequencies --   3055.7883              3122.4845              3139.0638
 Red. masses --      1.0389                 1.1019                 1.1025
 Frc consts  --      5.7157                 6.3296                 6.4009
 IR Inten    --     23.8575                33.5595                25.5509

                     64                     65                     66
                      A                      A                      A
 Frequencies --   3194.9628              3197.0961              3227.2471
 Red. masses --      1.0886                 1.0911                 1.0916
 Frc consts  --      6.5469                 6.5709                 6.6983
 IR Inten    --     16.5245                26.3323                 8.5996

                     67                     68                     69
                      A                      A                      A
 Frequencies --   3231.8494              3241.2572              3601.4147
 Red. masses --      1.0947                 1.0950                 1.0761
 Frc consts  --      6.7365                 6.7776                 8.2231
 IR Inten    --      8.3485                 6.6255                26.9361

 - Thermochemistry -
 -------------------
 Temperature   298.150 Kelvin.  Pressure   1.00000 Atm.
 Atom     1 has atomic number  6 and mass  12.00000

 Molecular mass:   205.06737 amu.
 Principal axes and moments of inertia in atomic units:
                           1         2         3
     Eigenvalues --  1373.800305646.738036992.95691
           X            0.99963  -0.02705   0.00099
           Y            0.02705   0.99963  -0.00040
           Z           -0.00097   0.00042   1.00000
 This molecule is an asymmetric top.
 Rotational symmetry number  1.
 Warning -- assumption of classical behavior for rotation
           may cause significant error
 Rotational temperatures (Kelvin)      0.06305     0.01534     0.01239
 Rotational constants (GHZ):           1.31369     0.31961     0.25808
 Zero-point vibrational energy     521256.3 (Joules/Mol)
                                  124.58325 (Kcal/Mol)
 Warning -- explicit consideration of  17 degrees of freedom as
           vibrations may cause significant error
 Vibrational temperatures:     52.98    83.45   106.25   115.47   162.26
          (Kelvin)            235.71   301.93   380.00   399.95   441.18
                              483.01   504.92   625.12   672.73   744.20
                              751.72   864.26   912.33   942.84   992.71
                             1040.89  1064.22  1070.37  1148.81  1182.37
                             1198.72  1209.03  1235.00  1270.02  1320.83
                             1386.50  1416.26  1441.76  1501.65  1557.22
                             1566.57  1622.37  1698.29  1720.04  1747.42
                             1820.38  1868.80  1889.43  1902.44  1938.27
                             1980.97  2028.40  2065.74  2082.61  2121.63
                             2177.02  2192.08  2204.51  2240.66  2247.06
                             2297.52  2349.12  2381.59  4302.72  4382.54
                             4396.60  4492.56  4516.41  4596.84  4599.91
                             4643.29  4649.91  4663.45  5181.63

 Zero-point correction=                           0.198536 (Hartree/Particle)
 Thermal correction to Energy=                    0.211195
 Thermal correction to Enthalpy=                  0.212139
 Thermal correction to Gibbs Free Energy=         0.157908
 Sum of electronic and zero-point Energies=           -949.982152
 Sum of electronic and thermal Energies=              -949.969493
 Sum of electronic and thermal Enthalpies=            -949.968548
 Sum of electronic and thermal Free Energies=         -950.022779

                     E (Thermal)             CV                S
                      KCal/Mol        Cal/Mol-Kelvin    Cal/Mol-Kelvin
 Total                  132.527             47.635            114.138
 Electronic               0.000              0.000              0.000
 Translational            0.889              2.981             41.859
 Rotational               0.889              2.981             32.362
 Vibrational            130.749             41.673             39.918
 Vibration     1          0.594              1.982              5.423
 Vibration     2          0.596              1.974              4.524
 Vibration     3          0.599              1.966              4.048
 Vibration     4          0.600              1.963              3.885
 Vibration     5          0.607              1.939              3.221
 Vibration     6          0.623              1.887              2.505
 Vibration     7          0.642              1.826              2.045
 Vibration     8          0.671              1.739              1.634
 Vibration     9          0.679              1.714              1.546
 Vibration    10          0.697              1.661              1.380
 Vibration    11          0.717              1.604              1.232
 Vibration    12          0.728              1.573              1.162
 Vibration    13          0.795              1.395              0.844
 Vibration    14          0.825              1.322              0.744
 Vibration    15          0.872              1.212              0.616
 Vibration    16          0.877              1.200              0.604
 Vibration    17          0.959              1.030              0.448

                           ! Non-Optimized Parameters !
 Normal termination of Gaussian 16 at Thu Dec 10 10:21:42 2020.

 ----------------------------------------------------------------------
 # B3LYP/6-311++G(d,p) empiricaldispersion=gd3bj scf=xqc pop=npa geom=c
 heck
 ----------------------------------------------------------------------

 ---------------------------------------
 CID_130974166_JID_4651_Energie_neutraal
 ---------------------------------------
 Structure from the checkpoint file:  "JID_4651.chk"
 Charge =  0 Multiplicity = 1

 SCF Done:  E(RB3LYP) =  -950.352773531     A.U. after   15 cycles
 Normal termination of Gaussian 16 at Thu Dec 10 10:23:58 2020.

 ----------------------------------------------------------------------
 # B3LYP/6-311++G(d,p) empiricaldispersion=gd3bj scf=xqc pop=npa geom=c
 heck
 ----------------------------------------------------------------------

 -------------------------------------
 CID_130974166_JID_4651_Energie_kation
 -------------------------------------
 Structure from the checkpoint file:  "JID_4651.chk"
 Charge =  1 Multiplicity = 2

 SCF Done:  E(UB3LYP) =  -950.071288137     A.U. after   24 cycles
 Normal termination of Gaussian 16 at Thu Dec 10 10:29:25 2020.
 Gaussian 16:  ES64L-G16RevA.03 25-Dec-2016

 ----------------------------------------------------------------------
 # B3LYP/6-311++G(d,p) empiricaldispersion=gd3bj scf=xqc pop=npa geom=c
 heck
 ----------------------------------------------------------------------

 ------------------------------------
 CID_130974166_JID_4651_Energie_anion
 ------------------------------------
 Structure from the checkpoint file:  "JID_4651.chk"
 Charge = -1 Multiplicity = 2

                         Standard orientation:
 ---------------------------------------------------------------------
 Center     Atomic      Atomic             Coordinates (Angstroms)
 Number     Number       Type             X           Y           Z
 ---------------------------------------------------------------------
      1          6           0        4.815334   -1.767313    0.038615
      2          6           0        4.047745   -0.452102    0.118220
      3          7           0        2.636895   -0.676973   -0.138738
      4          6           0        1.682920    0.303933   -0.068376
      5          6           0        2.010639    1.678763   -0.037161
      6          6           0        0.970398    2.595665    0.000113
      7          6           0       -0.354112    2.157818    0.010610
      8          6           0       -0.582075    0.777109   -0.013086
      9          7           0        0.411510   -0.126205   -0.048634
     10          6           0       -1.930278    0.208575    0.004498
     11          6           0       -3.165877    0.816025    0.042671
     12          6           0       -4.203263   -0.156809    0.046666
     13          7           0       -3.841676   -1.425152    0.015213
     14         16           0       -2.162961   -1.513391   -0.023169
     15          1           0        4.459265   -2.476142    0.795599
     16          1           0        5.882129   -1.598710    0.212906
     17          1           0        4.694970   -2.227616   -0.947665
     18          1           0        4.202146    0.016748    1.103999
     19          1           0        4.441887    0.247488   -0.630729
     20          1           0        2.271940   -1.606596    0.024248
     21          1           0        3.043196    2.006325   -0.044757
     22          1           0        1.191128    3.659286    0.023487
     23          1           0       -1.178584    2.860045    0.041930
     24          1           0       -3.331531    1.886173    0.066262
     25          1           0       -5.264865    0.075581    0.073922
 ---------------------------------------------------------------------

 SCF Done:  E(UB3LYP) =  -950.365187624     A.U. after   28 cycles

 The electronic state is 2-A.
 Alpha  occ. eigenvalues --  -88.72186 -14.20366 -14.15486 -14.14317 -10.10986
 Alpha  occ. eigenvalues --  -10.10317 -10.08546 -10.05370 -10.05082 -10.04138
 Alpha  occ. eigenvalues --  -10.03841 -10.02540 -10.02322 -10.01647  -7.80659
 Alpha  occ. eigenvalues --   -5.77048  -5.76561  -5.76228  -0.83839  -0.79573
 Alpha  occ. eigenvalues --   -0.77360  -0.67218  -0.65753  -0.63588  -0.58841
 Alpha  occ. eigenvalues --   -0.58478  -0.54053  -0.49612  -0.48222  -0.42305
 Alpha  occ. eigenvalues --   -0.41520  -0.38635  -0.38070  -0.37173  -0.35482
 Alpha  occ. eigenvalues --   -0.34171  -0.31871  -0.29931  -0.29384  -0.28780
 Alpha  occ. eigenvalues --   -0.26808  -0.26780  -0.26201  -0.24914  -0.24541
 Alpha  occ. eigenvalues --   -0.23168  -0.19250  -0.18485  -0.15766  -0.13202
 Alpha  occ. eigenvalues --   -0.11892  -0.11094  -0.10343  -0.07673   0.04351
 Alpha virt. eigenvalues --    0.06110   0.08378   0.09324   0.09541   0.09982
 Alpha virt. eigenvalues --    0.10485   0.11932   0.12054   0.12880   0.13325
 Alpha virt. eigenvalues --    0.13652   0.14426   0.14792   0.15388   0.15916

  Beta  occ. eigenvalues --  -88.72127 -14.20377 -14.15069 -14.14021 -10.10983
  Beta  occ. eigenvalues --  -10.10385 -10.08541 -10.05140 -10.05123 -10.04053
  Beta  occ. eigenvalues --  -10.03653 -10.02551 -10.02094 -10.01506  -7.80606
  Beta  occ. eigenvalues --   -5.77023  -5.76537  -5.76029  -0.83720  -0.79101
  Beta  occ. eigenvalues --   -0.76993  -0.67093  -0.65342  -0.63125  -0.58488
  Beta  occ. eigenvalues --   -0.58223  -0.53991  -0.49172  -0.48013  -0.42106
  Beta  occ. eigenvalues --   -0.41235  -0.38501  -0.37919  -0.37126  -0.35386
  Beta  occ. eigenvalues --   -0.33956  -0.31732  -0.29868  -0.29234  -0.28665
  Beta  occ. eigenvalues --   -0.26668  -0.26092  -0.25911  -0.24719  -0.23645
  Beta  occ. eigenvalues --   -0.22929  -0.18974  -0.17869  -0.14244  -0.12725
  Beta  occ. eigenvalues --   -0.11520  -0.09767  -0.09324  -0.06584
  Beta virt. eigenvalues --    0.06061   0.08290   0.09261   0.09405   0.09822
  Beta virt. eigenvalues --    0.09959   0.10431   0.11860   0.12276   0.13020
  Beta virt. eigenvalues --    0.13252   0.13568   0.14786   0.15282   0.15344

 Mulliken charges and spin densities:
               1          2
     1  C   -0.569118  -0.134198
     2  C   -0.032265   0.037946
     3  N   -0.046667   0.008897
     4  C   -0.282622  -0.078565
     5  C    0.182345   0.198790
     6  C   -0.658506   0.098986
     7  C   -0.397807   0.017069
     8  C    0.206690   0.111593
     9  N   -0.047262   0.138738
    10  C   -0.530545   0.022833
    11  C    0.616639   0.191049
    12  C   -0.551222  -0.027517
    13  N   -0.255002   0.170897
    14  S    0.027214   0.128031
    15  H    0.110876   0.024551
    16  H    0.085882   0.047999
    17  H    0.124325   0.024097
    18  H    0.142910  -0.000935
    19  H    0.093417   0.038780
    20  H    0.263210  -0.000046
    21  H    0.084768  -0.008537
    22  H    0.133261  -0.004302
    23  H    0.090506   0.001177
    24  H    0.090445  -0.008166
    25  H    0.118528   0.000834
 Sum of Mulliken charges =  -1.00000   1.00000

 Dipole moment (field-independent basis, Debye):
    X=              6.9913    Y=              1.4868    Z=              0.4812  Tot=              7.1639
 Quadrupole moment (field-independent basis, Debye-Ang):
   XX=           -131.5976   YY=           -106.1989   ZZ=           -102.0105
   XY=            -15.1879   XZ=              1.4135   YZ=             -0.3362

 Summary of Natural Population Analysis:

                                       Natural Population
                Natural  -----------------------------------------------
    Atom  No    Charge         Core      Valence    Rydberg      Total
 -----------------------------------------------------------------------
      C    1   -0.28824      0.99967     2.28408    0.00448     3.28824
      C    2   -0.08490      0.99965     2.07542    0.00983     3.08490
      N    3   -0.32141      0.99966     2.81150    0.01026     3.82141
      C    4    0.18540      0.99956     1.79870    0.01633     2.81460
      C    5   -0.12641      0.99953     2.11863    0.00825     3.12641
      C    6   -0.06997      0.99959     2.06099    0.00939     3.06997
      C    7   -0.13597      0.99953     2.12846    0.00799     3.13597
      C    8    0.12320      0.99950     1.86365    0.01365     2.87680
      N    9   -0.20155      0.99965     2.69105    0.01084     3.70155
      C   10   -0.07506      0.99948     2.05918    0.01640     3.07506
      C   11   -0.12932      0.99948     2.12156    0.00827     3.12932
      C   12   -0.01614      0.99964     2.00071    0.01580     3.01614
      N   13   -0.26942      0.99974     2.75662    0.01306     3.76942
      S   14    0.30871      4.99944     2.66187    0.02998     7.69129
      H   15    0.09539      0.00000     0.40314    0.00146     0.40461
      H   16    0.09711      0.00000     0.40185    0.00104     0.40289
      H   17    0.09881      0.00000     0.39972    0.00146     0.40119
      H   18    0.08271      0.00000     0.41502    0.00227     0.41729
      H   19    0.08776      0.00000     0.40945    0.00279     0.41224
      H   20    0.18783      0.00000     0.30884    0.00333     0.31217
      H   21    0.09101      0.00000     0.40743    0.00155     0.40899
      H   22    0.08845      0.00000     0.41047    0.00108     0.41155
      H   23    0.09603      0.00000     0.40260    0.00137     0.40397
      H   24    0.09795      0.00000     0.40107    0.00099     0.40205
      H   25    0.08343      0.00000     0.41512    0.00145     0.41657
 =======================================================================
   * Total *    0.00542     17.99412    35.80712    0.19334    53.99458

 Normal termination of Gaussian 16 at Thu Dec 10 10:37:00 2020.
