 Gaussian 16, Revision A.03,

 -----------------------------------------------------------
 # opt freq B3LYP/6-31G(d) empiricaldispersion=gd3bj scf=xqc
 -----------------------------------------------------------

 ------------------------------
 CID_14375557_JID_1672_neutraal
 ------------------------------
 Symbolic Z-matrix:
 Charge =  0 Multiplicity = 1

 SCF Done:  E(RB3LYP) =  -537.711554569     A.U. after   14 cycles
 SCF Done:  E(RB3LYP) =  -537.716485985     A.U. after   13 cycles
 SCF Done:  E(RB3LYP) =  -537.717012766     A.U. after   12 cycles
 SCF Done:  E(RB3LYP) =  -537.716203800     A.U. after   14 cycles
 SCF Done:  E(RB3LYP) =  -537.717539015     A.U. after   13 cycles
 SCF Done:  E(RB3LYP) =  -537.718708696     A.U. after   14 cycles
 SCF Done:  E(RB3LYP) =  -537.709223542     A.U. after   15 cycles
 SCF Done:  E(RB3LYP) =  -537.722250140     A.U. after   14 cycles
 SCF Done:  E(RB3LYP) =  -537.724310356     A.U. after   15 cycles
 SCF Done:  E(RB3LYP) =  -537.725368143     A.U. after   13 cycles
 SCF Done:  E(RB3LYP) =  -537.726809174     A.U. after   10 cycles
 SCF Done:  E(RB3LYP) =  -537.726814796     A.U. after    9 cycles
 SCF Done:  E(RB3LYP) =  -537.726817319     A.U. after    9 cycles
 SCF Done:  E(RB3LYP) =  -537.726818587     A.U. after    9 cycles
 SCF Done:  E(RB3LYP) =  -537.726819501     A.U. after    9 cycles
 SCF Done:  E(RB3LYP) =  -537.726819709     A.U. after    8 cycles
 Optimization completed.
    -- Stationary point found.

 1\1\GINC-NODE116\FOpt\RB3LYP\6-31G(d)\C8H12O3\VSC10255\08-Dec-2020\0\\
 # opt freq B3LYP/6-31G(d) empiricaldispersion=gd3bj scf=xqc\\CID_14375
 557_JID_1672_neutraal\\0,1\C,1.729520084,-0.1132003863,0.6324865253\C,
 0.7048342565,0.0495834965,-0.4877752445\O,-0.0251615261,1.2697581676,-
 0.2529914106\C,-1.3565640513,0.9482309321,0.1437396612\C,-1.3042517807
 ,-0.557812489,0.4181503786\O,-0.2642337702,-0.9980076906,-0.4461147447
 \C,1.2625381231,0.0822317914,-1.8986476764\C,2.6649404996,0.5945539321
 ,-2.1989572964\C,2.3815954614,-0.860216193,-2.3303427763\C,0.247692780

 Normal termination of Gaussian 16 at Tue Dec  8 20:55:26 2020.

 --------------------------------------------------------------------
 #N Geom=AllCheck Guess=TCheck SCRF=Check GenChk RB3LYP/6-31G(d) Freq
 --------------------------------------------------------------------

 Structure from the checkpoint file:  "JID_1672.chk"
 ------------------------------
 CID_14375557_JID_1672_neutraal
 ------------------------------
 Charge =  0 Multiplicity = 1

 SCF Done:  E(RB3LYP) =  -537.726819709     A.U. after    1 cycles

  Exact polarizability: 100.877   4.391  88.514   0.169   0.290  69.766
 Approx polarizability: 134.999   1.509 124.886  -0.380   0.590 108.430

                      1                      2                      3
                      A                      A                      A
 Frequencies --     40.7073                91.7082               101.2112
 Red. masses --      3.9898                 3.0000                 3.1392
 Frc consts  --      0.0039                 0.0149                 0.0189
 IR Inten    --      1.2157                 3.9354                 6.1057

                      4                      5                      6
                      A                      A                      A
 Frequencies --    167.6277               210.1337               227.7938
 Red. masses --      2.7987                 3.9656                 1.1961
 Frc consts  --      0.0463                 0.1032                 0.0366
 IR Inten    --      1.0507                 6.2226                 0.5090

                      7                      8                      9
                      A                      A                      A
 Frequencies --    256.3012               301.5485               328.7027
 Red. masses --      2.5903                 3.1554                 1.8110
 Frc consts  --      0.1003                 0.1690                 0.1153
 IR Inten    --      6.8523                 0.6463                 1.4328

                     10                     11                     12
                      A                      A                      A
 Frequencies --    359.2389               371.6345               385.2039
 Red. masses --      3.4795                 3.4100                 4.6420
 Frc consts  --      0.2646                 0.2775                 0.4058
 IR Inten    --      5.0078                 1.6453                 2.6523

                     13                     14                     15
                      A                      A                      A
 Frequencies --    496.6970               569.9483               672.3290
 Red. masses --      3.8333                 4.7335                 2.4294
 Frc consts  --      0.5572                 0.9060                 0.6470
 IR Inten    --      3.8999                12.5666                 1.8892

                     16                     17                     18
                      A                      A                      A
 Frequencies --    703.6036               770.0687               803.3818
 Red. masses --      3.1933                 5.7569                 1.0953
 Frc consts  --      0.9314                 2.0114                 0.4165
 IR Inten    --      7.3712                 5.4292                 0.9461

                     19                     20                     21
                      A                      A                      A
 Frequencies --    846.5932               850.6621               883.3351
 Red. masses --      4.5224                 2.6914                 2.1142
 Frc consts  --      1.9097                 1.1475                 0.9719
 IR Inten    --      6.2088                 6.0847                25.9605

                     22                     23                     24
                      A                      A                      A
 Frequencies --    908.5156               945.6945               959.9284
 Red. masses --      1.8175                 1.5608                 2.4569
 Frc consts  --      0.8839                 0.8224                 1.3339
 IR Inten    --     18.9042                12.8602                14.5489

                     25                     26                     27
                      A                      A                      A
 Frequencies --    984.3946              1013.0177              1041.6452
 Red. masses --      1.3867                 4.3422                 1.7018
 Frc consts  --      0.7917                 2.6254                 1.0880
 IR Inten    --      1.2472                72.6187                 0.4688

                     28                     29                     30
                      A                      A                      A
 Frequencies --   1072.5422              1077.4083              1088.4360
 Red. masses --      2.0830                 2.6383                 2.9757
 Frc consts  --      1.4118                 1.8044                 2.0770
 IR Inten    --     33.7653                19.4951                81.5891

                     31                     32                     33
                      A                      A                      A
 Frequencies --   1105.7742              1131.3816              1155.5385
 Red. masses --      1.3815                 2.0720                 2.5469
 Frc consts  --      0.9953                 1.5626                 2.0037
 IR Inten    --      3.7750                30.7349                42.2590

                     34                     35                     36
                      A                      A                      A
 Frequencies --   1169.0234              1209.0243              1217.3235
 Red. masses --      1.8455                 3.1781                 1.3380
 Frc consts  --      1.4860                 2.7371                 1.1682
 IR Inten    --     10.4832               159.6345                 4.0430

                     37                     38                     39
                      A                      A                      A
 Frequencies --   1238.2157              1258.5650              1324.6815
 Red. masses --      1.1651                 1.1949                 3.0187
 Frc consts  --      1.0525                 1.1152                 3.1209
 IR Inten    --      1.1325                 5.3886                54.7792

                     40                     41                     42
                      A                      A                      A
 Frequencies --   1372.9171              1385.9539              1399.7156
 Red. masses --      3.1695                 1.3418                 1.3231
 Frc consts  --      3.5199                 1.5185                 1.5273
 IR Inten    --     86.9585                 2.3159                11.5632

                     43                     44                     45
                      A                      A                      A
 Frequencies --   1437.4936              1454.5451              1478.1138
 Red. masses --      1.2899                 1.3472                 1.0870
 Frc consts  --      1.5704                 1.6794                 1.3993
 IR Inten    --     25.8459                 9.4782                 3.2862

                     46                     47                     48
                      A                      A                      A
 Frequencies --   1514.0346              1524.1967              1525.0799
 Red. masses --      1.2404                 1.0731                 1.1307
 Frc consts  --      1.6752                 1.4689                 1.5495
 IR Inten    --      7.6593                 6.1167                 1.3384

                     49                     50                     51
                      A                      A                      A
 Frequencies --   1547.0306              1558.5347              1809.4519
 Red. masses --      1.0863                 1.0961                 9.5258
 Frc consts  --      1.5318                 1.5687                18.3758
 IR Inten    --      0.7719                 0.2278               160.3677

                     52                     53                     54
                      A                      A                      A
 Frequencies --   2981.2695              3027.0654              3037.4016
 Red. masses --      1.0847                 1.0729                 1.0637
 Frc consts  --      5.6804                 5.7924                 5.7821
 IR Inten    --    104.1682                41.0999                67.9695

                     55                     56                     57
                      A                      A                      A
 Frequencies --   3077.5725              3099.4258              3133.1477
 Red. masses --      1.0353                 1.0998                 1.0970
 Frc consts  --      5.7773                 6.2247                 6.3450
 IR Inten    --      8.6767                47.8839                31.2520

                     58                     59                     60
                      A                      A                      A
 Frequencies --   3147.9405              3155.3423              3165.8527
 Red. masses --      1.1020                 1.0989                 1.0573
 Frc consts  --      6.4342                 6.4459                 6.2434
 IR Inten    --     23.4751                 7.0651                10.8981

                     61                     62                     63
                      A                      A                      A
 Frequencies --   3168.0899              3247.2852              3259.8518
 Red. masses --      1.0546                 1.1201                 1.1172
 Frc consts  --      6.2362                 6.9592                 6.9945
 IR Inten    --     14.3650                 0.4437                 5.3637

 - Thermochemistry -
 -------------------
 Temperature   298.150 Kelvin.  Pressure   1.00000 Atm.
 Atom     1 has atomic number  6 and mass  12.00000

 Molecular mass:   156.07864 amu.
 Principal axes and moments of inertia in atomic units:
                           1         2         3
     Eigenvalues --   988.313651895.504242305.09514
           X            0.99922   0.03944   0.00122
           Y           -0.03944   0.99921   0.00477
           Z           -0.00103  -0.00482   0.99999
 This molecule is an asymmetric top.
 Rotational symmetry number  1.
 Warning -- assumption of classical behavior for rotation
           may cause significant error
 Rotational temperatures (Kelvin)      0.08764     0.04569     0.03757
 Rotational constants (GHZ):           1.82608     0.95212     0.78294
 Zero-point vibrational energy     507496.9 (Joules/Mol)
                                  121.29467 (Kcal/Mol)
 Warning -- explicit consideration of  14 degrees of freedom as
           vibrations may cause significant error
 Vibrational temperatures:     58.57   131.95   145.62   241.18   302.34
          (Kelvin)            327.74   368.76   433.86   472.93   516.86
                              534.70   554.22   714.64   820.03   967.33
                             1012.33  1107.96  1155.89  1218.06  1223.91
                             1270.92  1307.15  1360.64  1381.12  1416.32
                             1457.51  1498.70  1543.15  1550.15  1566.02
                             1590.96  1627.81  1662.56  1681.96  1739.52
                             1751.46  1781.52  1810.79  1905.92  1975.32
                             1994.08  2013.88  2068.23  2092.77  2126.68
                             2178.36  2192.98  2194.25  2225.83  2242.38
                             2603.40  4289.38  4355.27  4370.14  4427.94
                             4459.38  4507.90  4529.18  4539.83  4554.96
                             4558.17  4672.12  4690.20

 Zero-point correction=                           0.193295 (Hartree/Particle)
 Thermal correction to Energy=                    0.203976
 Thermal correction to Enthalpy=                  0.204920
 Thermal correction to Gibbs Free Energy=         0.156807
 Sum of electronic and zero-point Energies=           -537.533524
 Sum of electronic and thermal Energies=              -537.522844
 Sum of electronic and thermal Enthalpies=            -537.521900
 Sum of electronic and thermal Free Energies=         -537.570013

                     E (Thermal)             CV                S
                      KCal/Mol        Cal/Mol-Kelvin    Cal/Mol-Kelvin
 Total                  127.997             40.221            101.262
 Electronic               0.000              0.000              0.000
 Translational            0.889              2.981             41.045
 Rotational               0.889              2.981             29.847
 Vibrational            126.219             34.259             30.370
 Vibration     1          0.594              1.981              5.224
 Vibration     2          0.602              1.955              3.623
 Vibration     3          0.604              1.948              3.431
 Vibration     4          0.624              1.882              2.462
 Vibration     5          0.642              1.825              2.043
 Vibration     6          0.651              1.799              1.896
 Vibration     7          0.666              1.752              1.687
 Vibration     8          0.694              1.671              1.408
 Vibration     9          0.712              1.618              1.266
 Vibration    10          0.734              1.556              1.125
 Vibration    11          0.743              1.530              1.073
 Vibration    12          0.754              1.502              1.019
 Vibration    13          0.852              1.257              0.666
 Vibration    14          0.926              1.096              0.504

                           ! Non-Optimized Parameters !

 1\1\GINC-NODE116\Freq\RB3LYP\6-31G(d)\C8H12O3\VSC10255\08-Dec-2020\0\\
 #N Geom=AllCheck Guess=TCheck SCRF=Check GenChk RB3LYP/6-31G(d) Freq\\
 CID_14375557_JID_1672_neutraal\\0,1\C,1.729520084,-0.1132003863,0.6324
 865253\C,0.7048342565,0.0495834965,-0.4877752445\O,-0.0251615261,1.269
 7581676,-0.2529914106\C,-1.3565640513,0.9482309321,0.1437396612\C,-1.3
 042517807,-0.557812489,0.4181503786\O,-0.2642337702,-0.9980076906,-0.4
 461147447\C,1.2625381231,0.0822317914,-1.8986476764\C,2.6649404996,0.5
 945539321,-2.1989572964\C,2.3815954614,-0.860216193,-2.3303427763\C,0.

 Normal termination of Gaussian 16 at Tue Dec  8 21:01:45 2020.

 ----------------------------------------------------------------------
 # B3LYP/6-311++G(d,p) empiricaldispersion=gd3bj scf=xqc pop=npa geom=c
 heck
 ----------------------------------------------------------------------

 --------------------------------------
 CID_14375557_JID_1672_Energie_neutraal
 --------------------------------------
 Structure from the checkpoint file:  "JID_1672.chk"
 Charge =  0 Multiplicity = 1

 SCF Done:  E(RB3LYP) =  -537.882413875     A.U. after   14 cycles
 Normal termination of Gaussian 16 at Tue Dec  8 21:05:31 2020.

 ----------------------------------------------------------------------
 # B3LYP/6-311++G(d,p) empiricaldispersion=gd3bj scf=xqc pop=npa geom=c
 heck
 ----------------------------------------------------------------------

 ------------------------------------
 CID_14375557_JID_1672_Energie_kation
 ------------------------------------
 Structure from the checkpoint file:  "JID_1672.chk"
 Charge =  1 Multiplicity = 2

 SCF Done:  E(UB3LYP) =  -537.551316670     A.U. after   22 cycles
 Normal termination of Gaussian 16 at Tue Dec  8 21:11:09 2020.
 Gaussian 16:  ES64L-G16RevA.03 25-Dec-2016

 -----------------------------------
 CID_14375557_JID_1672_Energie_anion
 -----------------------------------
 Structure from the checkpoint file:  "JID_1672.chk"
 Charge = -1 Multiplicity = 2

                         Standard orientation:
 ---------------------------------------------------------------------
 Center     Atomic      Atomic             Coordinates (Angstroms)
 Number     Number       Type             X           Y           Z
 ---------------------------------------------------------------------
      1          6           0        0.789245   -1.984465   -0.197490
      2          6           0        0.479972   -0.496835   -0.046582
      3          8           0        1.097116    0.202451   -1.145207
      4          6           0        2.197764    0.964593   -0.654167
      5          6           0        2.390088    0.451984    0.776374
      6          8           0        1.080858    0.029547    1.136690
      7          6           0       -0.990584   -0.125361   -0.000383
      8          6           0       -2.054602   -0.959184   -0.701806
      9          6           0       -1.995082   -0.962705    0.784917
     10          6           0       -1.255279    1.343947    0.024039
     11          8           0       -2.370762    1.826659    0.036969
     12          1           0        0.453623   -2.349958   -1.170894
     13          1           0        1.870938   -2.132527   -0.140392
     14          1           0        0.320734   -2.575455    0.593914
     15          1           0        1.946213    2.033582   -0.668054
     16          1           0        3.070555    0.797868   -1.293771
     17          1           0        2.706177    1.221036    1.484835
     18          1           0        3.102675   -0.384141    0.815016
     19          1           0       -2.846696   -0.387277   -1.174337
     20          1           0       -1.726073   -1.840014   -1.242561
     21          1           0       -1.619605   -1.842246    1.297078
     22          1           0       -2.746283   -0.394160    1.323719
     23          1           0       -0.359088    1.992190    0.038415
 ---------------------------------------------------------------------

 SCF Done:  E(UB3LYP) =  -537.867739972     A.U. after   32 cycles

 The electronic state is 2-A.
 Alpha  occ. eigenvalues --  -19.03118 -19.02406 -19.00263 -10.17925 -10.13973
 Alpha  occ. eigenvalues --  -10.11452 -10.11345 -10.09048 -10.08321 -10.08050
 Alpha  occ. eigenvalues --  -10.05654  -0.98994  -0.93442  -0.89399  -0.77590
 Alpha  occ. eigenvalues --   -0.68110  -0.61162  -0.57657  -0.53247  -0.50848
 Alpha  occ. eigenvalues --   -0.49334  -0.43921  -0.43064  -0.40024  -0.38651
 Alpha  occ. eigenvalues --   -0.36920  -0.35057  -0.33518  -0.32539  -0.31522
 Alpha  occ. eigenvalues --   -0.30165  -0.29681  -0.28705  -0.27466  -0.26287
 Alpha  occ. eigenvalues --   -0.24273  -0.23815  -0.22087  -0.19852  -0.17291
 Alpha  occ. eigenvalues --   -0.16162  -0.14366   0.04960
 Alpha virt. eigenvalues --    0.06854   0.07274   0.08626   0.09237   0.09937
 Alpha virt. eigenvalues --    0.10010   0.11053   0.11704   0.12807   0.12932
 Alpha virt. eigenvalues --    0.14131   0.14213   0.14946   0.16382   0.17268

  Beta  occ. eigenvalues --  -19.03119 -19.02405 -19.00158 -10.17922 -10.13847
  Beta  occ. eigenvalues --  -10.11408 -10.11307 -10.09063 -10.08304 -10.08009
  Beta  occ. eigenvalues --  -10.05611  -0.98986  -0.93235  -0.89393  -0.77543
  Beta  occ. eigenvalues --   -0.68065  -0.61083  -0.57500  -0.53163  -0.50771
  Beta  occ. eigenvalues --   -0.49187  -0.43842  -0.43014  -0.39956  -0.38591
  Beta  occ. eigenvalues --   -0.36844  -0.34998  -0.33399  -0.32482  -0.31425
  Beta  occ. eigenvalues --   -0.30025  -0.29603  -0.28424  -0.27393  -0.26123
  Beta  occ. eigenvalues --   -0.24225  -0.23802  -0.22023  -0.19681  -0.17262
  Beta  occ. eigenvalues --   -0.16133  -0.14295
  Beta virt. eigenvalues --    0.07657   0.08018   0.08433   0.09321   0.09824
  Beta virt. eigenvalues --    0.10464   0.10633   0.11540   0.12027   0.13103
  Beta virt. eigenvalues --    0.13547   0.14476   0.14709   0.15109   0.16334

 Mulliken charges and spin densities:
               1          2
     1  C    2.129931  -2.349637
     2  C   -3.507537   1.613513
     3  O    0.012685   0.016641
     4  C    1.023523  -1.068753
     5  C    1.147950  -1.173897
     6  O    0.000364   0.025015
     7  C    0.544461   0.698820
     8  C    0.239705  -0.604123
     9  C   -0.241464  -0.161063
    10  C   -0.098509   0.089867
    11  O   -0.295654   0.030107
    12  H   -0.198747   0.381649
    13  H   -0.332874   0.492511
    14  H   -0.241678   0.399325
    15  H    0.044063   0.087578
    16  H   -0.797039   0.968466
    17  H   -0.463143   0.620557
    18  H   -0.306413   0.468723
    19  H    0.129699   0.060263
    20  H   -0.157971   0.297505
    21  H    0.092935   0.044151
    22  H    0.141229   0.038831
    23  H    0.134483   0.023952
 Sum of Mulliken charges =  -1.00000   1.00000

 Dipole moment (field-independent basis, Debye):
    X=             -5.6281    Y=              0.6848    Z=              1.3136  Tot=              5.8198
 Quadrupole moment (field-independent basis, Debye-Ang):
   XX=           -129.9789   YY=           -107.7012   ZZ=            -91.9168
   XY=              5.6448   XZ=              0.2303   YZ=             -3.9800

 Summary of Natural Population Analysis:

                                       Natural Population
                Natural  -----------------------------------------------
    Atom  No    Charge         Core      Valence    Rydberg      Total
 -----------------------------------------------------------------------
      C    1   -0.30372      0.99959     2.29690    0.00723     3.30372
      C    2    0.30131      0.99950     1.67668    0.02251     2.69869
      O    3   -0.30960      0.99988     3.30108    0.00864     4.30960
      C    4   -0.02132      0.99958     2.00931    0.01243     3.02132
      C    5   -0.02597      0.99959     2.01366    0.01272     3.02597
      O    6   -0.30425      0.99988     3.29616    0.00822     4.30425
      C    7   -0.11014      0.99946     2.09584    0.01484     3.11014
      C    8   -0.17789      0.99960     2.16909    0.00920     3.17789
      C    9   -0.17726      0.99960     2.16889    0.00876     3.17726
      C   10    0.25160      0.99965     1.72814    0.02061     2.74840
      O   11   -0.28620      0.99988     3.28053    0.00579     4.28620
      H   12    0.10678      0.00000     0.39161    0.00160     0.39322
      H   13    0.11102      0.00000     0.38716    0.00182     0.38898
      H   14    0.10069      0.00000     0.39798    0.00133     0.39931
      H   15    0.08023      0.00000     0.41813    0.00164     0.41977
      H   16    0.09470      0.00000     0.40211    0.00320     0.40530
      H   17    0.09512      0.00000     0.40320    0.00167     0.40488
      H   18    0.08669      0.00000     0.40991    0.00340     0.41331
      H   19    0.10983      0.00000     0.38913    0.00104     0.39017
      H   20    0.10810      0.00000     0.39077    0.00113     0.39190
      H   21    0.10482      0.00000     0.39434    0.00084     0.39518
      H   22    0.10852      0.00000     0.39047    0.00101     0.39148
      H   23    0.05694      0.00000     0.44080    0.00226     0.44306
 =======================================================================
   * Total *    0.00000     10.99621    30.85188    0.15191    42.00000

 Normal termination of Gaussian 16 at Tue Dec  8 21:19:01 2020.
