 Gaussian 16, Revision A.03,

 -----------------------------------------------------------
 # opt freq B3LYP/6-31G(d) empiricaldispersion=gd3bj scf=xqc
 -----------------------------------------------------------

 -----------------------------
 CID_12896925_JID_183_neutraal
 -----------------------------
 Symbolic Z-matrix:
 Charge =  0 Multiplicity = 1

 SCF Done:  E(RB3LYP) =  -536.730472745     A.U. after   13 cycles
 SCF Done:  E(RB3LYP) =  -536.734686151     A.U. after   11 cycles
 SCF Done:  E(RB3LYP) =  -536.732295615     A.U. after   11 cycles
 SCF Done:  E(RB3LYP) =  -536.735081442     A.U. after   11 cycles
 SCF Done:  E(RB3LYP) =  -536.735465909     A.U. after   10 cycles
 SCF Done:  E(RB3LYP) =  -536.735552285     A.U. after   10 cycles
 SCF Done:  E(RB3LYP) =  -536.735593935     A.U. after   10 cycles
 SCF Done:  E(RB3LYP) =  -536.735617796     A.U. after   10 cycles
 SCF Done:  E(RB3LYP) =  -536.735643634     A.U. after   10 cycles
 SCF Done:  E(RB3LYP) =  -536.735671412     A.U. after   11 cycles
 SCF Done:  E(RB3LYP) =  -536.736837896     A.U. after   11 cycles
 SCF Done:  E(RB3LYP) =  -536.737117506     A.U. after   11 cycles
 SCF Done:  E(RB3LYP) =  -536.737221647     A.U. after   11 cycles
 SCF Done:  E(RB3LYP) =  -536.737236592     A.U. after   10 cycles
 SCF Done:  E(RB3LYP) =  -536.737242433     A.U. after    9 cycles
 SCF Done:  E(RB3LYP) =  -536.737243066     A.U. after    8 cycles
 Optimization completed.
    -- Stationary point found.

 1\1\GINC-NODE202\FOpt\RB3LYP\6-31G(d)\C6H12O4\VSC10255\08-Dec-2020\0\\
 # opt freq B3LYP/6-31G(d) empiricaldispersion=gd3bj scf=xqc\\CID_12896
 925_JID_183_neutraal\\0,1\C,1.2367814455,0.2763319793,-0.1918024797\O,
 0.6489523288,0.4060749822,1.0950663711\C,1.4623913667,0.511684478,2.23
 53882768\C,1.8173839658,-0.8320300609,2.9199005445\C,3.1121431019,-1.4
 967354423,2.4327517521\C,4.2401102898,-0.4603478694,2.4087592585\C,3.8
 143985581,0.7606896126,1.6013349332\O,2.603072922,1.3469465633,2.10122
 27654\O,2.8662528538,-2.0470757955,1.1379900586\O,1.9383494878,-0.5969

 Normal termination of Gaussian 16 at Tue Dec  8 10:23:56 2020.

 --------------------------------------------------------------------
 #N Geom=AllCheck Guess=TCheck SCRF=Check GenChk RB3LYP/6-31G(d) Freq
 --------------------------------------------------------------------

 Structure from the checkpoint file:  "JID_183.chk"
 -----------------------------
 CID_12896925_JID_183_neutraal
 -----------------------------
 Charge =  0 Multiplicity = 1

 SCF Done:  E(RB3LYP) =  -536.737243066     A.U. after    1 cycles

  Exact polarizability:  77.197  -1.147  73.654   3.419   1.195  69.122
 Approx polarizability: 101.031  -2.930 104.901   5.735  -0.306  98.594

                      1                      2                      3
                      A                      A                      A
 Frequencies --     49.0956               120.9471               168.7488
 Red. masses --      4.0598                 3.9156                 4.0842
 Frc consts  --      0.0058                 0.0337                 0.0685
 IR Inten    --      3.6139                 4.7260                 3.8041

                      4                      5                      6
                      A                      A                      A
 Frequencies --    202.3433               253.1154               270.7920
 Red. masses --      4.4831                 1.9331                 1.4879
 Frc consts  --      0.1081                 0.0730                 0.0643
 IR Inten    --      3.5638                11.1949                 4.2238

                      7                      8                      9
                      A                      A                      A
 Frequencies --    289.2827               291.2247               329.3357
 Red. masses --      2.5696                 1.1274                 3.9431
 Frc consts  --      0.1267                 0.0563                 0.2520
 IR Inten    --     15.3643                91.6720                16.5723

                     10                     11                     12
                      A                      A                      A
 Frequencies --    360.6983               372.9994               435.1333
 Red. masses --      2.5440                 1.4159                 2.3565
 Frc consts  --      0.1950                 0.1161                 0.2629
 IR Inten    --     11.0756                77.1693                28.6353

                     13                     14                     15
                      A                      A                      A
 Frequencies --    483.3071               501.9800               571.5355
 Red. masses --      5.4874                 3.5789                 4.3857
 Frc consts  --      0.7552                 0.5313                 0.8441
 IR Inten    --      8.2473                 4.0649                 9.2830

                     16                     17                     18
                      A                      A                      A
 Frequencies --    657.8964               746.6940               833.3808
 Red. masses --      4.8859                 2.3544                 3.2252
 Frc consts  --      1.2460                 0.7734                 1.3198
 IR Inten    --      7.3021                 6.6014                11.8688

                     19                     20                     21
                      A                      A                      A
 Frequencies --    868.9855               894.5104               960.0778
 Red. masses --      2.8955                 2.6803                 4.7277
 Frc consts  --      1.2882                 1.2636                 2.5675
 IR Inten    --     12.7676                 5.8756                37.3105

                     22                     23                     24
                      A                      A                      A
 Frequencies --    999.1930              1024.3272              1059.9538
 Red. masses --      2.3511                 2.2001                 2.8750
 Frc consts  --      1.3830                 1.3601                 1.9031
 IR Inten    --     12.6747                 5.6205                82.0482

                     25                     26                     27
                      A                      A                      A
 Frequencies --   1063.6419              1083.3564              1115.3618
 Red. masses --      2.5904                 3.3229                 2.6360
 Frc consts  --      1.7267                 2.2978                 1.9321
 IR Inten    --     62.8858               179.9619                35.4617

                     28                     29                     30
                      A                      A                      A
 Frequencies --   1141.9048              1184.7346              1197.7160
 Red. masses --      2.6544                 1.8704                 1.7581
 Frc consts  --      2.0393                 1.5467                 1.4859
 IR Inten    --     13.7674                81.4446                59.8276

                     31                     32                     33
                      A                      A                      A
 Frequencies --   1225.3811              1231.5623              1239.3034
 Red. masses --      1.3012                 1.3877                 1.4615
 Frc consts  --      1.1512                 1.2401                 1.3225
 IR Inten    --     38.7591                11.5419                27.9644

                     34                     35                     36
                      A                      A                      A
 Frequencies --   1270.6751              1296.4154              1350.5700
 Red. masses --      1.3604                 1.3185                 1.3115
 Frc consts  --      1.2941                 1.3056                 1.4094
 IR Inten    --     78.8908                48.1695                20.0805

                     37                     38                     39
                      A                      A                      A
 Frequencies --   1376.8988              1397.5025              1404.6624
 Red. masses --      1.3695                 1.3291                 1.3634
 Frc consts  --      1.5297                 1.5293                 1.5849
 IR Inten    --      9.9635                10.5565                 1.9497

                     40                     41                     42
                      A                      A                      A
 Frequencies --   1420.2066              1438.3909              1454.9736
 Red. masses --      1.3393                 1.3038                 1.4194
 Frc consts  --      1.5916                 1.5894                 1.7703
 IR Inten    --     18.0633                15.4870                12.0819

                     43                     44                     45
                      A                      A                      A
 Frequencies --   1459.7918              1501.1439              1511.2820
 Red. masses --      1.2721                 1.1599                 1.0982
 Frc consts  --      1.5971                 1.5400                 1.4778
 IR Inten    --      1.9370                 6.6336                 5.0107

                     46                     47                     48
                      A                      A                      A
 Frequencies --   1527.1221              1536.9838              1560.8789
 Red. masses --      1.0531                 1.0794                 1.0543
 Frc consts  --      1.4470                 1.5023                 1.5133
 IR Inten    --      2.8333                 2.0679                 7.5316

                     49                     50                     51
                      A                      A                      A
 Frequencies --   3034.0724              3039.4179              3048.1094
 Red. masses --      1.0783                 1.0371                 1.0697
 Frc consts  --      5.8487                 5.6449                 5.8554
 IR Inten    --     35.2039                43.0776                52.7677

                     52                     53                     54
                      A                      A                      A
 Frequencies --   3076.2929              3082.7023              3089.2460
 Red. masses --      1.0712                 1.0876                 1.0868
 Frc consts  --      5.9725                 6.0893                 6.1107
 IR Inten    --     21.7994                34.2768                52.3392

                     55                     56                     57
                      A                      A                      A
 Frequencies --   3115.3251              3122.6421              3125.4706
 Red. masses --      1.0971                 1.0875                 1.1082
 Frc consts  --      6.2735                 6.2476                 6.3781
 IR Inten    --     42.9724                20.4339                26.9314

                     58                     59                     60
                      A                      A                      A
 Frequencies --   3144.8051              3724.2648              3746.6160
 Red. masses --      1.1063                 1.0660                 1.0664
 Frc consts  --      6.4465                 8.7113                 8.8192
 IR Inten    --     16.6572                14.7814                15.2698

 - Thermochemistry -
 -------------------
 Temperature   298.150 Kelvin.  Pressure   1.00000 Atm.
 Atom     1 has atomic number  6 and mass  12.00000

 Molecular mass:   148.07356 amu.
 Principal axes and moments of inertia in atomic units:
                           1         2         3
     Eigenvalues --  1109.780201437.934211558.65113
           X            0.99959  -0.01504   0.02427
           Y            0.01350   0.99796   0.06238
           Z           -0.02516  -0.06202   0.99776
 This molecule is an asymmetric top.
 Rotational symmetry number  1.
 Warning -- assumption of classical behavior for rotation
           may cause significant error
 Rotational temperatures (Kelvin)      0.07805     0.06023     0.05557
 Rotational constants (GHZ):           1.62621     1.25509     1.15789
 Zero-point vibrational energy     496958.6 (Joules/Mol)
                                  118.77595 (Kcal/Mol)
 Warning -- explicit consideration of  15 degrees of freedom as
           vibrations may cause significant error
 Vibrational temperatures:     70.64   174.02   242.79   291.13   364.18
          (Kelvin)            389.61   416.21   419.01   473.84   518.96
                              536.66   626.06   695.37   722.24   822.31
                              946.57  1074.33  1199.05  1250.28  1287.00
                             1381.34  1437.62  1473.78  1525.04  1530.34
                             1558.71  1604.76  1642.95  1704.57  1723.25
                             1763.05  1771.94  1783.08  1828.22  1865.25
                             1943.17  1981.05  2010.69  2021.00  2043.36
                             2069.52  2093.38  2100.31  2159.81  2174.40
                             2197.19  2211.38  2245.76  4365.35  4373.04
                             4385.55  4426.10  4435.32  4444.74  4482.26
                             4492.79  4496.86  4524.67  5358.39  5390.54

 Zero-point correction=                           0.189282 (Hartree/Particle)
 Thermal correction to Energy=                    0.199439
 Thermal correction to Enthalpy=                  0.200383
 Thermal correction to Gibbs Free Energy=         0.154185
 Sum of electronic and zero-point Energies=           -536.547962
 Sum of electronic and thermal Energies=              -536.537804
 Sum of electronic and thermal Enthalpies=            -536.536860
 Sum of electronic and thermal Free Energies=         -536.583059

                     E (Thermal)             CV                S
                      KCal/Mol        Cal/Mol-Kelvin    Cal/Mol-Kelvin
 Total                  125.150             38.513             97.232
 Electronic               0.000              0.000              0.000
 Translational            0.889              2.981             40.888
 Rotational               0.889              2.981             29.299
 Vibrational            123.372             32.551             27.045
 Vibration     1          0.595              1.978              4.853
 Vibration     2          0.609              1.932              3.085
 Vibration     3          0.625              1.881              2.449
 Vibration     4          0.639              1.837              2.112
 Vibration     5          0.664              1.758              1.709
 Vibration     6          0.674              1.727              1.591
 Vibration     7          0.686              1.694              1.478
 Vibration     8          0.687              1.690              1.467
 Vibration     9          0.712              1.617              1.263
 Vibration    10          0.735              1.553              1.119
 Vibration    11          0.744              1.528              1.067
 Vibration    12          0.796              1.394              0.842
 Vibration    13          0.839              1.287              0.701
 Vibration    14          0.857              1.246              0.653
 Vibration    15          0.928              1.093              0.501

                           ! Non-Optimized Parameters !

 1\1\GINC-NODE202\Freq\RB3LYP\6-31G(d)\C6H12O4\VSC10255\08-Dec-2020\0\\
 #N Geom=AllCheck Guess=TCheck SCRF=Check GenChk RB3LYP/6-31G(d) Freq\\
 CID_12896925_JID_183_neutraal\\0,1\C,1.2367814455,0.2763319793,-0.1918
 024797\O,0.6489523288,0.4060749822,1.0950663711\C,1.4623913667,0.51168
 4478,2.2353882768\C,1.8173839658,-0.8320300609,2.9199005445\C,3.112143
 1019,-1.4967354423,2.4327517521\C,4.2401102898,-0.4603478694,2.4087592
 585\C,3.8143985581,0.7606896126,1.6013349332\O,2.603072922,1.346946563
 3,2.1012227654\O,2.8662528538,-2.0470757955,1.1379900586\O,1.938349487

 Normal termination of Gaussian 16 at Tue Dec  8 10:28:11 2020.

 ----------------------------------------------------------------------
 # B3LYP/6-311++G(d,p) empiricaldispersion=gd3bj scf=xqc pop=npa geom=c
 heck
 ----------------------------------------------------------------------

 -------------------------------------
 CID_12896925_JID_183_Energie_neutraal
 -------------------------------------
 Structure from the checkpoint file:  "JID_183.chk"
 Charge =  0 Multiplicity = 1

 SCF Done:  E(RB3LYP) =  -536.915417307     A.U. after   13 cycles
 Normal termination of Gaussian 16 at Tue Dec  8 10:29:42 2020.

 ----------------------------------------------------------------------
 # B3LYP/6-311++G(d,p) empiricaldispersion=gd3bj scf=xqc pop=npa geom=c
 heck
 ----------------------------------------------------------------------

 -----------------------------------
 CID_12896925_JID_183_Energie_kation
 -----------------------------------
 Structure from the checkpoint file:  "JID_183.chk"
 Charge =  1 Multiplicity = 2

 SCF Done:  E(UB3LYP) =  -536.580548755     A.U. after   24 cycles
 Normal termination of Gaussian 16 at Tue Dec  8 10:36:56 2020.
 Gaussian 16:  ES64L-G16RevA.03 25-Dec-2016

 ----------------------------------
 CID_12896925_JID_183_Energie_anion
 ----------------------------------
 Structure from the checkpoint file:  "JID_183.chk"
 Charge = -1 Multiplicity = 2

                         Standard orientation:
 ---------------------------------------------------------------------
 Center     Atomic      Atomic             Coordinates (Angstroms)
 Number     Number       Type             X           Y           Z
 ---------------------------------------------------------------------
      1          6           0       -2.427365    0.534302   -0.329491
      2          8           0       -1.856533   -0.761505   -0.445440
      3          6           0       -0.614074   -1.041226    0.147199
      4          6           0        0.618929   -0.801137   -0.759556
      5          6           0        1.236952    0.600985   -0.672087
      6          6           0        1.426132    0.984437    0.799022
      7          6           0        0.112847    0.824602    1.556538
      8          8           0       -0.418746   -0.504456    1.447407
      9          8           0        0.369892    1.509296   -1.352471
     10          8           0        1.623915   -1.754097   -0.404979
     11          1           0       -3.370346    0.487049   -0.880375
     12          1           0       -1.787642    1.305814   -0.767888
     13          1           0       -2.648928    0.776633    0.717484
     14          1           0       -0.647931   -2.123576    0.306969
     15          1           0        0.332337   -1.010967   -1.792598
     16          1           0        2.209593    0.553311   -1.179815
     17          1           0        1.784386    2.019104    0.885756
     18          1           0        2.198557    0.343359    1.240920
     19          1           0       -0.612380    1.562895    1.200565
     20          1           0        0.253585    0.978560    2.629785
     21          1           0        0.784410    2.385358   -1.331617
     22          1           0        1.635615   -1.803232    0.564924
 ---------------------------------------------------------------------

 SCF Done:  E(UB3LYP) =  -536.904426365     A.U. after   25 cycles

 The electronic state is 2-A.
 Alpha  occ. eigenvalues --  -19.02894 -19.02515 -19.02280 -19.01070 -10.16709
 Alpha  occ. eigenvalues --  -10.11750 -10.11156 -10.10623 -10.10006 -10.05664
 Alpha  occ. eigenvalues --   -0.96714  -0.92807  -0.91228  -0.90680  -0.67585
 Alpha  occ. eigenvalues --   -0.65899  -0.59084  -0.54542  -0.52499  -0.45923
 Alpha  occ. eigenvalues --   -0.42791  -0.40492  -0.39735  -0.38759  -0.36050
 Alpha  occ. eigenvalues --   -0.35244  -0.33284  -0.32489  -0.31102  -0.29377
 Alpha  occ. eigenvalues --   -0.28910  -0.27060  -0.24898  -0.23083  -0.22592
 Alpha  occ. eigenvalues --   -0.21212  -0.19297  -0.17116  -0.16339  -0.15009
 Alpha  occ. eigenvalues --    0.04905
 Alpha virt. eigenvalues --    0.07991   0.08209   0.08869   0.10463   0.10847
 Alpha virt. eigenvalues --    0.11172   0.11620   0.11853   0.13673   0.14423
 Alpha virt. eigenvalues --    0.15431   0.16085   0.17242   0.18344   0.18611

  Beta  occ. eigenvalues --  -19.02887 -19.02498 -19.02279 -19.01003 -10.16706
  Beta  occ. eigenvalues --  -10.11748 -10.11140 -10.10595 -10.09987 -10.05612
  Beta  occ. eigenvalues --   -0.96701  -0.92773  -0.91097  -0.90667  -0.67499
  Beta  occ. eigenvalues --   -0.65866  -0.59035  -0.54482  -0.52444  -0.45826
  Beta  occ. eigenvalues --   -0.42750  -0.40464  -0.39675  -0.38669  -0.36003
  Beta  occ. eigenvalues --   -0.35180  -0.33261  -0.32456  -0.31066  -0.29325
  Beta  occ. eigenvalues --   -0.28859  -0.27012  -0.24848  -0.23062  -0.22535
  Beta  occ. eigenvalues --   -0.21186  -0.19267  -0.17076  -0.16278  -0.14993
  Beta virt. eigenvalues --    0.07675   0.08557   0.09356   0.09636   0.10810
  Beta virt. eigenvalues --    0.11431   0.11627   0.12059   0.12715   0.14063
  Beta virt. eigenvalues --    0.14853   0.15923   0.16499   0.17391   0.18448

 Mulliken charges and spin densities:
               1          2
     1  C    0.225542  -0.552068
     2  O   -0.111996   0.025852
     3  C   -0.726556   0.225604
     4  C    0.352229  -0.665538
     5  C    0.349263  -0.461205
     6  C    0.843471  -1.320774
     7  C    0.476725  -0.564846
     8  O   -0.149304   0.039225
     9  O   -0.165218  -0.050602
    10  O   -0.204854   0.040226
    11  H    0.062826   0.067921
    12  H    0.057271   0.149725
    13  H   -0.176276   0.323698
    14  H    0.051151   0.146492
    15  H    0.319529  -0.065377
    16  H   -0.307252   0.523480
    17  H   -1.313880   1.519304
    18  H    0.167075  -0.030575
    19  H    0.272726  -0.124674
    20  H   -0.795611   1.007113
    21  H   -0.340193   0.625047
    22  H    0.113333   0.141970
 Sum of Mulliken charges =  -1.00000   1.00000

 Dipole moment (field-independent basis, Debye):
    X=             -3.5957    Y=             -6.0982    Z=             -1.0805  Tot=              7.1613
 Quadrupole moment (field-independent basis, Debye-Ang):
   XX=            -97.7436   YY=           -107.4819   ZZ=            -95.9822
   XY=            -10.8482   XZ=              0.6243   YZ=             -1.4732

 Summary of Natural Population Analysis:

                                       Natural Population
                Natural  -----------------------------------------------
    Atom  No    Charge         Core      Valence    Rydberg      Total
 -----------------------------------------------------------------------
      C    1   -0.10894      0.99959     2.09947    0.00988     3.10894
      O    2   -0.30508      0.99987     3.29578    0.00943     4.30508
      C    3    0.21655      0.99953     1.76456    0.01935     2.78345
      C    4    0.03724      0.99952     1.94735    0.01588     2.96276
      C    5    0.05369      0.99953     1.92980    0.01698     2.94631
      C    6   -0.22095      0.99961     2.21003    0.01131     3.22095
      C    7   -0.01443      0.99956     2.00099    0.01389     3.01443
      O    8   -0.30885      0.99988     3.29950    0.00946     4.30885
      O    9   -0.38208      0.99989     3.37455    0.00764     4.38208
      O   10   -0.37021      0.99990     3.36400    0.00631     4.37021
      H   11    0.08497      0.00000     0.41409    0.00094     0.41503
      H   12    0.09916      0.00000     0.39940    0.00144     0.40084
      H   13    0.08062      0.00000     0.41815    0.00124     0.41938
      H   14    0.08459      0.00000     0.41384    0.00157     0.41541
      H   15    0.09710      0.00000     0.40149    0.00141     0.40290
      H   16    0.08872      0.00000     0.40959    0.00169     0.41128
      H   17    0.11468      0.00000     0.37574    0.00958     0.38532
      H   18    0.10024      0.00000     0.39777    0.00199     0.39976
      H   19    0.08601      0.00000     0.41149    0.00249     0.41399
      H   20    0.09460      0.00000     0.40335    0.00205     0.40540
      H   21    0.24269      0.00000     0.24167    0.01565     0.25731
      H   22    0.22965      0.00000     0.26728    0.00307     0.27035
 =======================================================================
   * Total *    0.00000      9.99689    29.83987    0.16324    40.00000

 Normal termination of Gaussian 16 at Tue Dec  8 10:43:05 2020.
