 Gaussian 16, Revision A.03,

 -----------------------------------------------------------
 # opt freq B3LYP/6-31G(d) empiricaldispersion=gd3bj scf=xqc
 -----------------------------------------------------------

 -------------------------------
 CID_153523464_JID_2771_neutraal
 -------------------------------
 Symbolic Z-matrix:
 Charge =  0 Multiplicity = 1

 SCF Done:  E(RB3LYP) =  -622.756496808     A.U. after   15 cycles
 SCF Done:  E(RB3LYP) =  -622.767811971     A.U. after   13 cycles
 SCF Done:  E(RB3LYP) =  -622.770461533     A.U. after   13 cycles
 SCF Done:  E(RB3LYP) =  -622.771038594     A.U. after   13 cycles
 SCF Done:  E(RB3LYP) =  -622.771489103     A.U. after   12 cycles
 SCF Done:  E(RB3LYP) =  -622.771965024     A.U. after   12 cycles
 SCF Done:  E(RB3LYP) =  -622.772116789     A.U. after   12 cycles
 SCF Done:  E(RB3LYP) =  -622.772246341     A.U. after   12 cycles
 SCF Done:  E(RB3LYP) =  -622.772323092     A.U. after   11 cycles
 SCF Done:  E(RB3LYP) =  -622.772392101     A.U. after   11 cycles
 SCF Done:  E(RB3LYP) =  -622.772417428     A.U. after   10 cycles
 SCF Done:  E(RB3LYP) =  -622.772422073     A.U. after    9 cycles
 SCF Done:  E(RB3LYP) =  -622.772425252     A.U. after    9 cycles
 SCF Done:  E(RB3LYP) =  -622.772426849     A.U. after    9 cycles
 SCF Done:  E(RB3LYP) =  -622.772427045     A.U. after    8 cycles
 Optimization completed.
    -- Stationary point found.
 Normal termination of Gaussian 16 at Wed Dec  9 17:57:57 2020.

 --------------------------------------------------------------------
 #N Geom=AllCheck Guess=TCheck SCRF=Check GenChk RB3LYP/6-31G(d) Freq
 --------------------------------------------------------------------

 Structure from the checkpoint file:  "JID_2771.chk"
 -------------------------------
 CID_153523464_JID_2771_neutraal
 -------------------------------
 Charge =  0 Multiplicity = 1

 SCF Done:  E(RB3LYP) =  -622.772427045     A.U. after    1 cycles

  Exact polarizability: 115.963  -2.966  98.421  -9.306  -0.327  52.269
 Approx polarizability: 165.871  -9.234 172.354 -20.484  -1.560  90.130

                      1                      2                      3
                      A                      A                      A
 Frequencies --     62.7442                68.4369                83.3512
 Red. masses --      3.9765                 5.9006                 5.5526
 Frc consts  --      0.0092                 0.0163                 0.0227
 IR Inten    --      7.7426                 7.7287                 0.6232

                      4                      5                      6
                      A                      A                      A
 Frequencies --    127.5993               143.2369               194.1332
 Red. masses --      9.2100                 1.0612                 5.4776
 Frc consts  --      0.0883                 0.0128                 0.1216
 IR Inten    --      0.1779                 0.1474                 1.0682

                      7                      8                      9
                      A                      A                      A
 Frequencies --    287.7018               321.8512               374.3851
 Red. masses --      3.3135                 5.9965                 2.0005
 Frc consts  --      0.1616                 0.3660                 0.1652
 IR Inten    --      3.8580                 5.6619                64.8993

                     10                     11                     12
                      A                      A                      A
 Frequencies --    379.6450               407.9370               418.0796
 Red. masses --      5.2820                 1.4478                 1.3788
 Frc consts  --      0.4485                 0.1420                 0.1420
 IR Inten    --      2.1413               258.3037                10.5035

                     13                     14                     15
                      A                      A                      A
 Frequencies --    473.4114               512.6057               543.9848
 Red. masses --      3.9807                 6.2696                 7.0577
 Frc consts  --      0.5256                 0.9706                 1.2305
 IR Inten    --      5.7031                 8.1627                12.2636

                     16                     17                     18
                      A                      A                      A
 Frequencies --    561.0084               597.5472               655.1592
 Red. masses --      3.4315                 4.9515                 5.8557
 Frc consts  --      0.6363                 1.0417                 1.4809
 IR Inten    --      4.9916                 4.8355                 2.4054

                     19                     20                     21
                      A                      A                      A
 Frequencies --    678.2460               739.2146               754.7693
 Red. masses --      3.6982                 1.9269                 3.6890
 Frc consts  --      1.0023                 0.6204                 1.2382
 IR Inten    --      0.7544                62.4309                 5.2170

                     22                     23                     24
                      A                      A                      A
 Frequencies --    767.2428               824.0249               873.6462
 Red. masses --      8.3878                 6.3801                 6.4338
 Frc consts  --      2.9091                 2.5524                 2.8933
 IR Inten    --     10.2911               100.3139                 8.6483

                     25                     26                     27
                      A                      A                      A
 Frequencies --    994.9974              1013.3232              1038.6339
 Red. masses --      1.4095                 2.2379                 2.8590
 Frc consts  --      0.8221                 1.3539                 1.8172
 IR Inten    --      1.0686                29.0403                 2.0723

                     28                     29                     30
                      A                      A                      A
 Frequencies --   1058.2549              1070.1656              1117.7788
 Red. masses --      2.8560                 1.7496                 5.5557
 Frc consts  --      1.8845                 1.1806                 4.0898
 IR Inten    --     23.4822                 5.6524                44.1314

                     31                     32                     33
                      A                      A                      A
 Frequencies --   1156.6870              1183.1787              1221.4969
 Red. masses --      1.5220                 2.9806                 3.4490
 Frc consts  --      1.1998                 2.4584                 3.0320
 IR Inten    --     59.8240               192.4917                48.0463

                     34                     35                     36
                      A                      A                      A
 Frequencies --   1382.4489              1417.8702              1421.9565
 Red. masses --      1.6806                 1.3828                 2.4717
 Frc consts  --      1.8924                 1.6378                 2.9446
 IR Inten    --     17.9038                75.8457                52.5870

                     37                     38                     39
                      A                      A                      A
 Frequencies --   1497.3010              1499.6068              1512.7056
 Red. masses --      1.0601                 1.0609                 3.5074
 Frc consts  --      1.4003                 1.4057                 4.7287
 IR Inten    --     15.0215                21.2157                70.2313

                     40                     41                     42
                      A                      A                      A
 Frequencies --   1605.9796              1649.9957              1682.6894
 Red. masses --      2.5147                 5.4093                 1.7147
 Frc consts  --      3.8213                 8.6767                 2.8606
 IR Inten    --    225.2819               125.7481               393.8012

                     43                     44                     45
                      A                      A                      A
 Frequencies --   1814.5973              1903.9147              3076.4642
 Red. masses --     12.6609                11.9962                 1.0363
 Frc consts  --     24.5627                25.6207                 5.7786
 IR Inten    --    507.5576               176.2848                 0.8219

                     46                     47                     48
                      A                      A                      A
 Frequencies --   3145.2400              3156.1709              3188.4208
 Red. masses --      1.0999                 1.0899                 1.1048
 Frc consts  --      6.4106                 6.3969                 6.6174
 IR Inten    --      3.2588                36.3222                 4.9985

                     49                     50                     51
                      A                      A                      A
 Frequencies --   3237.4014              3605.9457              3717.8872
 Red. masses --      1.0933                 1.0460                 1.1028
 Frc consts  --      6.7514                 8.0138                 8.9816
 IR Inten    --      3.1750                70.6585                48.6968

 - Thermochemistry -
 -------------------
 Temperature   298.150 Kelvin.  Pressure   1.00000 Atm.
 Atom     1 has atomic number  6 and mass  12.00000

 Molecular mass:   169.04874 amu.
 Principal axes and moments of inertia in atomic units:
                           1         2         3
     Eigenvalues --  1119.739122104.177492828.51257
           X            0.99971  -0.01948  -0.01407
           Y            0.01946   0.99981  -0.00174
           Z            0.01410   0.00146   0.99990
 This molecule is an asymmetric top.
 Rotational symmetry number  1.
 Warning -- assumption of classical behavior for rotation
           may cause significant error
 Rotational temperatures (Kelvin)      0.07735     0.04116     0.03062
 Rotational constants (GHZ):           1.61175     0.85769     0.63805
 Zero-point vibrational energy     366183.3 (Joules/Mol)
                                   87.51992 (Kcal/Mol)
 Warning -- explicit consideration of  17 degrees of freedom as
           vibrations may cause significant error
 Vibrational temperatures:     90.27    98.47   119.92   183.59   206.09
          (Kelvin)            279.31   413.94   463.07   538.66   546.22
                              586.93   601.52   681.13   737.53   782.67
                              807.17   859.74   942.63   975.84  1063.56
                             1085.94  1103.89  1185.59  1256.98  1431.58
                             1457.95  1494.36  1522.59  1539.73  1608.23
                             1664.21  1702.33  1757.46  1989.04  2040.00
                             2045.88  2154.28  2157.60  2176.45  2310.65
                             2373.98  2421.01  2610.80  2739.31  4426.35
                             4525.30  4541.03  4587.43  4657.90  5188.15
                             5349.21

 Zero-point correction=                           0.139472 (Hartree/Particle)
 Thermal correction to Energy=                    0.150619
 Thermal correction to Enthalpy=                  0.151563
 Thermal correction to Gibbs Free Energy=         0.102161
 Sum of electronic and zero-point Energies=           -622.632955
 Sum of electronic and thermal Energies=              -622.621808
 Sum of electronic and thermal Enthalpies=            -622.620864
 Sum of electronic and thermal Free Energies=         -622.670266

                     E (Thermal)             CV                S
                      KCal/Mol        Cal/Mol-Kelvin    Cal/Mol-Kelvin
 Total                   94.515             41.085            103.975
 Electronic               0.000              0.000              0.000
 Translational            0.889              2.981             41.283
 Rotational               0.889              2.981             30.278
 Vibrational             92.737             35.123             32.414
 Vibration     1          0.597              1.972              4.369
 Vibration     2          0.598              1.969              4.198
 Vibration     3          0.600              1.961              3.810
 Vibration     4          0.611              1.926              2.982
 Vibration     5          0.616              1.910              2.760
 Vibration     6          0.635              1.848              2.188
 Vibration     7          0.685              1.697              1.487
 Vibration     8          0.707              1.632              1.301
 Vibration     9          0.746              1.525              1.062
 Vibration    10          0.750              1.514              1.041
 Vibration    11          0.773              1.453              0.934
 Vibration    12          0.781              1.431              0.899
 Vibration    13          0.830              1.309              0.728
 Vibration    14          0.868              1.222              0.627
 Vibration    15          0.899              1.153              0.557
 Vibration    16          0.917              1.116              0.522
 Vibration    17          0.955              1.037              0.454

                           ! Non-Optimized Parameters !
 Normal termination of Gaussian 16 at Wed Dec  9 18:02:05 2020.

 ----------------------------------------------------------------------
 # B3LYP/6-311++G(d,p) empiricaldispersion=gd3bj scf=xqc pop=npa geom=c
 heck
 ----------------------------------------------------------------------

 ---------------------------------------
 CID_153523464_JID_2771_Energie_neutraal
 ---------------------------------------
 Structure from the checkpoint file:  "JID_2771.chk"
 Charge =  0 Multiplicity = 1

 SCF Done:  E(RB3LYP) =  -622.959963968     A.U. after   15 cycles
 Normal termination of Gaussian 16 at Wed Dec  9 18:03:50 2020.

 ----------------------------------------------------------------------
 # B3LYP/6-311++G(d,p) empiricaldispersion=gd3bj scf=xqc pop=npa geom=c
 heck
 ----------------------------------------------------------------------

 -------------------------------------
 CID_153523464_JID_2771_Energie_kation
 -------------------------------------
 Structure from the checkpoint file:  "JID_2771.chk"
 Charge =  1 Multiplicity = 2

 SCF Done:  E(UB3LYP) =  -622.649401217     A.U. after   22 cycles
 Normal termination of Gaussian 16 at Wed Dec  9 18:06:50 2020.
 Gaussian 16:  ES64L-G16RevA.03 25-Dec-2016

 ----------------------------------------------------------------------
 # B3LYP/6-311++G(d,p) empiricaldispersion=gd3bj scf=xqc pop=npa geom=c
 heck
 ----------------------------------------------------------------------

 ------------------------------------
 CID_153523464_JID_2771_Energie_anion
 ------------------------------------
 Structure from the checkpoint file:  "JID_2771.chk"
 Charge = -1 Multiplicity = 2

                         Standard orientation:
 ---------------------------------------------------------------------
 Center     Atomic      Atomic             Coordinates (Angstroms)
 Number     Number       Type             X           Y           Z
 ---------------------------------------------------------------------
      1          6           0        3.324204   -0.059901   -0.222786
      2          6           0        1.958088    0.177937    0.341489
      3          8           0        1.603668    0.195015    1.483446
      4          8           0        1.061465    0.405327   -0.730352
      5          7           0       -0.244533    0.091685   -0.379314
      6          6           0       -1.107979    1.111261   -0.139095
      7          6           0       -2.406134    0.745095    0.195839
      8          6           0       -2.679522   -0.628109    0.269725
      9          7           0       -1.824274   -1.616963    0.079529
     10          6           0       -0.524004   -1.322023   -0.212149
     11          8           0        0.406144   -2.095795   -0.339846
     12          7           0       -0.666535    2.384841   -0.307727
     13          1           0        4.072902    0.061025    0.560453
     14          1           0        3.528767    0.607492   -1.064233
     15          1           0        3.341106   -1.089006   -0.598387
     16          1           0       -3.163599    1.497024    0.377381
     17          1           0       -3.697542   -0.934758    0.511981
     18          1           0       -1.223023    3.121769    0.098804
     19          1           0        0.330648    2.537575   -0.337522
 ---------------------------------------------------------------------

 SCF Done:  E(UB3LYP) =  -622.960192158     A.U. after   32 cycles

 The electronic state is 2-A.
 Alpha  occ. eigenvalues --  -19.10334 -19.02777 -18.96982 -14.30268 -14.22715
 Alpha  occ. eigenvalues --  -14.17486 -10.21318 -10.17711 -10.15967 -10.09710
 Alpha  occ. eigenvalues --  -10.09123 -10.05612  -1.05015  -0.96102  -0.92091
 Alpha  occ. eigenvalues --   -0.85933  -0.81074  -0.75916  -0.67129  -0.64895
 Alpha  occ. eigenvalues --   -0.55778  -0.55034  -0.50271  -0.45567  -0.42029
 Alpha  occ. eigenvalues --   -0.41045  -0.40718  -0.38337  -0.37005  -0.34916
 Alpha  occ. eigenvalues --   -0.34156  -0.32687  -0.32078  -0.30980  -0.29695
 Alpha  occ. eigenvalues --   -0.28559  -0.27099  -0.24225  -0.21100  -0.19968
 Alpha  occ. eigenvalues --   -0.16973  -0.16241  -0.14595  -0.10850   0.04210
 Alpha virt. eigenvalues --    0.06636   0.07214   0.08396   0.08837   0.10117
 Alpha virt. eigenvalues --    0.10826   0.11954   0.12282   0.13215   0.14197
 Alpha virt. eigenvalues --    0.15113   0.16356   0.16415   0.17266   0.17529

  Beta  occ. eigenvalues --  -19.10342 -19.02760 -18.96962 -14.30173 -14.22575
  Beta  occ. eigenvalues --  -14.17435 -10.21268 -10.17694 -10.15782 -10.09535
  Beta  occ. eigenvalues --  -10.09104 -10.05659  -1.04947  -0.96043  -0.92045
  Beta  occ. eigenvalues --   -0.85739  -0.80900  -0.75734  -0.67020  -0.64770
  Beta  occ. eigenvalues --   -0.55542  -0.54893  -0.50111  -0.45410  -0.41869
  Beta  occ. eigenvalues --   -0.40903  -0.40606  -0.38179  -0.36895  -0.34810
  Beta  occ. eigenvalues --   -0.33965  -0.32614  -0.32028  -0.30809  -0.29625
  Beta  occ. eigenvalues --   -0.28415  -0.26692  -0.24113  -0.20603  -0.19879
  Beta  occ. eigenvalues --   -0.16614  -0.16136  -0.14520  -0.10616
  Beta virt. eigenvalues --    0.07202   0.07949   0.08215   0.08963   0.09498
  Beta virt. eigenvalues --    0.10727   0.11273   0.12323   0.12536   0.13625
  Beta virt. eigenvalues --    0.14515   0.15181   0.16429   0.16500   0.17254

 Mulliken charges and spin densities:
               1          2
     1  C   -0.160895  -0.382789
     2  C    0.078848   0.001091
     3  O   -0.201522   0.019493
     4  O    0.359984  -0.039902
     5  N   -0.609473   0.057533
     6  C    0.310248  -0.402103
     7  C    0.800156  -0.512679
     8  C    0.079587  -0.269738
     9  N   -0.281295   0.036745
    10  C    0.402448  -0.069613
    11  O   -0.354669   0.004375
    12  N   -0.319381   0.046870
    13  H    0.046548   0.110281
    14  H   -0.193405   0.370263
    15  H    0.149957   0.048485
    16  H   -0.272268   0.439822
    17  H    0.180121  -0.038389
    18  H   -0.648000   0.932320
    19  H   -0.366990   0.647936
 Sum of Mulliken charges =  -1.00000   1.00000

 Dipole moment (field-independent basis, Debye):
    X=              1.3845    Y=             -3.2367    Z=             -1.0091  Tot=              3.6621
 Quadrupole moment (field-independent basis, Debye-Ang):
   XX=            -91.7865   YY=           -128.0644   ZZ=            -89.0718
   XY=             -0.2845   XZ=              0.5527   YZ=             -1.4618

 Summary of Natural Population Analysis:

                                       Natural Population
                Natural  -----------------------------------------------
    Atom  No    Charge         Core      Valence    Rydberg      Total
 -----------------------------------------------------------------------
      C    1   -0.33879      0.99960     2.33399    0.00521     3.33879
      C    2    0.41558      0.99972     1.55821    0.02649     2.58442
      O    3   -0.27653      0.99986     3.27117    0.00550     4.27653
      O    4   -0.20923      0.99987     3.19877    0.01059     4.20923
      N    5   -0.07213      0.99954     2.55988    0.01271     3.57213
      C    6    0.25249      0.99953     1.73365    0.01433     2.74751
      C    7   -0.21440      0.99952     2.20480    0.01008     3.21440
      C    8    0.08964      0.99962     1.89504    0.01571     2.91036
      N    9   -0.28997      0.99967     2.77922    0.01108     3.78997
      C   10    0.39277      0.99967     1.58259    0.02496     2.60723
      O   11   -0.32488      0.99987     3.31949    0.00552     4.32488
      N   12   -0.37183      0.99970     2.86313    0.00900     3.87183
      H   13    0.10975      0.00000     0.38949    0.00076     0.39025
      H   14    0.11635      0.00000     0.38232    0.00133     0.38365
      H   15    0.12318      0.00000     0.37601    0.00081     0.37682
      H   16    0.10903      0.00000     0.39007    0.00090     0.39097
      H   17    0.08209      0.00000     0.41656    0.00134     0.41791
      H   18    0.20371      0.00000     0.27403    0.02225     0.29629
      H   19    0.20316      0.00000     0.28830    0.00854     0.29684
 =======================================================================
   * Total *   -0.00000     11.99616    31.81672    0.18712    44.00000

 Normal termination of Gaussian 16 at Wed Dec  9 18:11:38 2020.
