 Gaussian 16, Revision A.03,

 -----------------------------------------------------------
 # opt freq B3LYP/6-31G(d) empiricaldispersion=gd3bj scf=xqc
 -----------------------------------------------------------

 -------------------------------
 CID_131026368_JID_1195_neutraal
 -------------------------------
 Symbolic Z-matrix:
 Charge =  0 Multiplicity = 1

 SCF Done:  E(RB3LYP) =  -517.888410528     A.U. after   15 cycles
 SCF Done:  E(RB3LYP) =  -517.892837474     A.U. after   12 cycles
 SCF Done:  E(RB3LYP) =  -517.893134785     A.U. after   12 cycles
 SCF Done:  E(RB3LYP) =  -517.893635752     A.U. after   12 cycles
 SCF Done:  E(RB3LYP) =  -517.893876482     A.U. after   11 cycles
 SCF Done:  E(RB3LYP) =  -517.894206120     A.U. after   13 cycles
 SCF Done:  E(RB3LYP) =  -517.894389734     A.U. after   11 cycles
 SCF Done:  E(RB3LYP) =  -517.894728553     A.U. after   12 cycles
 SCF Done:  E(RB3LYP) =  -517.895139744     A.U. after   13 cycles
 SCF Done:  E(RB3LYP) =  -517.895311303     A.U. after   11 cycles
 SCF Done:  E(RB3LYP) =  -517.895439951     A.U. after   10 cycles
 SCF Done:  E(RB3LYP) =  -517.895434006     A.U. after   10 cycles
 SCF Done:  E(RB3LYP) =  -517.895447268     A.U. after   10 cycles
 SCF Done:  E(RB3LYP) =  -517.895447581     A.U. after    8 cycles
 SCF Done:  E(RB3LYP) =  -517.895447677     A.U. after    7 cycles
 Optimization completed.
    -- Stationary point found.
 Normal termination of Gaussian 16 at Tue Dec  8 19:18:47 2020.

 --------------------------------------------------------------------
 #N Geom=AllCheck Guess=TCheck SCRF=Check GenChk RB3LYP/6-31G(d) Freq
 --------------------------------------------------------------------

 Structure from the checkpoint file:  "JID_1195.chk"
 -------------------------------
 CID_131026368_JID_1195_neutraal
 -------------------------------
 Charge =  0 Multiplicity = 1

 SCF Done:  E(RB3LYP) =  -517.895447677     A.U. after    1 cycles

  Exact polarizability: 120.504   9.814  92.876   3.173  -6.985  73.226
 Approx polarizability: 147.089  18.987 152.397   0.090 -12.568 110.360

                      1                      2                      3
                      A                      A                      A
 Frequencies --     54.1163                79.0636                89.0141
 Red. masses --      2.8289                 2.9308                 3.3325
 Frc consts  --      0.0049                 0.0108                 0.0156
 IR Inten    --      0.5325                 1.3962                 1.1179

                      4                      5                      6
                      A                      A                      A
 Frequencies --    106.9325               168.4783               188.2627
 Red. masses --      3.7144                 1.6268                 1.5668
 Frc consts  --      0.0250                 0.0272                 0.0327
 IR Inten    --      2.2451                 0.4101                 0.7939

                      7                      8                      9
                      A                      A                      A
 Frequencies --    227.4508               249.5224               262.6936
 Red. masses --      1.3034                 2.6667                 3.1722
 Frc consts  --      0.0397                 0.0978                 0.1290
 IR Inten    --      0.6261                 2.1668                11.8278

                     10                     11                     12
                      A                      A                      A
 Frequencies --    310.6706               344.6932               383.0163
 Red. masses --      2.4126                 2.8114                 3.1064
 Frc consts  --      0.1372                 0.1968                 0.2685
 IR Inten    --      7.6319                 3.4714                 5.0620

                     13                     14                     15
                      A                      A                      A
 Frequencies --    450.1815               482.1800               596.2728
 Red. masses --      2.6050                 3.5349                 4.4753
 Frc consts  --      0.3111                 0.4842                 0.9375
 IR Inten    --      6.7365                 0.2397                 4.5578

                     16                     17                     18
                      A                      A                      A
 Frequencies --    630.6804               690.5814               753.5634
 Red. masses --      4.0475                 3.1878                 4.2298
 Frc consts  --      0.9485                 0.8957                 1.4152
 IR Inten    --      6.1744                17.6583                27.2500

                     19                     20                     21
                      A                      A                      A
 Frequencies --    820.0878               856.1486               875.6294
 Red. masses --      2.7500                 3.1336                 1.7573
 Frc consts  --      1.0897                 1.3533                 0.7939
 IR Inten    --     20.3738                11.4244                19.1049

                     22                     23                     24
                      A                      A                      A
 Frequencies --    894.6690               970.1951               976.6607
 Red. masses --      1.9736                 2.5388                 1.8601
 Frc consts  --      0.9308                 1.4080                 1.0454
 IR Inten    --      9.0079                 4.3701                23.2299

                     25                     26                     27
                      A                      A                      A
 Frequencies --    980.5505              1021.2710              1052.0233
 Red. masses --      2.1731                 1.2487                 2.6902
 Frc consts  --      1.2311                 0.7673                 1.7542
 IR Inten    --     27.4418                 7.6205                 0.8923

                     28                     29                     30
                      A                      A                      A
 Frequencies --   1101.5032              1112.3603              1120.2893
 Red. masses --      1.8414                 2.9648                 1.6831
 Frc consts  --      1.3163                 2.1614                 1.2446
 IR Inten    --     90.2605                22.4652                 0.2597

                     31                     32                     33
                      A                      A                      A
 Frequencies --   1136.4458              1163.6117              1196.7501
 Red. masses --      2.0219                 1.9984                 2.2868
 Frc consts  --      1.5385                 1.5942                 1.9297
 IR Inten    --     13.3896                13.6868                35.5248

                     34                     35                     36
                      A                      A                      A
 Frequencies --   1225.4137              1233.5030              1251.6851
 Red. masses --      2.2088                 1.2239                 1.4515
 Frc consts  --      1.9542                 1.0972                 1.3398
 IR Inten    --      1.9903                13.1949                27.0545

                     37                     38                     39
                      A                      A                      A
 Frequencies --   1290.9087              1355.7567              1374.3863
 Red. masses --      1.2461                 1.3886                 1.4249
 Frc consts  --      1.2235                 1.5038                 1.5858
 IR Inten    --      4.0538                13.3086                 1.1606

                     40                     41                     42
                      A                      A                      A
 Frequencies --   1385.2990              1412.4244              1434.1674
 Red. masses --      1.4070                 4.8133                 1.3163
 Frc consts  --      1.5908                 5.6574                 1.5952
 IR Inten    --      1.4004               324.1932                 7.5097

                     43                     44                     45
                      A                      A                      A
 Frequencies --   1438.2353              1449.4514              1503.7197
 Red. masses --      1.3426                 1.2506                 1.0483
 Frc consts  --      1.6363                 1.5480                 1.3966
 IR Inten    --     10.2196                11.8677                 2.0677

                     46                     47                     48
                      A                      A                      A
 Frequencies --   1512.1219              1520.3589              1527.6145
 Red. masses --      1.0467                 1.0865                 1.0473
 Frc consts  --      1.4101                 1.4797                 1.4399
 IR Inten    --      2.9659                12.2098                17.0275

                     49                     50                     51
                      A                      A                      A
 Frequencies --   1538.5281              1550.2673              1568.9134
 Red. masses --      1.0925                 1.0845                 1.1143
 Frc consts  --      1.5236                 1.5357                 1.6161
 IR Inten    --      3.3542                 3.7853                 5.1612

                     52                     53                     54
                      A                      A                      A
 Frequencies --   1720.6411              1749.8714              2994.7429
 Red. masses --      7.3168                 9.4644                 1.0716
 Frc consts  --     12.7629                17.0748                 5.6624
 IR Inten    --     74.3751               247.8127                50.4872

                     55                     56                     57
                      A                      A                      A
 Frequencies --   3009.1612              3032.0805              3038.6057
 Red. masses --      1.0729                 1.0395                 1.0417
 Frc consts  --      5.7241                 5.6308                 5.6666
 IR Inten    --     79.4334                14.0986                46.4724

                     58                     59                     60
                      A                      A                      A
 Frequencies --   3079.1900              3080.3953              3083.4061
 Red. masses --      1.0993                 1.0585                 1.0982
 Frc consts  --      6.1410                 5.9174                 6.1516
 IR Inten    --      2.3101                25.7048                39.4532

                     61                     62                     63
                      A                      A                      A
 Frequencies --   3120.3598              3134.7483              3144.8271
 Red. masses --      1.1073                 1.0999                 1.0953
 Frc consts  --      6.3523                 6.3682                 6.3821
 IR Inten    --     15.4778                18.7127                30.2423

                     64                     65                     66
                      A                      A                      A
 Frequencies --   3153.1360              3160.8704              3182.7398
 Red. masses --      1.0948                 1.0971                 1.0885
 Frc consts  --      6.4131                 6.4584                 6.4967
 IR Inten    --     13.6667                 9.7928                 7.7169

 - Thermochemistry -
 -------------------
 Temperature   298.150 Kelvin.  Pressure   1.00000 Atm.
 Atom     1 has atomic number  6 and mass  12.00000

 Molecular mass:   155.09463 amu.
 Principal axes and moments of inertia in atomic units:
                           1         2         3
     Eigenvalues --   921.943652558.513673052.58335
           X            0.99974   0.02107   0.00919
           Y           -0.02072   0.99911  -0.03682
           Z           -0.00996   0.03662   0.99928
 This molecule is an asymmetric top.
 Rotational symmetry number  1.
 Warning -- assumption of classical behavior for rotation
           may cause significant error
 Rotational temperatures (Kelvin)      0.09395     0.03385     0.02837
 Rotational constants (GHZ):           1.95754     0.70539     0.59122
 Zero-point vibrational energy     541926.9 (Joules/Mol)
                                  129.52363 (Kcal/Mol)
 Warning -- explicit consideration of  15 degrees of freedom as
           vibrations may cause significant error
 Vibrational temperatures:     77.86   113.75   128.07   153.85   242.40
          (Kelvin)            270.87   327.25   359.01   377.96   446.99
                              495.94   551.08   647.71   693.75   857.90
                              907.41   993.59  1084.21  1179.92  1231.81
                             1259.84  1287.23  1395.89  1405.20  1410.79
                             1469.38  1513.63  1584.82  1600.44  1611.85
                             1635.09  1674.18  1721.86  1763.10  1774.74
                             1800.90  1857.33  1950.63  1977.44  1993.14
                             2032.16  2063.45  2069.30  2085.44  2163.52
                             2175.61  2187.46  2197.90  2213.60  2230.49
                             2257.32  2475.62  2517.67  4308.77  4329.51
                             4362.49  4371.88  4430.27  4432.00  4436.33
                             4489.50  4510.20  4524.70  4536.66  4547.79
                             4579.25

 Zero-point correction=                           0.206409 (Hartree/Particle)
 Thermal correction to Energy=                    0.217809
 Thermal correction to Enthalpy=                  0.218754
 Thermal correction to Gibbs Free Energy=         0.168760
 Sum of electronic and zero-point Energies=           -517.689039
 Sum of electronic and thermal Energies=              -517.677638
 Sum of electronic and thermal Enthalpies=            -517.676694
 Sum of electronic and thermal Free Energies=         -517.726688

                     E (Thermal)             CV                S
                      KCal/Mol        Cal/Mol-Kelvin    Cal/Mol-Kelvin
 Total                  136.677             41.399            105.220
 Electronic               0.000              0.000              0.000
 Translational            0.889              2.981             41.026
 Rotational               0.889              2.981             30.355
 Vibrational            134.900             35.437             33.839
 Vibration     1          0.596              1.976              4.661
 Vibration     2          0.600              1.963              3.914
 Vibration     3          0.602              1.957              3.682
 Vibration     4          0.606              1.944              3.324
 Vibration     5          0.625              1.881              2.452
 Vibration     6          0.633              1.856              2.245
 Vibration     7          0.651              1.799              1.899
 Vibration     8          0.662              1.764              1.734
 Vibration     9          0.670              1.741              1.644
 Vibration    10          0.700              1.653              1.359
 Vibration    11          0.723              1.586              1.190
 Vibration    12          0.752              1.506              1.027
 Vibration    13          0.809              1.360              0.795
 Vibration    14          0.838              1.290              0.704
 Vibration    15          0.954              1.040              0.456

 Optimization completed.
    -- Stationary point found.
 Normal termination of Gaussian 16 at Tue Dec  8 19:23:47 2020.

 ----------------------------------------------------------------------
 # B3LYP/6-311++G(d,p) empiricaldispersion=gd3bj scf=xqc pop=npa geom=c
 heck
 ----------------------------------------------------------------------

 ---------------------------------------
 CID_131026368_JID_1195_Energie_neutraal
 ---------------------------------------
 Structure from the checkpoint file:  "JID_1195.chk"
 Charge =  0 Multiplicity = 1

 SCF Done:  E(RB3LYP) =  -518.045724697     A.U. after   15 cycles
 Normal termination of Gaussian 16 at Tue Dec  8 19:26:02 2020.

 ----------------------------------------------------------------------
 # B3LYP/6-311++G(d,p) empiricaldispersion=gd3bj scf=xqc pop=npa geom=c
 heck
 ----------------------------------------------------------------------

 -------------------------------------
 CID_131026368_JID_1195_Energie_kation
 -------------------------------------
 Structure from the checkpoint file:  "JID_1195.chk"
 Charge =  1 Multiplicity = 2

 SCF Done:  E(UB3LYP) =  -517.725653328     A.U. after   27 cycles
 Normal termination of Gaussian 16 at Tue Dec  8 19:31:52 2020.
 Gaussian 16:  ES64L-G16RevA.03 25-Dec-2016

 ----------------------------------------------------------------------
 # B3LYP/6-311++G(d,p) empiricaldispersion=gd3bj scf=xqc pop=npa geom=c
 heck
 ----------------------------------------------------------------------

 ------------------------------------
 CID_131026368_JID_1195_Energie_anion
 ------------------------------------
 Structure from the checkpoint file:  "JID_1195.chk"
 Charge = -1 Multiplicity = 2

                         Standard orientation:
 ---------------------------------------------------------------------
 Center     Atomic      Atomic             Coordinates (Angstroms)
 Number     Number       Type             X           Y           Z
 ---------------------------------------------------------------------
      1          6           0       -3.618535   -0.428429   -0.532670
      2          6           0       -2.240105   -0.185912    0.026808
      3          6           0       -1.432865    0.734082   -0.528414
      4          6           0       -0.090153    1.183067   -0.062676
      5          8           0        0.163617    2.379081    0.054456
      6          7           0        0.853900    0.222082    0.233782
      7          6           0        2.231696    0.659410    0.493140
      8          6           0        3.039203   -0.583683    0.083927
      9          8           0        2.209068   -1.251752   -0.864538
     10          6           0        0.902764   -1.123322   -0.349367
     11          6           0       -1.900066   -1.003605    1.246199
     12          1           0       -3.809949    0.171391   -1.426714
     13          1           0       -4.388519   -0.191236    0.213686
     14          1           0       -3.751419   -1.487546   -0.791885
     15          1           0       -1.812175    1.342358   -1.346306
     16          1           0        2.452629    1.535276   -0.123790
     17          1           0        2.377243    0.934671    1.542161
     18          1           0        3.987951   -0.348706   -0.401873
     19          1           0        3.230389   -1.235398    0.950902
     20          1           0        0.721136   -1.883860    0.426599
     21          1           0        0.178886   -1.241093   -1.156217
     22          1           0       -2.699749   -0.908341    1.991883
     23          1           0       -1.836857   -2.071419    0.995482
     24          1           0       -0.959981   -0.698953    1.708582
 ---------------------------------------------------------------------

 SCF Done:  E(UB3LYP) =  -518.033582481     A.U. after   33 cycles
 SCF Done:  E(UB3LYP) =  -518.033582481     a.u. after    1 cycles

 The electronic state is 2-A.
 Alpha  occ. eigenvalues --  -19.03814 -18.98449 -14.23929 -10.16896 -10.15074
 Alpha  occ. eigenvalues --  -10.12586 -10.10564 -10.09304 -10.06743 -10.06656
 Alpha  occ. eigenvalues --  -10.06305  -0.97221  -0.93206  -0.81895  -0.71957
 Alpha  occ. eigenvalues --   -0.66969  -0.61561  -0.59656  -0.56985  -0.53023
 Alpha  occ. eigenvalues --   -0.47735  -0.45144  -0.41656  -0.38860  -0.37695
 Alpha  occ. eigenvalues --   -0.36028  -0.34793  -0.33850  -0.33176  -0.31869
 Alpha  occ. eigenvalues --   -0.31229  -0.29720  -0.28801  -0.28084  -0.27731
 Alpha  occ. eigenvalues --   -0.26129  -0.25308  -0.24198  -0.18061  -0.16721
 Alpha  occ. eigenvalues --   -0.15246  -0.14324   0.04490
 Alpha virt. eigenvalues --    0.06548   0.07058   0.07992   0.09102   0.09296
 Alpha virt. eigenvalues --    0.09646   0.10162   0.11349   0.11727   0.12199
 Alpha virt. eigenvalues --    0.12863   0.13467   0.14616   0.15001   0.15315

  Beta  occ. eigenvalues --  -19.03809 -18.98441 -14.23927 -10.16890 -10.15036
  Beta  occ. eigenvalues --  -10.12550 -10.10548 -10.09269 -10.06731 -10.06612
  Beta  occ. eigenvalues --  -10.06264  -0.97209  -0.93191  -0.81877  -0.71891
  Beta  occ. eigenvalues --   -0.66919  -0.61507  -0.59575  -0.56937  -0.52940
  Beta  occ. eigenvalues --   -0.47677  -0.45071  -0.41621  -0.38801  -0.37637
  Beta  occ. eigenvalues --   -0.35977  -0.34756  -0.33772  -0.33135  -0.31825
  Beta  occ. eigenvalues --   -0.31184  -0.29679  -0.28743  -0.28041  -0.27678
  Beta  occ. eigenvalues --   -0.26083  -0.25267  -0.24158  -0.18026  -0.16664
  Beta  occ. eigenvalues --   -0.15198  -0.14258
  Beta virt. eigenvalues --    0.06938   0.07298   0.07637   0.08836   0.09663
  Beta virt. eigenvalues --    0.09847   0.10061   0.10866   0.11766   0.12271
  Beta virt. eigenvalues --    0.12565   0.13398   0.13715   0.14747   0.15133

 Mulliken charges and spin densities:
               1          2
     1  C    0.944147  -1.487278
     2  C   -0.985553   1.868173
     3  C    0.380519  -0.546528
     4  C   -0.025988  -0.525650
     5  O   -0.339314   0.011566
     6  N   -0.145645   0.210333
     7  C   -0.167241   0.014653
     8  C    1.115521  -1.435220
     9  O   -0.183379   0.059623
    10  C    0.447066  -0.762241
    11  C    0.372428  -1.059192
    12  H   -0.420262   0.575859
    13  H   -0.011167   0.148113
    14  H   -0.453107   0.616486
    15  H    0.100859   0.096410
    16  H    0.136805   0.029363
    17  H   -0.109757   0.300536
    18  H   -0.215740   0.387372
    19  H   -0.457563   0.606690
    20  H   -0.292333   0.493619
    21  H   -0.003310   0.198548
    22  H   -0.247765   0.392989
    23  H   -0.252909   0.431730
    24  H   -0.186312   0.374047
 Sum of Mulliken charges =  -1.00000   1.00000

 Dipole moment (field-independent basis, Debye):
    X=              1.5407    Y=              2.8380    Z=             -0.8759  Tot=              3.3459
 Quadrupole moment (field-independent basis, Debye-Ang):
   XX=           -126.0269   YY=           -113.7938   ZZ=            -98.2476
   XY=             -3.8304   XZ=             -5.4807   YZ=              1.1214

 Summary of Natural Population Analysis:

                                       Natural Population
                Natural  -----------------------------------------------
    Atom  No    Charge         Core      Valence    Rydberg      Total
 -----------------------------------------------------------------------
      C    1   -0.29744      0.99962     2.29164    0.00619     3.29744
      C    2    0.02776      0.99952     1.96321    0.00951     2.97224
      C    3   -0.15580      0.99941     2.14572    0.01068     3.15580
      C    4    0.33678      0.99961     1.64171    0.02190     2.66322
      O    5   -0.32098      0.99988     3.31592    0.00518     4.32098
      N    6   -0.26613      0.99965     2.75590    0.01058     3.76613
      C    7   -0.09740      0.99962     2.08666    0.01112     3.09740
      C    8   -0.01682      0.99960     2.00533    0.01188     3.01682
      O    9   -0.29206      0.99989     3.28323    0.00893     4.29206
      C   10    0.08443      0.99961     1.90084    0.01513     2.91557
      C   11   -0.30889      0.99961     2.30247    0.00680     3.30889
      H   12    0.10188      0.00000     0.39698    0.00114     0.39812
      H   13    0.10232      0.00000     0.39663    0.00105     0.39768
      H   14    0.10959      0.00000     0.38757    0.00284     0.39041
      H   15    0.10532      0.00000     0.39370    0.00098     0.39468
      H   16    0.10391      0.00000     0.39488    0.00122     0.39609
      H   17    0.10056      0.00000     0.39826    0.00118     0.39944
      H   18    0.09372      0.00000     0.40497    0.00131     0.40628
      H   19    0.08350      0.00000     0.41387    0.00263     0.41650
      H   20    0.08072      0.00000     0.41685    0.00243     0.41928
      H   21    0.09988      0.00000     0.39815    0.00197     0.40012
      H   22    0.10454      0.00000     0.39443    0.00103     0.39546
      H   23    0.11183      0.00000     0.38522    0.00295     0.38817
      H   24    0.10881      0.00000     0.38948    0.00172     0.39119
 =======================================================================
   * Total *   -0.00000     10.99604    30.86360    0.14036    42.00000

 Normal termination of Gaussian 16 at Tue Dec  8 19:39:02 2020.
