 Gaussian 16, Revision A.03,

 -----------------------------------------------------------
 # opt freq B3LYP/6-31G(d) empiricaldispersion=gd3bj scf=xqc
 -----------------------------------------------------------

 -------------------------------
 CID_104167219_JID_3935_neutraal
 -------------------------------
 Symbolic Z-matrix:
 Charge =  0 Multiplicity = 1

 SCF Done:  E(RB3LYP) =  -921.913660659     A.U. after   13 cycles
 SCF Done:  E(RB3LYP) =  -921.917265376     A.U. after   11 cycles
 SCF Done:  E(RB3LYP) =  -921.917811617     A.U. after   11 cycles
 SCF Done:  E(RB3LYP) =  -921.918100854     A.U. after   11 cycles
 SCF Done:  E(RB3LYP) =  -921.918311094     A.U. after   10 cycles
 SCF Done:  E(RB3LYP) =  -921.918372843     A.U. after   10 cycles
 SCF Done:  E(RB3LYP) =  -921.918400180     A.U. after    9 cycles
 SCF Done:  E(RB3LYP) =  -921.918430467     A.U. after   10 cycles
 SCF Done:  E(RB3LYP) =  -921.918472162     A.U. after   10 cycles
 SCF Done:  E(RB3LYP) =  -921.918514463     A.U. after   10 cycles
 SCF Done:  E(RB3LYP) =  -921.918508284     A.U. after   10 cycles
 SCF Done:  E(RB3LYP) =  -921.918554498     A.U. after   10 cycles
 SCF Done:  E(RB3LYP) =  -921.918546834     A.U. after    9 cycles
 SCF Done:  E(RB3LYP) =  -921.918555252     A.U. after    9 cycles
 SCF Done:  E(RB3LYP) =  -921.918554842     A.U. after    8 cycles
 SCF Done:  E(RB3LYP) =  -921.918555307     A.U. after    8 cycles
 Optimization completed.
    -- Stationary point found.
 Normal termination of Gaussian 16 at Mon Dec 14 16:37:07 2020.

 --------------------------------------------------------------------
 #N Geom=AllCheck Guess=TCheck SCRF=Check GenChk RB3LYP/6-31G(d) Freq
 --------------------------------------------------------------------

 Structure from the checkpoint file:  "JID_3935.chk"
 -------------------------------
 CID_104167219_JID_3935_neutraal
 -------------------------------
 Charge =  0 Multiplicity = 1

 SCF Done:  E(RB3LYP) =  -921.918555307     A.U. after    1 cycles

  Exact polarizability: 152.120   0.336 125.656   4.071   0.127 114.789
 Approx polarizability: 183.212   5.034 186.298   7.760  -0.277 179.743

                      1                      2                      3
                      A                      A                      A
 Frequencies --     27.9020                32.0582                60.7622
 Red. masses --      3.7674                 3.9295                 3.7638
 Frc consts  --      0.0017                 0.0024                 0.0082
 IR Inten    --      0.3898                 0.5914                 0.1000

                      4                      5                      6
                      A                      A                      A
 Frequencies --     83.0517               112.6779               126.1353
 Red. masses --      1.9848                 3.1606                 3.5123
 Frc consts  --      0.0081                 0.0236                 0.0329
 IR Inten    --      2.7590                 1.1042                 0.5244

                      7                      8                      9
                      A                      A                      A
 Frequencies --    168.4049               177.6740               201.7832
 Red. masses --      2.1469                 1.7456                 2.2929
 Frc consts  --      0.0359                 0.0325                 0.0550
 IR Inten    --      1.7533                 3.2055                 1.6060

                     10                     11                     12
                      A                      A                      A
 Frequencies --    260.6247               271.0192               284.2843
 Red. masses --      3.0138                 1.4715                 1.7665
 Frc consts  --      0.1206                 0.0637                 0.0841
 IR Inten    --      6.6872                 0.4578                 0.4118

                     13                     14                     15
                      A                      A                      A
 Frequencies --    316.0346               333.4696               365.4991
 Red. masses --      1.9495                 2.6596                 2.1159
 Frc consts  --      0.1147                 0.1743                 0.1665
 IR Inten    --      0.5865                 1.2407                 0.8696

                     16                     17                     18
                      A                      A                      A
 Frequencies --    376.8791               387.7284               442.8935
 Red. masses --      2.9522                 2.5398                 2.8386
 Frc consts  --      0.2471                 0.2250                 0.3281
 IR Inten    --      2.4970                 6.5645                 4.1941

                     19                     20                     21
                      A                      A                      A
 Frequencies --    455.8648               518.5814               563.8270
 Red. masses --      2.7619                 2.4496                 3.1720
 Frc consts  --      0.3382                 0.3881                 0.5941
 IR Inten    --      3.7087                 0.8258                 2.1693

                     22                     23                     24
                      A                      A                      A
 Frequencies --    626.9513               673.4168               679.4548
 Red. masses --      2.7631                 2.4663                 3.9843
 Frc consts  --      0.6399                 0.6590                 1.0837
 IR Inten    --     11.3907                 0.7812                 2.0258

                     25                     26                     27
                      A                      A                      A
 Frequencies --    785.3882               802.1528               821.6592
 Red. masses --      3.2009                 1.5076                 1.6909
 Frc consts  --      1.1633                 0.5715                 0.6726
 IR Inten    --     37.6982                38.4017                26.9310

                     28                     29                     30
                      A                      A                      A
 Frequencies --    834.9164               890.8927               897.9447
 Red. masses --      2.2724                 1.5467                 2.0444
 Frc consts  --      0.9333                 0.7233                 0.9712
 IR Inten    --     14.6237                 4.3865                14.1586

                     31                     32                     33
                      A                      A                      A
 Frequencies --    926.9303               936.6930               948.4922
 Red. masses --      1.7408                 2.2878                 2.2286
 Frc consts  --      0.8812                 1.1827                 1.1813
 IR Inten    --      2.2286                25.2716                 4.8724

                     34                     35                     36
                      A                      A                      A
 Frequencies --    986.8266               996.3977              1036.2162
 Red. masses --      1.8934                 2.0926                 1.7738
 Frc consts  --      1.0863                 1.2241                 1.1221
 IR Inten    --     14.3880                 9.2015                 5.7947

                     37                     38                     39
                      A                      A                      A
 Frequencies --   1049.6755              1057.4816              1098.1996
 Red. masses --      2.0119                 1.9267                 1.5117
 Frc consts  --      1.3061                 1.2694                 1.0742
 IR Inten    --     12.9012                54.4368                 2.5741

                     40                     41                     42
                      A                      A                      A
 Frequencies --   1109.2658              1115.9054              1148.9274
 Red. masses --      2.3016                 2.6396                 1.7609
 Frc consts  --      1.6686                 1.9366                 1.3695
 IR Inten    --      8.3189                38.7074                14.2447

                     43                     44                     45
                      A                      A                      A
 Frequencies --   1163.7518              1187.0227              1193.9008
 Red. masses --      1.3560                 2.7100                 1.3168
 Frc consts  --      1.0820                 2.2498                 1.1059
 IR Inten    --      0.5924                25.4005                 9.3931

                     46                     47                     48
                      A                      A                      A
 Frequencies --   1198.8894              1207.4455              1237.0116
 Red. masses --      1.4159                 2.1670                 1.4441
 Frc consts  --      1.1991                 1.8614                 1.3019
 IR Inten    --      7.4385                58.0925                 1.3409

                     49                     50                     51
                      A                      A                      A
 Frequencies --   1260.7173              1279.8586              1292.6350
 Red. masses --      1.4618                 1.3119                 1.2620
 Frc consts  --      1.3689                 1.2661                 1.2424
 IR Inten    --     32.8619                 5.1115                 5.6318

                     52                     53                     54
                      A                      A                      A
 Frequencies --   1313.7067              1327.3706              1345.3301
 Red. masses --      1.2838                 1.2649                 1.2095
 Frc consts  --      1.3054                 1.3131                 1.2898
 IR Inten    --      5.0888                 7.6313                24.5148

                     55                     56                     57
                      A                      A                      A
 Frequencies --   1361.1501              1377.4899              1391.4641
 Red. masses --      1.2055                 1.4582                 1.3573
 Frc consts  --      1.3159                 1.6302                 1.5483
 IR Inten    --     10.6310                12.4633                 0.7792

                     58                     59                     60
                      A                      A                      A
 Frequencies --   1404.4678              1409.8319              1410.5146
 Red. masses --      1.4254                 1.3066                 1.3487
 Frc consts  --      1.6566                 1.5302                 1.5809
 IR Inten    --      9.0913                 0.8728                 3.3431

                     61                     62                     63
                      A                      A                      A
 Frequencies --   1416.3597              1425.9984              1436.7007
 Red. masses --      1.3553                 1.2245                 1.3169
 Frc consts  --      1.6018                 1.4671                 1.6016
 IR Inten    --      3.0612                 8.2003                18.4814

                     64                     65                     66
                      A                      A                      A
 Frequencies --   1496.0908              1497.3943              1505.0958
 Red. masses --      1.1120                 1.1094                 1.0931
 Frc consts  --      1.4664                 1.4656                 1.4589
 IR Inten    --      4.1591                 4.0248                 3.3370

                     67                     68                     69
                      A                      A                      A
 Frequencies --   1511.6160              1512.6868              1514.2862
 Red. masses --      1.0815                 1.0949                 1.0609
 Frc consts  --      1.4560                 1.4762                 1.4333
 IR Inten    --      4.4103                 5.0010                 3.5533

                     70                     71                     72
                      A                      A                      A
 Frequencies --   1516.1324              1522.5656              1529.3924
 Red. masses --      1.0917                 1.0754                 1.0943
 Frc consts  --      1.4785                 1.4688                 1.5081
 IR Inten    --      4.6622                 4.6355                 5.2730

                     73                     74                     75
                      A                      A                      A
 Frequencies --   1536.4564              1549.8377              1554.6146
 Red. masses --      1.1330                 1.0758                 1.0515
 Frc consts  --      1.5759                 1.5225                 1.4972
 IR Inten    --     25.4212                 5.9235                 8.0142

                     76                     77                     78
                      A                      A                      A
 Frequencies --   2940.7676              3013.5243              3028.8270
 Red. masses --      1.0721                 1.0453                 1.0643
 Frc consts  --      5.4629                 5.5931                 5.7526
 IR Inten    --     59.1510                71.0071                14.6200

                     79                     80                     81
                      A                      A                      A
 Frequencies --   3034.1905              3036.4700              3043.1501
 Red. masses --      1.0627                 1.0618                 1.0667
 Frc consts  --      5.7642                 5.7681                 5.8200
 IR Inten    --     18.6436                45.2931                38.4314

                     82                     83                     84
                      A                      A                      A
 Frequencies --   3050.2185              3057.0578              3057.8388
 Red. masses --      1.0839                 1.0675                 1.0380
 Frc consts  --      5.9418                 5.8781                 5.7186
 IR Inten    --     37.3257                11.6041                14.0150

                     85                     86                     87
                      A                      A                      A
 Frequencies --   3072.5067              3076.2168              3077.7880
 Red. masses --      1.0937                 1.0924                 1.0893
 Frc consts  --      6.0831                 6.0907                 6.0798
 IR Inten    --     26.3515                21.8099                18.8107

                     88                     89                     90
                      A                      A                      A
 Frequencies --   3080.3394              3087.9978              3094.4121
 Red. masses --      1.0947                 1.1003                 1.0864
 Frc consts  --      6.1197                 6.1820                 6.1291
 IR Inten    --     15.9095                54.9096                48.4401

                     91                     92                     93
                      A                      A                      A
 Frequencies --   3096.4394              3117.7224              3124.4760
 Red. masses --      1.0955                 1.1028                 1.1011
 Frc consts  --      6.1886                 6.3156                 6.3336
 IR Inten    --     66.0656                17.2201                28.6940

                     94                     95                     96
                      A                      A                      A
 Frequencies --   3134.3152              3136.4941              3486.6108
 Red. masses --      1.1035                 1.1061                 1.0726
 Frc consts  --      6.3869                 6.4109                 7.6826
 IR Inten    --     16.3004                39.4084                 2.4952

 - Thermochemistry -
 -------------------
 Temperature   298.150 Kelvin.  Pressure   1.00000 Atm.
 Atom     1 has atomic number  6 and mass  12.00000

 Molecular mass:   203.13439 amu.
 Principal axes and moments of inertia in atomic units:
                           1         2         3
     Eigenvalues --  1203.454606024.169026410.95752
           X            0.99991  -0.01343  -0.00152
           Y            0.01346   0.99963   0.02348
           Z            0.00120  -0.02349   0.99972
 This molecule is an asymmetric top.
 Rotational symmetry number  1.
 Warning -- assumption of classical behavior for rotation
           may cause significant error
 Rotational temperatures (Kelvin)      0.07197     0.01438     0.01351
 Rotational constants (GHZ):           1.49963     0.29958     0.28151
 Zero-point vibrational energy     811822.3 (Joules/Mol)
                                  194.03019 (Kcal/Mol)
 Warning -- explicit consideration of  21 degrees of freedom as
           vibrations may cause significant error
 Vibrational temperatures:     40.14    46.12    87.42   119.49   162.12
          (Kelvin)            181.48   242.30   255.63   290.32   374.98
                              389.94   409.02   454.70   479.79   525.87
                              542.24   557.85   637.22   655.89   746.12
                              811.22   902.04   968.90   977.58  1130.00
                             1154.12  1182.18  1201.26  1281.80  1291.94
                             1333.65  1347.69  1364.67  1419.82  1433.59
                             1490.88  1510.25  1521.48  1580.06  1595.99
                             1605.54  1653.05  1674.38  1707.86  1717.76
                             1724.93  1737.24  1779.78  1813.89  1841.43
                             1859.81  1890.13  1909.79  1935.63  1958.39
                             1981.90  2002.01  2020.72  2028.43  2029.42
                             2037.83  2051.69  2067.09  2152.54  2154.42
                             2165.50  2174.88  2176.42  2178.72  2181.38
                             2190.63  2200.45  2210.62  2229.87  2236.74
                             4231.11  4335.79  4357.81  4365.52  4368.80
                             4378.41  4388.58  4398.42  4399.55  4420.65
                             4425.99  4428.25  4431.92  4442.94  4452.17
                             4455.09  4485.71  4495.42  4509.58  4512.72
                             5016.46

 Zero-point correction=                           0.309207 (Hartree/Particle)
 Thermal correction to Energy=                    0.324100
 Thermal correction to Enthalpy=                  0.325044
 Thermal correction to Gibbs Free Energy=         0.266032
 Sum of electronic and zero-point Energies=           -921.609349
 Sum of electronic and thermal Energies=              -921.594455
 Sum of electronic and thermal Enthalpies=            -921.593511
 Sum of electronic and thermal Free Energies=         -921.652523

                     E (Thermal)             CV                S
                      KCal/Mol        Cal/Mol-Kelvin    Cal/Mol-Kelvin
 Total                  203.376             55.696            124.202
 Electronic               0.000              0.000              0.000
 Translational            0.889              2.981             41.830
 Rotational               0.889              2.981             32.208
 Vibrational            201.598             49.734             50.163
 Vibration     1          0.593              1.984              5.973
 Vibration     2          0.594              1.983              5.698
 Vibration     3          0.597              1.973              4.432
 Vibration     4          0.600              1.961              3.817
 Vibration     5          0.607              1.939              3.222
 Vibration     6          0.611              1.927              3.004
 Vibration     7          0.625              1.881              2.453
 Vibration     8          0.628              1.870              2.353
 Vibration     9          0.639              1.837              2.117
 Vibration    10          0.669              1.745              1.658
 Vibration    11          0.675              1.727              1.590
 Vibration    12          0.683              1.703              1.508
 Vibration    13          0.703              1.643              1.331
 Vibration    14          0.715              1.609              1.243
 Vibration    15          0.739              1.543              1.099
 Vibration    16          0.747              1.519              1.052
 Vibration    17          0.756              1.496              1.009
 Vibration    18          0.803              1.377              0.818
 Vibration    19          0.814              1.348              0.778
 Vibration    20          0.874              1.209              0.613
 Vibration    21          0.920              1.110              0.516

 Optimization completed.
    -- Stationary point found.
 Normal termination of Gaussian 16 at Mon Dec 14 16:45:59 2020.

 ----------------------------------------------------------------------
 # B3LYP/6-311++G(d,p) empiricaldispersion=gd3bj scf=xqc pop=npa geom=c
 heck
 ----------------------------------------------------------------------

 ---------------------------------------
 CID_104167219_JID_3935_Energie_neutraal
 ---------------------------------------
 Structure from the checkpoint file:  "JID_3935.chk"
 Charge =  0 Multiplicity = 1

 SCF Done:  E(RB3LYP) =  -922.097276342     A.U. after   14 cycles
 Normal termination of Gaussian 16 at Mon Dec 14 16:50:38 2020.

 ----------------------------------------------------------------------
 # B3LYP/6-311++G(d,p) empiricaldispersion=gd3bj scf=xqc pop=npa geom=c
 heck
 ----------------------------------------------------------------------

 -------------------------------------
 CID_104167219_JID_3935_Energie_kation
 -------------------------------------
 Structure from the checkpoint file:  "JID_3935.chk"
 Charge =  1 Multiplicity = 2

 SCF Done:  E(UB3LYP) =  -921.811728092     A.U. after   22 cycles
 Normal termination of Gaussian 16 at Mon Dec 14 17:00:58 2020.
 Gaussian 16:  ES64L-G16RevA.03 25-Dec-2016

 ----------------------------------------------------------------------
 # B3LYP/6-311++G(d,p) empiricaldispersion=gd3bj scf=xqc pop=npa geom=c
 heck
 ----------------------------------------------------------------------

 ------------------------------------
 CID_104167219_JID_3935_Energie_anion
 ------------------------------------
 Structure from the checkpoint file:  "JID_3935.chk"
 Charge = -1 Multiplicity = 2

                         Standard orientation:
 ---------------------------------------------------------------------
 Center     Atomic      Atomic             Coordinates (Angstroms)
 Number     Number       Type             X           Y           Z
 ---------------------------------------------------------------------
      1          6           0       -3.244399    1.653718    0.128333
      2          6           0       -3.204751    0.342774   -0.661413
      3          6           0       -1.775058   -0.176333   -0.890874
      4          7           0       -0.984225   -0.278982    0.335378
      5          6           0        0.271316   -1.000561    0.183711
      6          6           0        1.293922   -0.407350   -0.810399
      7          6           0        2.571285   -1.251564   -0.934659
      8          6           0        3.465475   -1.251446    0.314627
      9          6           0        3.945783    0.151140    0.708802
     10          6           0        2.789686    1.102322    1.018927
     11         16           0        1.682399    1.357625   -0.424727
     12          8           0       -4.084220   -0.654712   -0.148706
     13          6           0       -3.950394   -0.992995    1.224035
     14          1           0       -2.826230    1.540092    1.133181
     15          1           0       -4.276846    2.003292    0.227228
     16          1           0       -2.666442    2.425551   -0.392776
     17          1           0       -3.614726    0.538841   -1.660208
     18          1           0       -1.854854   -1.179117   -1.327188
     19          1           0       -1.305583    0.472238   -1.654492
     20          1           0       -0.765947    0.659457    0.667561
     21          1           0        0.727090   -1.083886    1.176580
     22          1           0        0.039187   -2.024575   -0.141294
     23          1           0        0.824506   -0.348237   -1.797949
     24          1           0        3.151845   -0.882429   -1.788742
     25          1           0        2.278517   -2.284119   -1.171552
     26          1           0        2.930330   -1.702072    1.161196
     27          1           0        4.334245   -1.893622    0.126750
     28          1           0        4.593765    0.082956    1.593058
     29          1           0        4.549852    0.575743   -0.102979
     30          1           0        2.204818    0.735280    1.870336
     31          1           0        3.155808    2.099836    1.279601
     32          1           0       -2.923664   -1.272989    1.479358
     33          1           0       -4.266495   -0.170937    1.883690
     34          1           0       -4.621410   -1.840959    1.389735
 ---------------------------------------------------------------------

 SCF Done:  E(UB3LYP) =  -922.083393488     A.U. after   29 cycles

 The electronic state is 2-A.
 Alpha  occ. eigenvalues --  -88.73560 -19.02626 -14.20099 -10.12999 -10.10892
 Alpha  occ. eigenvalues --  -10.10356 -10.09804 -10.09781 -10.09638 -10.07355
 Alpha  occ. eigenvalues --  -10.07151 -10.07023 -10.06746  -7.82198  -5.78567
 Alpha  occ. eigenvalues --   -5.78230  -5.77586  -0.93645  -0.81516  -0.73899
 Alpha  occ. eigenvalues --   -0.68609  -0.66390  -0.65135  -0.60294  -0.59383
 Alpha  occ. eigenvalues --   -0.55368  -0.52250  -0.50738  -0.47605  -0.44209
 Alpha  occ. eigenvalues --   -0.41307  -0.40428  -0.37997  -0.36557  -0.36388
 Alpha  occ. eigenvalues --   -0.35514  -0.34938  -0.32671  -0.32384  -0.31908
 Alpha  occ. eigenvalues --   -0.31098  -0.30275  -0.29925  -0.28608  -0.27557
 Alpha  occ. eigenvalues --   -0.26781  -0.26281  -0.25682  -0.24950  -0.23259
 Alpha  occ. eigenvalues --   -0.21411  -0.21166  -0.19776  -0.17074  -0.13096
 Alpha  occ. eigenvalues --   -0.12594   0.04328
 Alpha virt. eigenvalues --    0.06122   0.06673   0.07358   0.08087   0.08411
 Alpha virt. eigenvalues --    0.08429   0.09527   0.09850   0.10327   0.10752
 Alpha virt. eigenvalues --    0.11069   0.11224   0.11944   0.12986   0.13266

  Beta  occ. eigenvalues --  -88.73556 -19.02625 -14.20090 -10.12994 -10.10878
  Beta  occ. eigenvalues --  -10.10354 -10.09784 -10.09770 -10.09607 -10.07338
  Beta  occ. eigenvalues --  -10.07129 -10.06997 -10.06720  -7.82194  -5.78560
  Beta  occ. eigenvalues --   -5.78228  -5.77583  -0.93640  -0.81501  -0.73864
  Beta  occ. eigenvalues --   -0.68584  -0.66353  -0.65092  -0.60258  -0.59353
  Beta  occ. eigenvalues --   -0.55327  -0.52186  -0.50683  -0.47571  -0.44155
  Beta  occ. eigenvalues --   -0.41288  -0.40393  -0.37937  -0.36532  -0.36363
  Beta  occ. eigenvalues --   -0.35487  -0.34894  -0.32642  -0.32355  -0.31875
  Beta  occ. eigenvalues --   -0.31062  -0.30247  -0.29900  -0.28567  -0.27527
  Beta  occ. eigenvalues --   -0.26749  -0.26245  -0.25653  -0.24916  -0.23216
  Beta  occ. eigenvalues --   -0.21385  -0.21128  -0.19746  -0.17064  -0.13080
  Beta  occ. eigenvalues --   -0.12574
  Beta virt. eigenvalues --    0.06235   0.07060   0.07198   0.07804   0.08653
  Beta virt. eigenvalues --    0.08808   0.08972   0.09821   0.10166   0.10728
  Beta virt. eigenvalues --    0.11055   0.11333   0.11444   0.12276   0.13325

 Mulliken charges and spin densities:
               1          2
     1  C    0.661394  -1.232357
     2  C   -1.487545   1.224028
     3  C    0.432694  -0.754202
     4  N   -0.069499   0.122721
     5  C    0.268626  -1.406154
     6  C   -0.075157   0.909453
     7  C    0.032475  -0.680256
     8  C   -0.004074  -0.214069
     9  C    0.499723  -0.954634
    10  C    0.197771  -0.610692
    11  S    0.050112  -0.112154
    12  O   -0.100440   0.001785
    13  C    0.234937  -0.531520
    14  H   -0.036247   0.200101
    15  H   -0.085103   0.251056
    16  H   -0.017118   0.149112
    17  H   -0.130558   0.330036
    18  H    0.036070   0.166093
    19  H    0.141842  -0.039424
    20  H    0.128273   0.097397
    21  H    0.117338   0.108493
    22  H    0.085141   0.066110
    23  H    0.059982   0.209936
    24  H   -0.170710   0.321334
    25  H   -0.176070   0.328018
    26  H   -0.195522   0.323785
    27  H   -0.546910   0.735703
    28  H   -0.489333   0.666177
    29  H    0.066263   0.050256
    30  H   -0.141173   0.319903
    31  H   -0.285093   0.502100
    32  H    0.058012   0.142423
    33  H   -0.087256   0.202849
    34  H    0.027157   0.106592
 Sum of Mulliken charges =  -1.00000   1.00000

 Dipole moment (field-independent basis, Debye):
    X=             -4.1773    Y=              0.9872    Z=             -2.1288  Tot=              4.7912
 Quadrupole moment (field-independent basis, Debye-Ang):
   XX=           -187.4814   YY=           -133.5330   ZZ=           -125.9276
   XY=              7.1016   XZ=             -7.4772   YZ=             -3.0246

 Summary of Natural Population Analysis:

                                       Natural Population
                Natural  -----------------------------------------------
    Atom  No    Charge         Core      Valence    Rydberg      Total
 -----------------------------------------------------------------------
      C    1   -0.30820      0.99964     2.30241    0.00614     3.30820
      C    2    0.06749      0.99955     1.91833    0.01464     2.93251
      C    3   -0.09914      0.99959     2.08971    0.00984     3.09914
      N    4   -0.34834      0.99974     2.83708    0.01151     3.84834
      C    5   -0.09072      0.99958     2.07821    0.01294     3.09072
      C    6   -0.17281      0.99956     2.16069    0.01257     3.17281
      C    7   -0.19443      0.99960     2.18394    0.01090     3.19443
      C    8   -0.19168      0.99962     2.18243    0.00963     3.19168
      C    9   -0.19481      0.99962     2.18560    0.00960     3.19481
      C   10   -0.24999      0.99959     2.23871    0.01169     3.24999
      S   11    0.07866      4.99962     2.90544    0.01628     7.92134
      O   12   -0.30644      0.99988     3.29613    0.01043     4.30644
      C   13   -0.10423      0.99960     2.09589    0.00874     3.10423
      H   14    0.10144      0.00000     0.39728    0.00128     0.39856
      H   15    0.10290      0.00000     0.39614    0.00097     0.39710
      H   16    0.10455      0.00000     0.39438    0.00107     0.39545
      H   17    0.08843      0.00000     0.41010    0.00147     0.41157
      H   18    0.09789      0.00000     0.40068    0.00143     0.40211
      H   19    0.08234      0.00000     0.41607    0.00159     0.41766
      H   20    0.17813      0.00000     0.31766    0.00420     0.32187
      H   21    0.09675      0.00000     0.40173    0.00152     0.40325
      H   22    0.09523      0.00000     0.40333    0.00145     0.40477
      H   23    0.10491      0.00000     0.39379    0.00131     0.39509
      H   24    0.10028      0.00000     0.39839    0.00132     0.39972
      H   25    0.10245      0.00000     0.39601    0.00155     0.39755
      H   26    0.09484      0.00000     0.40339    0.00177     0.40516
      H   27    0.10315      0.00000     0.39497    0.00188     0.39685
      H   28    0.10352      0.00000     0.39432    0.00216     0.39648
      H   29    0.09613      0.00000     0.40239    0.00148     0.40387
      H   30    0.09872      0.00000     0.39949    0.00179     0.40128
      H   31    0.10840      0.00000     0.39031    0.00129     0.39160
      H   32    0.09503      0.00000     0.40327    0.00170     0.40497
      H   33    0.07522      0.00000     0.42317    0.00160     0.42478
      H   34    0.08436      0.00000     0.41452    0.00112     0.41564
 =======================================================================
   * Total *    0.00000     16.99519    38.82595    0.17886    56.00000

 Normal termination of Gaussian 16 at Mon Dec 14 17:14:17 2020.
