 Gaussian 16, Revision A.03,

 -----------------------------------------------------------
 # opt freq B3LYP/6-31G(d) empiricaldispersion=gd3bj scf=xqc
 -----------------------------------------------------------

 -------------------------------
 CID_104808218_JID_6571_neutraal
 -------------------------------
 Symbolic Z-matrix:
 Charge =  0 Multiplicity = 1

 SCF Done:  E(RB3LYP) =  -694.743561698     A.U. after   15 cycles
 SCF Done:  E(RB3LYP) =  -694.765277032     A.U. after   13 cycles
 SCF Done:  E(RB3LYP) =  -694.764051209     A.U. after   14 cycles
 SCF Done:  E(RB3LYP) =  -694.763948761     A.U. after   13 cycles
 SCF Done:  E(RB3LYP) =  -694.765258391     A.U. after   13 cycles
 SCF Done:  E(RB3LYP) =  -694.767262745     A.U. after   11 cycles
 SCF Done:  E(RB3LYP) =  -694.767571956     A.U. after   12 cycles
 SCF Done:  E(RB3LYP) =  -694.767902126     A.U. after   12 cycles
 SCF Done:  E(RB3LYP) =  -694.768431862     A.U. after   12 cycles
 SCF Done:  E(RB3LYP) =  -694.768746457     A.U. after   12 cycles
 SCF Done:  E(RB3LYP) =  -694.769289255     A.U. after    9 cycles
 SCF Done:  E(RB3LYP) =  -694.769289526     A.U. after    8 cycles
 SCF Done:  E(RB3LYP) =  -694.769289794     A.U. after    9 cycles
 SCF Done:  E(RB3LYP) =  -694.769289862     A.U. after    7 cycles
 SCF Done:  E(RB3LYP) =  -694.769289894     A.U. after    7 cycles
 Optimization completed.
    -- Stationary point found.
 Normal termination of Gaussian 16 at Fri Dec 11 00:05:02 2020.

 --------------------------------------------------------------------
 #N Geom=AllCheck Guess=TCheck SCRF=Check GenChk RB3LYP/6-31G(d) Freq
 --------------------------------------------------------------------

 Structure from the checkpoint file:  "JID_6571.chk"
 -------------------------------
 CID_104808218_JID_6571_neutraal
 -------------------------------
 Charge =  0 Multiplicity = 1

 SCF Done:  E(RB3LYP) =  -694.769289894     A.U. after    1 cycles

  Exact polarizability: 179.785  13.175 128.409  17.187 -15.088 125.919
 Approx polarizability: 273.561  29.819 193.942  42.058 -30.742 194.760

                      1                      2                      3
                      A                      A                      A
 Frequencies --     28.6771                31.8019                43.8205
 Red. masses --      1.0490                 3.8401                 3.6848
 Frc consts  --      0.0005                 0.0023                 0.0042
 IR Inten    --      0.2916                 0.1802                 0.1031

                      4                      5                      6
                      A                      A                      A
 Frequencies --     49.9383                62.2651                70.4882
 Red. masses --      1.0641                 3.8607                 3.2391
 Frc consts  --      0.0016                 0.0088                 0.0095
 IR Inten    --      0.0579                 2.0011                 0.6292

                      7                      8                      9
                      A                      A                      A
 Frequencies --     87.5511               127.1781               152.3663
 Red. masses --      3.6327                 3.6108                 3.7575
 Frc consts  --      0.0164                 0.0344                 0.0514
 IR Inten    --      0.4997                 0.3177                 0.2669

                     10                     11                     12
                      A                      A                      A
 Frequencies --    194.1911               216.5154               238.8135
 Red. masses --      2.5436                 2.9898                 1.5840
 Frc consts  --      0.0565                 0.0826                 0.0532
 IR Inten    --      0.1995                 7.1444                 1.0448

                     13                     14                     15
                      A                      A                      A
 Frequencies --    246.3833               270.6546               292.0392
 Red. masses --      2.2705                 3.0088                 3.2014
 Frc consts  --      0.0812                 0.1299                 0.1609
 IR Inten    --      4.0056                 3.1620                 1.6475

                     16                     17                     18
                      A                      A                      A
 Frequencies --    334.0619               345.9301               364.1313
 Red. masses --      4.7233                 3.3721                 3.9281
 Frc consts  --      0.3106                 0.2378                 0.3069
 IR Inten    --      1.7135                 2.6973                 2.5842

                     19                     20                     21
                      A                      A                      A
 Frequencies --    375.1897               405.5227               432.6592
 Red. masses --      3.4157                 4.2176                 3.3397
 Frc consts  --      0.2833                 0.4086                 0.3683
 IR Inten    --      0.2486                 6.1897                 2.7582

                     22                     23                     24
                      A                      A                      A
 Frequencies --    469.9716               494.1442               506.1735
 Red. masses --      2.5613                 3.0819                 1.8779
 Frc consts  --      0.3333                 0.4434                 0.2835
 IR Inten    --     10.8105                 2.5211                35.0362

                     25                     26                     27
                      A                      A                      A
 Frequencies --    528.3391               555.6040               601.5919
 Red. masses --      2.1530                 2.7212                 3.4462
 Frc consts  --      0.3541                 0.4949                 0.7348
 IR Inten    --     98.7587                 3.7962                 1.1744

                     28                     29                     30
                      A                      A                      A
 Frequencies --    658.6640               708.8572               731.9488
 Red. masses --      3.7312                 3.2962                 3.9825
 Frc consts  --      0.9537                 0.9759                 1.2571
 IR Inten    --      2.2853                 0.8837                 0.3111

                     31                     32                     33
                      A                      A                      A
 Frequencies --    738.5700               761.1227               817.8734
 Red. masses --      4.0263                 3.7367                 1.5293
 Frc consts  --      1.2940                 1.2754                 0.6027
 IR Inten    --      6.4565                 5.2368                27.7170

                     34                     35                     36
                      A                      A                      A
 Frequencies --    879.0779               894.8636               904.7201
 Red. masses --      2.8738                 2.4830                 1.3305
 Frc consts  --      1.3085                 1.1715                 0.6416
 IR Inten    --      5.8031                 6.1284                 5.0965

                     37                     38                     39
                      A                      A                      A
 Frequencies --    933.0516               952.6048               958.0112
 Red. masses --      1.3339                 2.3298                 2.2057
 Frc consts  --      0.6842                 1.2456                 1.1927
 IR Inten    --      0.2389                 2.4358                 4.6818

                     40                     41                     42
                      A                      A                      A
 Frequencies --   1029.2518              1033.6613              1067.0296
 Red. masses --      1.5053                 1.7635                 1.9150
 Frc consts  --      0.9395                 1.1101                 1.2846
 IR Inten    --      5.3745                27.9746                15.0778

                     43                     44                     45
                      A                      A                      A
 Frequencies --   1068.1826              1075.0393              1077.2070
 Red. masses --      2.0292                 1.4671                 1.7129
 Frc consts  --      1.3641                 0.9990                 1.1710
 IR Inten    --     39.4527                 8.7353                11.7473

                     46                     47                     48
                      A                      A                      A
 Frequencies --   1094.4298              1099.2262              1122.2445
 Red. masses --      1.9003                 2.2365                 2.7178
 Frc consts  --      1.3411                 1.5922                 2.0167
 IR Inten    --      2.0886                 5.6601               105.1136

                     49                     50                     51
                      A                      A                      A
 Frequencies --   1174.3248              1183.2931              1196.5655
 Red. masses --      1.7123                 3.1129                 1.6518
 Frc consts  --      1.3912                 2.5680                 1.3934
 IR Inten    --     57.2587                10.3498                25.6017

                     52                     53                     54
                      A                      A                      A
 Frequencies --   1242.7763              1256.6665              1274.9096
 Red. masses --      2.1250                 1.2422                 2.5129
 Frc consts  --      1.9338                 1.1558                 2.4065
 IR Inten    --    141.6947                 6.8774                 5.4403

                     55                     56                     57
                      A                      A                      A
 Frequencies --   1290.8379              1315.0626              1335.4408
 Red. masses --      1.5789                 1.6196                 1.6289
 Frc consts  --      1.5500                 1.6502                 1.7115
 IR Inten    --     12.1471                23.9633                 9.6364

                     58                     59                     60
                      A                      A                      A
 Frequencies --   1356.1398              1374.3795              1387.3778
 Red. masses --      2.1445                 1.5964                 1.4051
 Frc consts  --      2.3238                 1.7767                 1.5934
 IR Inten    --      9.5286                 4.7984                17.7765

                     61                     62                     63
                      A                      A                      A
 Frequencies --   1421.8544              1424.5675              1442.2748
 Red. masses --      1.2574                 1.2633                 1.2479
 Frc consts  --      1.4977                 1.5105                 1.5294
 IR Inten    --      8.2372                13.8839                 1.1086

                     64                     65                     66
                      A                      A                      A
 Frequencies --   1443.6922              1460.5516              1473.2133
 Red. masses --      1.2472                 2.4304                 1.2555
 Frc consts  --      1.5315                 3.0547                 1.6054
 IR Inten    --      0.2959                 5.9911                79.8800

                     67                     68                     69
                      A                      A                      A
 Frequencies --   1497.0519              1507.3557              1508.4271
 Red. masses --      1.0995                 1.0402                 1.0413
 Frc consts  --      1.4519                 1.3925                 1.3960
 IR Inten    --      5.5816                 4.4401                 3.2828

                     70                     71                     72
                      A                      A                      A
 Frequencies --   1517.0331              1518.3390              1520.7470
 Red. masses --      1.0475                 1.0774                 1.0629
 Frc consts  --      1.4204                 1.4634                 1.4483
 IR Inten    --      4.2207                22.5677                 2.8844

                     73                     74                     75
                      A                      A                      A
 Frequencies --   1527.8265              1531.7050              1550.9056
 Red. masses --      1.1138                 1.1033                 2.6841
 Frc consts  --      1.5319                 1.5250                 3.8039
 IR Inten    --      5.4937                 7.3313                91.6298

                     76                     77                     78
                      A                      A                      A
 Frequencies --   1644.9935              1671.5222              2382.0918
 Red. masses --      6.2964                 5.9298                11.8045
 Frc consts  --     10.0385                 9.7615                39.4652
 IR Inten    --      3.9447                 7.7922                 2.9603

                     79                     80                     81
                      A                      A                      A
 Frequencies --   3029.8534              3039.7402              3040.6518
 Red. masses --      1.0606                 1.0344                 1.0388
 Frc consts  --      5.7364                 5.6314                 5.6585
 IR Inten    --     31.2992                20.2795                45.3649

                     82                     83                     84
                      A                      A                      A
 Frequencies --   3057.4120              3063.7917              3064.0268
 Red. masses --      1.0425                 1.0928                 1.0856
 Frc consts  --      5.7415                 6.0438                 6.0047
 IR Inten    --     21.1320                27.3040                11.9772

                     85                     86                     87
                      A                      A                      A
 Frequencies --   3088.9868              3094.4574              3100.7478
 Red. masses --      1.0594                 1.0983                 1.1016
 Frc consts  --      5.9560                 6.1962                 6.2404
 IR Inten    --     58.5015                20.5805                11.3415

                     88                     89                     90
                      A                      A                      A
 Frequencies --   3106.4301              3121.4984              3124.8985
 Red. masses --      1.1016                 1.1018                 1.1023
 Frc consts  --      6.2632                 6.3255                 6.3418
 IR Inten    --      6.8043                18.0672                29.5839

                     91                     92                     93
                      A                      A                      A
 Frequencies --   3136.2377              3153.3722              3165.5867
 Red. masses --      1.1092                 1.0997                 1.0894
 Frc consts  --      6.4278                 6.4429                 6.4322
 IR Inten    --     27.7619                23.4309                21.2942

                     94                     95                     96
                      A                      A                      A
 Frequencies --   3182.0942              3221.9072              3711.7493
 Red. masses --      1.0890                 1.0914                 1.0647
 Frc consts  --      6.4971                 6.6750                 8.6427
 IR Inten    --     15.9667                15.0963                62.1315

 - Thermochemistry -
 -------------------
 Temperature   298.150 Kelvin.  Pressure   1.00000 Atm.
 Atom     1 has atomic number  6 and mass  12.00000

 Molecular mass:   218.13068 amu.
 Principal axes and moments of inertia in atomic units:
                           1         2         3
     Eigenvalues --  2945.008283822.734324743.15373
           X            0.99966   0.02313   0.01193
           Y           -0.02282   0.99942  -0.02520
           Z           -0.01251   0.02492   0.99961
 This molecule is an asymmetric top.
 Rotational symmetry number  1.
 Warning -- assumption of classical behavior for rotation
           may cause significant error
 Rotational temperatures (Kelvin)      0.02941     0.02266     0.01826
 Rotational constants (GHZ):           0.61281     0.47211     0.38049
 Zero-point vibrational energy     760029.5 (Joules/Mol)
                                  181.65141 (Kcal/Mol)
 Warning -- explicit consideration of  27 degrees of freedom as
           vibrations may cause significant error
 Vibrational temperatures:     41.26    45.76    63.05    71.85    89.59
          (Kelvin)            101.42   125.97   182.98   219.22   279.40
                              311.52   343.60   354.49   389.41   420.18
                              480.64   497.72   523.90   539.81   583.46
                              622.50   676.18   710.96   728.27   760.16
                              799.39   865.56   947.67  1019.89  1053.11
                             1062.64  1095.09  1176.74  1264.80  1287.51
                             1301.69  1342.45  1370.59  1378.36  1480.86
                             1487.21  1535.22  1536.88  1546.74  1549.86
                             1574.64  1581.54  1614.66  1689.59  1702.49
                             1721.59  1788.08  1808.06  1834.31  1857.23
                             1892.08  1921.40  1951.18  1977.43  1996.13
                             2045.73  2049.63  2075.11  2077.15  2101.41
                             2119.63  2153.92  2168.75  2170.29  2182.67
                             2184.55  2188.02  2198.20  2203.78  2231.41
                             2366.78  2404.95  3427.30  4359.28  4373.51
                             4374.82  4398.93  4408.11  4408.45  4444.36
                             4452.23  4461.28  4469.46  4491.14  4496.03
                             4512.35  4537.00  4554.57  4578.32  4635.61
                             5340.38

 Zero-point correction=                           0.289480 (Hartree/Particle)
 Thermal correction to Energy=                    0.307060
 Thermal correction to Enthalpy=                  0.308005
 Thermal correction to Gibbs Free Energy=         0.242348
 Sum of electronic and zero-point Energies=           -694.479810
 Sum of electronic and thermal Energies=              -694.462229
 Sum of electronic and thermal Enthalpies=            -694.461285
 Sum of electronic and thermal Free Energies=         -694.526942

                     E (Thermal)             CV                S
                      KCal/Mol        Cal/Mol-Kelvin    Cal/Mol-Kelvin
 Total                  192.683             63.879            138.186
 Electronic               0.000              0.000              0.000
 Translational            0.889              2.981             42.043
 Rotational               0.889              2.981             32.346
 Vibrational            190.906             57.917             63.798
 Vibration     1          0.593              1.984              5.919
 Vibration     2          0.594              1.983              5.714
 Vibration     3          0.595              1.980              5.078
 Vibration     4          0.595              1.978              4.820
 Vibration     5          0.597              1.972              4.384
 Vibration     6          0.598              1.968              4.140
 Vibration     7          0.601              1.958              3.714
 Vibration     8          0.611              1.926              2.988
 Vibration     9          0.619              1.900              2.642
 Vibration    10          0.635              1.848              2.187
 Vibration    11          0.645              1.816              1.988
 Vibration    12          0.657              1.781              1.812
 Vibration    13          0.661              1.769              1.756
 Vibration    14          0.674              1.727              1.592
 Vibration    15          0.687              1.689              1.462
 Vibration    16          0.716              1.607              1.240
 Vibration    17          0.724              1.584              1.185
 Vibration    18          0.738              1.546              1.104
 Vibration    19          0.746              1.523              1.059
 Vibration    20          0.771              1.458              0.943
 Vibration    21          0.794              1.399              0.850
 Vibration    22          0.827              1.317              0.738
 Vibration    23          0.850              1.263              0.673
 Vibration    24          0.861              1.236              0.643
 Vibration    25          0.883              1.187              0.591
 Vibration    26          0.911              1.127              0.533
 Vibration    27          0.960              1.028              0.447

 Optimization completed.
    -- Stationary point found.
 Normal termination of Gaussian 16 at Fri Dec 11 00:17:24 2020.

 ----------------------------------------------------------------------
 # B3LYP/6-311++G(d,p) empiricaldispersion=gd3bj scf=xqc pop=npa geom=c
 heck
 ----------------------------------------------------------------------

 ---------------------------------------
 CID_104808218_JID_6571_Energie_neutraal
 ---------------------------------------
 Structure from the checkpoint file:  "JID_6571.chk"
 Charge =  0 Multiplicity = 1

 SCF Done:  E(RB3LYP) =  -694.968836990     A.U. after   15 cycles
 Normal termination of Gaussian 16 at Fri Dec 11 00:23:13 2020.

 ----------------------------------------------------------------------
 # B3LYP/6-311++G(d,p) empiricaldispersion=gd3bj scf=xqc pop=npa geom=c
 heck
 ----------------------------------------------------------------------

 -------------------------------------
 CID_104808218_JID_6571_Energie_kation
 -------------------------------------
 Structure from the checkpoint file:  "JID_6571.chk"
 Charge =  1 Multiplicity = 2

 SCF Done:  E(UB3LYP) =  -694.686643157     A.U. after   24 cycles
 Normal termination of Gaussian 16 at Fri Dec 11 00:36:11 2020.
 Gaussian 16:  ES64L-G16RevA.03 25-Dec-2016

 ----------------------------------------------------------------------
 # B3LYP/6-311++G(d,p) empiricaldispersion=gd3bj scf=xqc pop=npa geom=c
 heck
 ----------------------------------------------------------------------

 ------------------------------------
 CID_104808218_JID_6571_Energie_anion
 ------------------------------------
 Structure from the checkpoint file:  "JID_6571.chk"
 Charge = -1 Multiplicity = 2

                         Standard orientation:
 ---------------------------------------------------------------------
 Center     Atomic      Atomic             Coordinates (Angstroms)
 Number     Number       Type             X           Y           Z
 ---------------------------------------------------------------------
      1          6           0        0.334083    2.670119    1.846807
      2          6           0       -0.859384    2.234810    1.130465
      3          6           0       -1.811854    1.832493    0.505567
      4          6           0       -2.866529    1.238841   -0.312502
      5          6           0       -2.304161    0.511400   -1.544225
      6          8           0       -1.435878   -0.562447   -1.183647
      7          6           0       -0.094059   -0.324385   -0.921256
      8          6           0        0.508197   -1.138329    0.053292
      9          6           0        1.864510   -0.950750    0.317345
     10          6           0        2.638778    0.012822   -0.340519
     11          6           0        2.009485    0.794216   -1.311771
     12          6           0        0.658212    0.622197   -1.612634
     13          6           0        4.107845    0.170863   -0.031624
     14          6           0       -0.285486   -2.170533    0.842597
     15          6           0       -1.117072   -1.517504    1.954751
     16          8           0       -1.085284   -3.008105    0.014293
     17          1           0        1.227706    2.241954    1.377008
     18          1           0        0.313982    2.342195    2.892981
     19          1           0        0.435959    3.761926    1.840436
     20          1           0       -3.449695    0.522532    0.281155
     21          1           0       -3.574382    2.002965   -0.664284
     22          1           0       -3.120555    0.045153   -2.102618
     23          1           0       -1.800420    1.220461   -2.205878
     24          1           0        2.333025   -1.579684    1.072366
     25          1           0        2.580563    1.544272   -1.853284
     26          1           0        0.203612    1.240344   -2.377941
     27          1           0        4.703887   -0.622851   -0.500723
     28          1           0        4.491489    1.128378   -0.398489
     29          1           0        4.299210    0.121785    1.046413
     30          1           0        0.436124   -2.850191    1.309948
     31          1           0       -1.838603   -0.810380    1.537687
     32          1           0       -1.658475   -2.291759    2.508101
     33          1           0       -0.475464   -0.964499    2.650050
     34          1           0       -1.634056   -2.405741   -0.515849
 ---------------------------------------------------------------------

 SCF Done:  E(UB3LYP) =  -694.956633459     A.U. after   33 cycles
 SCF Done:  E(UB3LYP) =  -694.956633459     a.u. after    1 cycles

 The electronic state is 2-A.
 Alpha  occ. eigenvalues --  -19.06334 -19.01756 -10.14119 -10.14076 -10.13307
 Alpha  occ. eigenvalues --  -10.10284 -10.08923 -10.08646 -10.08578 -10.08035
 Alpha  occ. eigenvalues --  -10.08013 -10.07972 -10.07457 -10.06782 -10.06498
 Alpha  occ. eigenvalues --  -10.06237  -0.97626  -0.92298  -0.76914  -0.71276
 Alpha  occ. eigenvalues --   -0.69052  -0.67628  -0.66486  -0.63329  -0.61386
 Alpha  occ. eigenvalues --   -0.58429  -0.55453  -0.54090  -0.51047  -0.48181
 Alpha  occ. eigenvalues --   -0.44455  -0.41585  -0.40243  -0.39193  -0.37988
 Alpha  occ. eigenvalues --   -0.36569  -0.36003  -0.34354  -0.34304  -0.33663
 Alpha  occ. eigenvalues --   -0.33295  -0.33071  -0.32850  -0.32262  -0.32037
 Alpha  occ. eigenvalues --   -0.30227  -0.29217  -0.28531  -0.27500  -0.26881
 Alpha  occ. eigenvalues --   -0.26289  -0.25494  -0.23372  -0.21109  -0.17869
 Alpha  occ. eigenvalues --   -0.17021  -0.16370  -0.15655  -0.12496   0.04102
 Alpha virt. eigenvalues --    0.05707   0.06866   0.07225   0.07431   0.08230
 Alpha virt. eigenvalues --    0.08413   0.08576   0.08901   0.09888   0.10370
 Alpha virt. eigenvalues --    0.10465   0.10817   0.11934   0.12430   0.12669

  Beta  occ. eigenvalues --  -19.06330 -19.01753 -10.14118 -10.14043 -10.13304
  Beta  occ. eigenvalues --  -10.10255 -10.08890 -10.08645 -10.08578 -10.08024
  Beta  occ. eigenvalues --  -10.08004 -10.07959 -10.07425 -10.06777 -10.06488
  Beta  occ. eigenvalues --  -10.06233  -0.97614  -0.92293  -0.76902  -0.71239
  Beta  occ. eigenvalues --   -0.69035  -0.67604  -0.66450  -0.63312  -0.61341
  Beta  occ. eigenvalues --   -0.58384  -0.55397  -0.54067  -0.51016  -0.48153
  Beta  occ. eigenvalues --   -0.44423  -0.41550  -0.40216  -0.39170  -0.37948
  Beta  occ. eigenvalues --   -0.36534  -0.35968  -0.34330  -0.34277  -0.33634
  Beta  occ. eigenvalues --   -0.33260  -0.33045  -0.32813  -0.32219  -0.32005
  Beta  occ. eigenvalues --   -0.30207  -0.29182  -0.28507  -0.27477  -0.26859
  Beta  occ. eigenvalues --   -0.26259  -0.25476  -0.23356  -0.21088  -0.17862
  Beta  occ. eigenvalues --   -0.16998  -0.16355  -0.15643  -0.12479
  Beta virt. eigenvalues --    0.06227   0.06936   0.07259   0.07446   0.07679
  Beta virt. eigenvalues --    0.08563   0.08703   0.09047   0.09475   0.10079
  Beta virt. eigenvalues --    0.10672   0.10823   0.11289   0.12104   0.12705

 Mulliken charges and spin densities:
               1          2
     1  C    1.193804  -1.809999
     2  C   -0.963246   1.036975
     3  C   -0.269679   0.589188
     4  C    0.040806  -0.726105
     5  C    0.922271  -1.133928
     6  O   -0.169155   0.017983
     7  C   -0.316704   0.169458
     8  C    0.210599   0.574241
     9  C   -1.313571   0.693273
    10  C   -0.590542   1.110185
    11  C    0.760149  -1.067858
    12  C    0.492590  -0.791354
    13  C    2.054016  -2.588163
    14  C   -1.050702   0.399847
    15  C    0.031792  -0.389877
    16  O   -0.169149  -0.008196
    17  H    0.121956   0.093740
    18  H   -0.102753   0.252717
    19  H   -0.201612   0.362616
    20  H    0.039052   0.145958
    21  H   -0.655414   0.867947
    22  H   -0.647110   0.831758
    23  H    0.027661   0.099299
    24  H   -0.029978   0.188520
    25  H   -0.326467   0.500367
    26  H   -0.310457   0.478017
    27  H    0.069605   0.086943
    28  H   -0.355344   0.508822
    29  H   -0.288726   0.440305
    30  H    0.077831   0.100334
    31  H    0.382204  -0.273700
    32  H    0.054570   0.086253
    33  H    0.018928   0.126007
    34  H    0.262777   0.028428
 Sum of Mulliken charges =  -1.00000   1.00000

 Dipole moment (field-independent basis, Debye):
    X=              0.5029    Y=             -3.5268    Z=              1.7407  Tot=              3.9650
 Quadrupole moment (field-independent basis, Debye-Ang):
   XX=           -169.0570   YY=           -151.6794   ZZ=           -136.4296
   XY=             -1.2144   XZ=             -9.9850   YZ=              0.2235

 Summary of Natural Population Analysis:

                                       Natural Population
                Natural  -----------------------------------------------
    Atom  No    Charge         Core      Valence    Rydberg      Total
 -----------------------------------------------------------------------
      C    1   -0.32032      0.99961     2.31467    0.00605     3.32032
      C    2    0.00565      0.99923     1.98827    0.00685     2.99435
      C    3   -0.02443      0.99923     2.01674    0.00845     3.02443
      C    4   -0.23488      0.99957     2.22559    0.00971     3.23488
      C    5    0.00340      0.99955     1.98438    0.01268     2.99660
      O    6   -0.30107      0.99985     3.29043    0.01078     4.30107
      C    7    0.16158      0.99931     1.82519    0.01392     2.83842
      C    8   -0.04090      0.99944     2.03003    0.01144     3.04090
      C    9   -0.09146      0.99948     2.08247    0.00951     3.09146
      C   10   -0.02733      0.99951     2.01803    0.00979     3.02733
      C   11   -0.09465      0.99952     2.08500    0.01013     3.09465
      C   12   -0.12182      0.99950     2.11316    0.00916     3.12182
      C   13   -0.29199      0.99964     2.28622    0.00613     3.29199
      C   14    0.06047      0.99954     1.92626    0.01374     2.93953
      C   15   -0.29202      0.99963     2.28746    0.00492     3.29202
      O   16   -0.37642      0.99990     3.37036    0.00616     4.37642
      H   17    0.11852      0.00000     0.37977    0.00171     0.38148
      H   18    0.10949      0.00000     0.38942    0.00108     0.39051
      H   19    0.11061      0.00000     0.38829    0.00110     0.38939
      H   20    0.10917      0.00000     0.38942    0.00141     0.39083
      H   21    0.11721      0.00000     0.38027    0.00252     0.38279
      H   22    0.09514      0.00000     0.40269    0.00217     0.40486
      H   23    0.08744      0.00000     0.41035    0.00221     0.41256
      H   24    0.09793      0.00000     0.40089    0.00118     0.40207
      H   25    0.10144      0.00000     0.39738    0.00118     0.39856
      H   26    0.10469      0.00000     0.39347    0.00184     0.39531
      H   27    0.10207      0.00000     0.39702    0.00091     0.39793
      H   28    0.10422      0.00000     0.39451    0.00127     0.39578
      H   29    0.10400      0.00000     0.39472    0.00127     0.39600
      H   30    0.08527      0.00000     0.41297    0.00176     0.41473
      H   31    0.10237      0.00000     0.39599    0.00164     0.39763
      H   32    0.09784      0.00000     0.40120    0.00095     0.40216
      H   33    0.10068      0.00000     0.39814    0.00118     0.39932
      H   34    0.23810      0.00000     0.25885    0.00305     0.26190
 =======================================================================
   * Total *    0.00000     15.99250    42.82963    0.17787    59.00000

 Normal termination of Gaussian 16 at Fri Dec 11 00:54:20 2020.
