 Gaussian 16, Revision A.03,

 -----------------------------------------------------------
 # opt freq B3LYP/6-31G(d) empiricaldispersion=gd3bj scf=xqc
 -----------------------------------------------------------

 -------------------------------
 CID_154267725_JID_9138_neutraal
 -------------------------------
 Symbolic Z-matrix:
 Charge =  0 Multiplicity = 1

 SCF Done:  E(RB3LYP) =  -1617.11132074     A.U. after   15 cycles
 SCF Done:  E(RB3LYP) =  -1617.11926361     A.U. after   14 cycles
 SCF Done:  E(RB3LYP) =  -1617.07596854     A.U. after   14 cycles
 SCF Done:  E(RB3LYP) =  -1617.11283658     A.U. after   14 cycles
 SCF Done:  E(RB3LYP) =  -1617.12129539     A.U. after   11 cycles
 SCF Done:  E(RB3LYP) =  -1617.12161508     A.U. after   13 cycles
 SCF Done:  E(RB3LYP) =  -1617.12184160     A.U. after   13 cycles
 SCF Done:  E(RB3LYP) =  -1617.12258703     A.U. after   12 cycles
 SCF Done:  E(RB3LYP) =  -1617.12285779     A.U. after   13 cycles
 SCF Done:  E(RB3LYP) =  -1617.12294624     A.U. after   11 cycles
 SCF Done:  E(RB3LYP) =  -1617.12306932     A.U. after   10 cycles
 SCF Done:  E(RB3LYP) =  -1617.12306950     A.U. after   10 cycles
 SCF Done:  E(RB3LYP) =  -1617.12306933     A.U. after    8 cycles
 SCF Done:  E(RB3LYP) =  -1617.12306791     A.U. after    9 cycles
 Optimization completed.
    -- Stationary point found.
 Normal termination of Gaussian 16 at Sun Dec 13 20:29:46 2020.

 --------------------------------------------------------------------
 #N Geom=AllCheck Guess=TCheck SCRF=Check GenChk RB3LYP/6-31G(d) Freq
 --------------------------------------------------------------------

 Structure from the checkpoint file:  "JID_9138.chk"
 -------------------------------
 CID_154267725_JID_9138_neutraal
 -------------------------------
 Charge =  0 Multiplicity = 1

 SCF Done:  E(RB3LYP) =  -1617.12306791     A.U. after    1 cycles

  Exact polarizability: 170.709  11.355 200.492  -0.114  -9.137 140.093
 Approx polarizability: 244.133  10.157 329.712  -9.673 -31.719 260.529

                      1                      2                      3
                      A                      A                      A
 Frequencies --     13.5279                34.8355                55.9756
 Red. masses --      4.7890                 6.6763                 7.3129
 Frc consts  --      0.0005                 0.0048                 0.0135
 IR Inten    --      0.3706                 1.4326                 0.2586

                      4                      5                      6
                      A                      A                      A
 Frequencies --     59.9421                74.0259               114.9955
 Red. masses --      6.8074                 4.7849                 4.3567
 Frc consts  --      0.0144                 0.0154                 0.0339
 IR Inten    --      0.4836                 0.0290                 3.0857

                      7                      8                      9
                      A                      A                      A
 Frequencies --    129.8763               151.6826               158.1281
 Red. masses --      5.6254                 6.3994                 6.1249
 Frc consts  --      0.0559                 0.0867                 0.0902
 IR Inten    --      3.6881                 1.6069                 1.4992

                     10                     11                     12
                      A                      A                      A
 Frequencies --    184.9057               189.7141               253.7425
 Red. masses --      7.9549                 6.7186                 6.6181
 Frc consts  --      0.1602                 0.1425                 0.2511
 IR Inten    --      3.2808                 4.1769                 2.6754

                     13                     14                     15
                      A                      A                      A
 Frequencies --    273.9562               277.2540               304.4969
 Red. masses --      5.9402                 5.4490                 5.9270
 Frc consts  --      0.2627                 0.2468                 0.3238
 IR Inten    --      0.1662                 2.0541                 1.8086

                     16                     17                     18
                      A                      A                      A
 Frequencies --    323.4765               355.9848               365.5817
 Red. masses --      4.0517                 1.1964                 6.2236
 Frc consts  --      0.2498                 0.0893                 0.4901
 IR Inten    --      0.9408                67.3917                12.9420

                     19                     20                     21
                      A                      A                      A
 Frequencies --    412.8840               424.1597               452.7653
 Red. masses --      2.9761                 4.7457                 6.3588
 Frc consts  --      0.2989                 0.5030                 0.7680
 IR Inten    --      1.6836                23.2528                33.1444

                     22                     23                     24
                      A                      A                      A
 Frequencies --    456.4127               494.3897               502.7641
 Red. masses --      2.8203                11.1719                 5.0841
 Frc consts  --      0.3462                 1.6089                 0.7572
 IR Inten    --      6.1646                16.2084                28.7616

                     25                     26                     27
                      A                      A                      A
 Frequencies --    546.0353               568.8241               576.6755
 Red. masses --      2.9758                 4.0610                 5.7625
 Frc consts  --      0.5227                 0.7742                 1.1291
 IR Inten    --      9.5418                 0.5624                15.1828

                     28                     29                     30
                      A                      A                      A
 Frequencies --    589.5850               628.6491               654.6306
 Red. masses --      7.7729                 6.2791                 4.2977
 Frc consts  --      1.5919                 1.4621                 1.0851
 IR Inten    --     23.3587                 0.4100                 9.0026

                     31                     32                     33
                      A                      A                      A
 Frequencies --    674.7043               702.6293               705.9123
 Red. masses --      1.4012                 2.4354                 6.7574
 Frc consts  --      0.3758                 0.7084                 1.9839
 IR Inten    --    122.4043                13.4472                 7.1255

                     34                     35                     36
                      A                      A                      A
 Frequencies --    756.7451               765.8409               775.9182
 Red. masses --      1.3618                 1.3202                 3.8418
 Frc consts  --      0.4595                 0.4562                 1.3627
 IR Inten    --     38.1331                14.3409                 5.9822

                     37                     38                     39
                      A                      A                      A
 Frequencies --    822.8265               830.2541               856.4149
 Red. masses --      4.1747                 3.0511                 1.2447
 Frc consts  --      1.6653                 1.2392                 0.5379
 IR Inten    --      7.9949                 5.1022                 0.3975

                     40                     41                     42
                      A                      A                      A
 Frequencies --    879.4706               923.9372               931.4843
 Red. masses --      3.7411                 1.3391                 6.2919
 Frc consts  --      1.7049                 0.6735                 3.2165
 IR Inten    --     12.6228                 0.7998                 8.5721

                     43                     44                     45
                      A                      A                      A
 Frequencies --    970.8407               991.9006               999.4649
 Red. masses --      1.3567                 2.3526                 1.2658
 Frc consts  --      0.7534                 1.3638                 0.7450
 IR Inten    --      0.8032                39.3302                 0.2388

                     46                     47                     48
                      A                      A                      A
 Frequencies --   1018.8123              1031.2842              1048.3251
 Red. masses --      6.3275                 2.8328                 3.0954
 Frc consts  --      3.8696                 1.7751                 2.0043
 IR Inten    --      5.1374                35.1916                 3.6744

                     49                     50                     51
                      A                      A                      A
 Frequencies --   1068.3045              1079.2593              1094.3779
 Red. masses --      6.5490                 2.5161                 2.1487
 Frc consts  --      4.4037                 1.7267                 1.5162
 IR Inten    --    106.3917                54.4567                30.5760

                     52                     53                     54
                      A                      A                      A
 Frequencies --   1097.2594              1104.6312              1112.1264
 Red. masses --      2.8884                 2.0766                 1.6567
 Frc consts  --      2.0489                 1.4929                 1.2072
 IR Inten    --     45.2086                14.3423                 4.5635

                     55                     56                     57
                      A                      A                      A
 Frequencies --   1145.0186              1194.9665              1207.7675
 Red. masses --      3.0619                 1.1079                 1.1505
 Frc consts  --      2.3652                 0.9321                 0.9888
 IR Inten    --     66.6159                 0.0017                 2.6200

                     58                     59                     60
                      A                      A                      A
 Frequencies --   1230.2231              1275.7360              1292.9542
 Red. masses --      1.2076                 3.8583                 1.6399
 Frc consts  --      1.0768                 3.6997                 1.6152
 IR Inten    --     24.1958               200.4893               160.7278

                     61                     62                     63
                      A                      A                      A
 Frequencies --   1309.4843              1332.3324              1343.6080
 Red. masses --      2.4447                 1.2608                 1.5803
 Frc consts  --      2.4699                 1.3187                 1.6808
 IR Inten    --     15.8397                16.1092                 1.4508

                     64                     65                     66
                      A                      A                      A
 Frequencies --   1364.5022              1382.7683              1386.3306
 Red. masses --      3.8118                 1.2142                 1.3584
 Frc consts  --      4.1815                 1.3678                 1.5382
 IR Inten    --      3.4201                76.8817                16.7200

                     67                     68                     69
                      A                      A                      A
 Frequencies --   1408.4417              1461.1867              1485.1906
 Red. masses --      1.3601                 1.3145                 1.2781
 Frc consts  --      1.5897                 1.6535                 1.6610
 IR Inten    --     28.4668                62.5918                11.1955

                     70                     71                     72
                      A                      A                      A
 Frequencies --   1491.8477              1497.7084              1517.7920
 Red. masses --      2.1285                 1.3119                 1.2369
 Frc consts  --      2.7911                 1.7338                 1.6789
 IR Inten    --     13.6280                41.0377                45.9329

                     73                     74                     75
                      A                      A                      A
 Frequencies --   1526.0156              1555.4482              1592.9367
 Red. masses --      2.0482                 8.7676                 4.3584
 Frc consts  --      2.8102                12.4980                 6.5159
 IR Inten    --      3.9460                 5.1609               323.7918

                     76                     77                     78
                      A                      A                      A
 Frequencies --   1644.2673              1645.7452              3004.2976
 Red. masses --      5.4832                 5.5943                 1.0842
 Frc consts  --      8.7343                 8.9273                 5.7659
 IR Inten    --      0.9467                 0.1317                56.6099

                     79                     80                     81
                      A                      A                      A
 Frequencies --   3064.4123              3106.4179              3117.2930
 Red. masses --      1.0609                 1.0691                 1.0915
 Frc consts  --      5.8695                 6.0784                 6.2490
 IR Inten    --     13.1991                13.1671                29.0183

                     82                     83                     84
                      A                      A                      A
 Frequencies --   3166.0476              3188.5863              3198.8579
 Red. masses --      1.1103                 1.0856                 1.0886
 Frc consts  --      6.5575                 6.5033                 6.5629
 IR Inten    --     13.2326                 0.1783                 8.4800

                     85                     86                     87
                      A                      A                      A
 Frequencies --   3207.5899              3215.9914              3218.6253
 Red. masses --      1.0917                 1.0943                 1.0963
 Frc consts  --      6.6178                 6.6684                 6.6916
 IR Inten    --      6.5866                12.1223                 8.7939

                     88                     89                     90
                      A                      A                      A
 Frequencies --   3299.5272              3594.8022              3728.5385
 Red. masses --      1.0944                 1.0652                 1.0651
 Frc consts  --      7.0202                 8.1098                 8.7237
 IR Inten    --     15.9878               228.7042                37.9257

 - Thermochemistry -
 -------------------
 Temperature   298.150 Kelvin.  Pressure   1.00000 Atm.
 Atom     1 has atomic number  6 and mass  12.00000

 Molecular mass:   299.02860 amu.
 Principal axes and moments of inertia in atomic units:
                           1         2         3
     Eigenvalues --  4963.385805436.425248721.83999
           X            0.99902  -0.04113   0.01625
           Y            0.04118   0.99915  -0.00310
           Z           -0.01611   0.00377   0.99986
 This molecule is an asymmetric top.
 Rotational symmetry number  1.
 Warning -- assumption of classical behavior for rotation
           may cause significant error
 Rotational temperatures (Kelvin)      0.01745     0.01593     0.00993
 Rotational constants (GHZ):           0.36361     0.33197     0.20692
 Zero-point vibrational energy     635670.8 (Joules/Mol)
                                  151.92897 (Kcal/Mol)
 Warning -- explicit consideration of  28 degrees of freedom as
           vibrations may cause significant error
 Vibrational temperatures:     19.46    50.12    80.54    86.24   106.51
          (Kelvin)            165.45   186.86   218.24   227.51   266.04
                              272.96   365.08   394.16   398.91   438.10
                              465.41   512.18   525.99   594.05   610.27
                              651.43   656.68   711.32   723.37   785.62
                              818.41   829.71   848.28   904.49   941.87
                              970.75  1010.93  1015.65  1088.79  1101.87
                             1116.37  1183.86  1194.55  1232.19  1265.36
                             1329.34  1340.20  1396.82  1427.12  1438.01
                             1465.84  1483.79  1508.31  1537.05  1552.81
                             1574.57  1578.71  1589.32  1600.10  1647.43
                             1719.29  1737.71  1770.02  1835.50  1860.27
                             1884.06  1916.93  1933.15  1963.21  1989.50
                             1994.62  2026.43  2102.32  2136.86  2146.44
                             2154.87  2183.76  2195.60  2237.94  2291.88
                             2365.73  2367.86  4322.51  4409.01  4469.44
                             4485.09  4555.24  4587.66  4602.44  4615.01
                             4627.09  4630.88  4747.28  5172.12  5364.54

 Zero-point correction=                           0.242114 (Hartree/Particle)
 Thermal correction to Energy=                    0.259934
 Thermal correction to Enthalpy=                  0.260878
 Thermal correction to Gibbs Free Energy=         0.194397
 Sum of electronic and zero-point Energies=          -1616.880954
 Sum of electronic and thermal Energies=             -1616.863134
 Sum of electronic and thermal Enthalpies=           -1616.862190
 Sum of electronic and thermal Free Energies=        -1616.928671

                     E (Thermal)             CV                S
                      KCal/Mol        Cal/Mol-Kelvin    Cal/Mol-Kelvin
 Total                  163.111             67.611            139.922
 Electronic               0.000              0.000              0.000
 Translational            0.889              2.981             42.983
 Rotational               0.889              2.981             33.820
 Vibrational            161.334             61.649             63.119
 Vibration     1          0.593              1.986              7.411
 Vibration     2          0.594              1.983              5.533
 Vibration     3          0.596              1.975              4.594
 Vibration     4          0.597              1.973              4.459
 Vibration     5          0.599              1.966              4.043
 Vibration     6          0.608              1.937              3.183
 Vibration     7          0.612              1.923              2.948
 Vibration     8          0.619              1.901              2.651
 Vibration     9          0.621              1.894              2.572
 Vibration    10          0.631              1.860              2.278
 Vibration    11          0.633              1.854              2.231
 Vibration    12          0.665              1.756              1.704
 Vibration    13          0.676              1.721              1.571
 Vibration    14          0.678              1.716              1.551
 Vibration    15          0.695              1.665              1.392
 Vibration    16          0.708              1.628              1.292
 Vibration    17          0.731              1.563              1.140
 Vibration    18          0.739              1.543              1.098
 Vibration    19          0.777              1.442              0.916
 Vibration    20          0.786              1.418              0.878
 Vibration    21          0.811              1.355              0.787
 Vibration    22          0.815              1.347              0.777
 Vibration    23          0.850              1.262              0.672
 Vibration    24          0.858              1.244              0.651
 Vibration    25          0.901              1.148              0.552
 Vibration    26          0.925              1.099              0.507
 Vibration    27          0.933              1.082              0.492
 Vibration    28          0.947              1.054              0.468

                           ! Non-Optimized Parameters !
 Normal termination of Gaussian 16 at Sun Dec 13 20:49:04 2020.

 ----------------------------------------------------------------------
 # B3LYP/6-311++G(d,p) empiricaldispersion=gd3bj scf=xqc pop=npa geom=c
 heck
 ----------------------------------------------------------------------

 ---------------------------------------
 CID_154267725_JID_9138_Energie_neutraal
 ---------------------------------------
 Structure from the checkpoint file:  "JID_9138.chk"
 Charge =  0 Multiplicity = 1

 SCF Done:  E(RB3LYP) =  -1617.42188906     A.U. after   17 cycles
 Normal termination of Gaussian 16 at Sun Dec 13 20:57:53 2020.

 ----------------------------------------------------------------------
 # B3LYP/6-311++G(d,p) empiricaldispersion=gd3bj scf=xqc pop=npa geom=c
 heck
 ----------------------------------------------------------------------

 -------------------------------------
 CID_154267725_JID_9138_Energie_kation
 -------------------------------------
 Structure from the checkpoint file:  "JID_9138.chk"
 Charge =  1 Multiplicity = 2

 SCF Done:  E(UB3LYP) =  -1617.11166217     A.U. after   33 cycles
 SCF Done:  E(UB3LYP) =  -1617.11166217     a.u. after    1 cycles
 Normal termination of Gaussian 16 at Sun Dec 13 21:23:20 2020.
 Gaussian 16:  ES64L-G16RevA.03 25-Dec-2016

 ----------------------------------------------------------------------
 # B3LYP/6-311++G(d,p) empiricaldispersion=gd3bj scf=xqc pop=npa geom=c
 heck
 ----------------------------------------------------------------------

 ------------------------------------
 CID_154267725_JID_9138_Energie_anion
 ------------------------------------
 Structure from the checkpoint file:  "JID_9138.chk"
 Charge = -1 Multiplicity = 2

                         Standard orientation:
 ---------------------------------------------------------------------
 Center     Atomic      Atomic             Coordinates (Angstroms)
 Number     Number       Type             X           Y           Z
 ---------------------------------------------------------------------
      1          6           0        2.982251    1.925262    1.135259
      2          6           0        2.707417    2.024405   -0.228315
      3          6           0        2.249465    0.906150   -0.932808
      4          6           0        2.070376   -0.292162   -0.250795
      5          6           0        2.360699   -0.411437    1.109689
      6          6           0        2.813014    0.706004    1.804020
      7         16           0        1.467713   -1.752689   -1.156722
      8          8           0        2.136716   -2.978718   -0.575980
      9          6           0       -0.175288   -1.735352   -0.393867
     10          6           0       -0.587078   -2.730503    0.428618
     11         16           0       -2.172126   -2.338064    1.052124
     12          6           0       -2.111772   -0.838363    0.123340
     13          7           0       -1.033981   -0.674142   -0.594805
     14          8           0       -3.143831   -0.018551    0.246387
     15          6           0       -3.189561    1.200798   -0.555121
     16          6           0       -2.469460    2.375964    0.089460
     17          6           0       -0.943149    2.310675   -0.008026
     18          8           0       -0.540139    2.048771   -1.339487
     19          8           0       -0.453783    3.561280    0.387431
     20          1           0        3.341786    2.793598    1.680083
     21          1           0        2.855463    2.964150   -0.752971
     22          1           0        2.026796    0.978539   -1.992264
     23          1           0        2.234741   -1.373506    1.597211
     24          1           0        3.037896    0.632242    2.863947
     25          1           0       -0.043455   -3.622574    0.701628
     26          1           0       -2.788668    0.988453   -1.548584
     27          1           0       -4.259086    1.400495   -0.631819
     28          1           0       -2.779361    3.279282   -0.450458
     29          1           0       -2.783529    2.487647    1.132932
     30          1           0       -0.546482    1.519380    0.646521
     31          1           0       -0.534121    1.072536   -1.403959
     32          1           0        0.513300    3.499902    0.319395
 ---------------------------------------------------------------------

 SCF Done:  E(UB3LYP) =  -1617.42771438     A.U. after   33 cycles
 SCF Done:  E(UB3LYP) =  -1617.42771438     a.u. after    1 cycles

 The electronic state is 2-A.
 Alpha  occ. eigenvalues --  -88.82254 -88.76555 -19.07231 -19.02205 -19.00268
 Alpha  occ. eigenvalues --  -18.95501 -14.20977 -10.17839 -10.16006 -10.14284
 Alpha  occ. eigenvalues --  -10.09707 -10.07809 -10.07253 -10.05616 -10.05194
 Alpha  occ. eigenvalues --  -10.05146 -10.04814 -10.04371 -10.03952  -7.89795
 Alpha  occ. eigenvalues --   -7.85168  -5.86066  -5.85939  -5.85438  -5.81474
 Alpha  occ. eigenvalues --   -5.81132  -5.80729  -0.99667  -0.95475  -0.88893
 Alpha  occ. eigenvalues --   -0.88561  -0.85037  -0.73381  -0.70071  -0.68648
 Alpha  occ. eigenvalues --   -0.65551  -0.62524  -0.62397  -0.59083  -0.54897
 Alpha  occ. eigenvalues --   -0.50617  -0.48697  -0.48466  -0.46664  -0.44870
 Alpha  occ. eigenvalues --   -0.43088  -0.41681  -0.40610  -0.39657  -0.38273
 Alpha  occ. eigenvalues --   -0.36149  -0.35414  -0.33679  -0.33430  -0.32751
 Alpha  occ. eigenvalues --   -0.31263  -0.30643  -0.30221  -0.29463  -0.29046
 Alpha  occ. eigenvalues --   -0.27095  -0.26636  -0.25544  -0.25334  -0.24344
 Alpha  occ. eigenvalues --   -0.24211  -0.23765  -0.22928  -0.22413  -0.20451
 Alpha  occ. eigenvalues --   -0.19183  -0.17978  -0.16484  -0.14958  -0.14405
 Alpha  occ. eigenvalues --   -0.13421  -0.11902  -0.10808   0.04631
 Alpha virt. eigenvalues --    0.07088   0.08251   0.08633   0.09392   0.09504
 Alpha virt. eigenvalues --    0.10061   0.10256   0.10507   0.11009   0.11236
 Alpha virt. eigenvalues --    0.11684   0.12469   0.12765   0.13444   0.13705

  Beta  occ. eigenvalues --  -88.82242 -88.76516 -19.07200 -19.02205 -19.00264
  Beta  occ. eigenvalues --  -18.95466 -14.21016 -10.17638 -10.16005 -10.14283
  Beta  occ. eigenvalues --  -10.09610 -10.07805 -10.07025 -10.05403 -10.05209
  Beta  occ. eigenvalues --  -10.05122 -10.04789 -10.04199 -10.03635  -7.89781
  Beta  occ. eigenvalues --   -7.85133  -5.86011  -5.85939  -5.85433  -5.81436
  Beta  occ. eigenvalues --   -5.81112  -5.80622  -0.99556  -0.95472  -0.88754
  Beta  occ. eigenvalues --   -0.88551  -0.84928  -0.73030  -0.69998  -0.68431
  Beta  occ. eigenvalues --   -0.65157  -0.62218  -0.62061  -0.58931  -0.54522
  Beta  occ. eigenvalues --   -0.50534  -0.48474  -0.48298  -0.46316  -0.44728
  Beta  occ. eigenvalues --   -0.43049  -0.41615  -0.40492  -0.39473  -0.38200
  Beta  occ. eigenvalues --   -0.35857  -0.35058  -0.33577  -0.33237  -0.32569
  Beta  occ. eigenvalues --   -0.31106  -0.30499  -0.30137  -0.29425  -0.28855
  Beta  occ. eigenvalues --   -0.26746  -0.26588  -0.25317  -0.25116  -0.24223
  Beta  occ. eigenvalues --   -0.23764  -0.23544  -0.22669  -0.22286  -0.20402
  Beta  occ. eigenvalues --   -0.19142  -0.17552  -0.16404  -0.14760  -0.13438
  Beta  occ. eigenvalues --   -0.12712  -0.11010  -0.10283
  Beta virt. eigenvalues --    0.07054   0.08174   0.09193   0.09426   0.09528
  Beta virt. eigenvalues --    0.09670   0.10200   0.10418   0.10827   0.11024
  Beta virt. eigenvalues --    0.11348   0.11830   0.12565   0.12780   0.13641

 Mulliken charges and spin densities:
               1          2
     1  C   -0.337886   0.264676
     2  C   -0.212372  -0.093655
     3  C   -0.772196   0.060611
     4  C   -0.149484   0.184247
     5  C    0.477702   0.135019
     6  C   -0.418198  -0.049937
     7  S    0.941822  -0.004471
     8  O   -0.439430  -0.014937
     9  C   -1.131240   0.051663
    10  C    0.069151   0.179086
    11  S   -0.333759   0.136911
    12  C    0.082504   0.052577
    13  N    0.075555  -0.026566
    14  O   -0.026256   0.011494
    15  C   -0.443030   0.004756
    16  C   -0.039902  -0.124624
    17  C   -0.170541   0.027323
    18  O   -0.113161  -0.000843
    19  O   -0.282244   0.001069
    20  H    0.110119  -0.007101
    21  H    0.137629   0.015251
    22  H    0.119936   0.030100
    23  H    0.184221  -0.006053
    24  H    0.130533   0.009833
    25  H    0.257476   0.017566
    26  H    0.213348  -0.005425
    27  H    0.113854   0.065683
    28  H    0.135176   0.024572
    29  H    0.148199   0.027030
    30  H    0.169963   0.010765
    31  H    0.238347   0.003444
    32  H    0.264163   0.019932
 Sum of Mulliken charges =  -1.00000   1.00000

 Dipole moment (field-independent basis, Debye):
    X=             -4.6160    Y=              2.0775    Z=              0.1241  Tot=              5.0635
 Quadrupole moment (field-independent basis, Debye-Ang):
   XX=           -161.3741   YY=           -168.3644   ZZ=           -137.5488
   XY=              6.7053   XZ=              4.7472   YZ=             -2.4780

 Summary of Natural Population Analysis:

                                       Natural Population
                Natural  -----------------------------------------------
    Atom  No    Charge         Core      Valence    Rydberg      Total
 -----------------------------------------------------------------------
      C    1   -0.04908      0.99957     2.04050    0.00901     3.04908
      C    2   -0.11949      0.99957     2.10932    0.01060     3.11949
      C    3   -0.08806      0.99949     2.07550    0.01308     3.08806
      C    4   -0.08609      0.99936     2.07032    0.01641     3.08609
      C    5   -0.06458      0.99949     2.05600    0.00909     3.06458
      C    6   -0.11985      0.99957     2.11144    0.00884     3.11985
      S    7    0.61920      4.99925     2.32386    0.05769     7.38080
      O    8   -0.48966      0.99993     3.48265    0.00708     4.48966
      C    9   -0.02387      0.99934     2.00149    0.02305     3.02387
      C   10   -0.17405      0.99939     2.16474    0.00991     3.17405
      S   11    0.18069      4.99946     2.80001    0.01985     7.81931
      C   12    0.23643      0.99956     1.73883    0.02517     2.76357
      N   13   -0.32001      0.99958     2.80739    0.01305     3.82001
      O   14   -0.27492      0.99983     3.26527    0.00982     4.27492
      C   15   -0.01355      0.99955     2.00250    0.01150     3.01355
      C   16   -0.21904      0.99960     2.21059    0.00885     3.21904
      C   17    0.20793      0.99962     1.77510    0.01735     2.79207
      O   18   -0.39339      0.99989     3.38631    0.00720     4.39339
      O   19   -0.37206      0.99988     3.36668    0.00549     4.37206
      H   20    0.08955      0.00000     0.40955    0.00090     0.41045
      H   21    0.09349      0.00000     0.40491    0.00160     0.40651
      H   22    0.10020      0.00000     0.39817    0.00163     0.39980
      H   23    0.10631      0.00000     0.39221    0.00148     0.39369
      H   24    0.09359      0.00000     0.40541    0.00100     0.40641
      H   25    0.12133      0.00000     0.37766    0.00101     0.37867
      H   26    0.09770      0.00000     0.40082    0.00148     0.40230
      H   27    0.09063      0.00000     0.40817    0.00120     0.40937
      H   28    0.10612      0.00000     0.39226    0.00163     0.39388
      H   29    0.10372      0.00000     0.39494    0.00133     0.39628
      H   30    0.07309      0.00000     0.42420    0.00271     0.42691
      H   31    0.24913      0.00000     0.24690    0.00397     0.25087
      H   32    0.23859      0.00000     0.25845    0.00296     0.26141
 =======================================================================
   * Total *    0.00000     26.99193    50.70213    0.30593    78.00000

 Normal termination of Gaussian 16 at Sun Dec 13 21:48:28 2020.
