 Gaussian 16, Revision A.03,

 -----------------------------------------------------------
 # opt freq B3LYP/6-31G(d) empiricaldispersion=gd3bj scf=xqc
 -----------------------------------------------------------

 -------------------------------
 CID_129694124_JID_2144_neutraal
 -------------------------------
 Symbolic Z-matrix:
 Charge =  0 Multiplicity = 1

 SCF Done:  E(RB3LYP) =  -468.113943366     A.U. after   14 cycles
 SCF Done:  E(RB3LYP) =  -468.115679006     A.U. after   11 cycles
 SCF Done:  E(RB3LYP) =  -468.115784797     A.U. after   10 cycles
 SCF Done:  E(RB3LYP) =  -468.115803013     A.U. after    9 cycles
 SCF Done:  E(RB3LYP) =  -468.115809075     A.U. after    9 cycles
 SCF Done:  E(RB3LYP) =  -468.115814050     A.U. after    9 cycles
 SCF Done:  E(RB3LYP) =  -468.115815569     A.U. after    8 cycles
 SCF Done:  E(RB3LYP) =  -468.115815897     A.U. after    7 cycles
 SCF Done:  E(RB3LYP) =  -468.115816079     A.U. after    7 cycles
 SCF Done:  E(RB3LYP) =  -468.115816159     A.U. after    7 cycles
 Optimization completed.
    -- Stationary point found.
 Normal termination of Gaussian 16 at Wed Dec  9 16:49:11 2020.

 --------------------------------------------------------------------
 #N Geom=AllCheck Guess=TCheck SCRF=Check GenChk RB3LYP/6-31G(d) Freq
 --------------------------------------------------------------------

 Structure from the checkpoint file:  "JID_2144.chk"
 -------------------------------
 CID_129694124_JID_2144_neutraal
 -------------------------------
 Charge =  0 Multiplicity = 1

 SCF Done:  E(RB3LYP) =  -468.115816159     A.U. after    1 cycles

  Exact polarizability: 354.266 -14.999 113.805  -7.818  -2.105  69.843
 Approx polarizability: 505.082 -41.359 167.063 -17.169  -2.474  99.994

                      1                      2                      3
                      A                      A                      A
 Frequencies --     25.6111                40.1424                55.4919
 Red. masses --      3.8284                 2.5266                 3.1992
 Frc consts  --      0.0015                 0.0024                 0.0058
 IR Inten    --      0.2226                 0.0533                 0.0919

                      4                      5                      6
                      A                      A                      A
 Frequencies --     68.5417               120.1197               128.9138
 Red. masses --      2.8399                 1.1575                 2.2531
 Frc consts  --      0.0079                 0.0098                 0.0221
 IR Inten    --      0.0881                 0.3984                 0.0177

                      7                      8                      9
                      A                      A                      A
 Frequencies --    132.5472               165.5776               177.3597
 Red. masses --      3.3754                 1.4693                 2.0809
 Frc consts  --      0.0349                 0.0237                 0.0386
 IR Inten    --      0.1657                 0.2799                 0.8658

                     10                     11                     12
                      A                      A                      A
 Frequencies --    210.6749               229.7318               244.6974
 Red. masses --      1.7801                 1.6900                 2.4184
 Frc consts  --      0.0466                 0.0525                 0.0853
 IR Inten    --      0.8445                 0.0421                 1.4308

                     13                     14                     15
                      A                      A                      A
 Frequencies --    287.4195               347.1105               390.1185
 Red. masses --      2.0400                 2.3979                 2.4720
 Frc consts  --      0.0993                 0.1702                 0.2217
 IR Inten    --      8.4946                 2.4500                 0.8811

                     16                     17                     18
                      A                      A                      A
 Frequencies --    423.8184               446.5728               458.4447
 Red. masses --      2.6098                 2.4025                 2.6361
 Frc consts  --      0.2762                 0.2823                 0.3264
 IR Inten    --      2.9337                 0.5593                 0.8464

                     19                     20                     21
                      A                      A                      A
 Frequencies --    501.7157               529.4495               557.7763
 Red. masses --      3.1936                 2.3474                 3.7788
 Frc consts  --      0.4736                 0.3877                 0.6927
 IR Inten    --     30.2221                 1.0299                 2.3321

                     22                     23                     24
                      A                      A                      A
 Frequencies --    718.9275               780.7452               800.2478
 Red. masses --      4.0746                 1.2424                 1.2219
 Frc consts  --      1.2408                 0.4462                 0.4610
 IR Inten    --      0.0915                20.9669                16.1515

                     25                     26                     27
                      A                      A                      A
 Frequencies --    826.0984               855.1454               871.2561
 Red. masses --      1.5466                 3.2980                 1.8651
 Frc consts  --      0.6219                 1.4209                 0.8341
 IR Inten    --      1.8768                 1.1075                 4.9425

                     28                     29                     30
                      A                      A                      A
 Frequencies --    893.5667               923.5118               966.6594
 Red. masses --      1.4786                 1.8368                 1.2932
 Frc consts  --      0.6956                 0.9230                 0.7120
 IR Inten    --      5.1792                 5.9225                 7.2647

                     31                     32                     33
                      A                      A                      A
 Frequencies --    975.0170               994.8759              1000.4951
 Red. masses --      1.4414                 2.5276                 1.2326
 Frc consts  --      0.8073                 1.4740                 0.7270
 IR Inten    --      0.2441                 0.9598                10.2949

                     34                     35                     36
                      A                      A                      A
 Frequencies --   1024.3442              1028.0857              1035.2005
 Red. masses --      1.1834                 1.2354                 2.0697
 Frc consts  --      0.7316                 0.7693                 1.3068
 IR Inten    --     11.5110                 1.5170                21.9071

                     37                     38                     39
                      A                      A                      A
 Frequencies --   1080.6151              1098.3201              1113.2094
 Red. masses --      1.9146                 1.6227                 1.6573
 Frc consts  --      1.3173                 1.1533                 1.2100
 IR Inten    --     10.0875                 5.8913                 1.0240

                     40                     41                     42
                      A                      A                      A
 Frequencies --   1135.9066              1164.8542              1201.0794
 Red. masses --      2.1750                 2.0119                 2.1603
 Frc consts  --      1.6535                 1.6084                 1.8361
 IR Inten    --      1.8393                 7.9108                 0.4215

                     43                     44                     45
                      A                      A                      A
 Frequencies --   1240.7424              1277.1083              1287.5878
 Red. masses --      2.0668                 1.2766                 1.2032
 Frc consts  --      1.8746                 1.2268                 1.1753
 IR Inten    --      2.7242                 1.3026                 1.6338

                     46                     47                     48
                      A                      A                      A
 Frequencies --   1310.6902              1328.2778              1351.9774
 Red. masses --      1.2530                 1.2320                 1.3238
 Frc consts  --      1.2683                 1.2806                 1.4257
 IR Inten    --      4.6566                19.1468                 3.6098

                     49                     50                     51
                      A                      A                      A
 Frequencies --   1372.4575              1386.9547              1434.8538
 Red. masses --      1.4510                 1.3462                 1.2611
 Frc consts  --      1.6104                 1.5258                 1.5297
 IR Inten    --      5.7864                18.6657                 2.8496

                     52                     53                     54
                      A                      A                      A
 Frequencies --   1435.8416              1443.6231              1450.0368
 Red. masses --      1.2971                 1.4878                 1.2587
 Frc consts  --      1.5756                 1.8268                 1.5593
 IR Inten    --      1.8929                10.7828                 4.1566

                     55                     56                     57
                      A                      A                      A
 Frequencies --   1498.9657              1500.2699              1510.2479
 Red. masses --      1.0470                 1.5608                 1.0819
 Frc consts  --      1.3861                 2.0698                 1.4540
 IR Inten    --      0.1897                 4.0507                11.5688

                     58                     59                     60
                      A                      A                      A
 Frequencies --   1516.3997              1518.0142              1525.4604
 Red. masses --      1.0866                 1.0424                 1.1635
 Frc consts  --      1.4721                 1.4153                 1.5952
 IR Inten    --      6.8614                14.3956                 2.6691

                     61                     62                     63
                      A                      A                      A
 Frequencies --   1527.4666              1536.7150              1628.0228
 Red. masses --      1.0441                 1.0697                 5.9258
 Frc consts  --      1.4353                 1.4883                 9.2538
 IR Inten    --      5.0328                 3.3299                 0.1253

                     64                     65                     66
                      A                      A                      A
 Frequencies --   1673.6619              1710.7021              1721.3938
 Red. masses --      4.8148                 5.2161                 5.3337
 Frc consts  --      7.9463                 8.9938                 9.3119
 IR Inten    --      0.2830                11.5549                48.4250

                     67                     68                     69
                      A                      A                      A
 Frequencies --   3015.8003              3020.6725              3031.1729
 Red. masses --      1.0663                 1.0394                 1.0421
 Frc consts  --      5.7139                 5.5880                 5.6413
 IR Inten    --     51.1085                47.9663               106.4260

                     70                     71                     72
                      A                      A                      A
 Frequencies --   3047.6994              3062.4381              3069.0824
 Red. masses --      1.0349                 1.0994                 1.0951
 Frc consts  --      5.6638                 6.0751                 6.0772
 IR Inten    --     52.8562                16.7936                 9.7430

                     73                     74                     75
                      A                      A                      A
 Frequencies --   3070.4349              3114.5931              3123.2457
 Red. masses --      1.0992                 1.1021                 1.1031
 Frc consts  --      6.1058                 6.2988                 6.3397
 IR Inten    --     35.4221                37.4912                41.4718

                     76                     77                     78
                      A                      A                      A
 Frequencies --   3124.6514              3132.5681              3149.2555
 Red. masses --      1.0986                 1.0888                 1.0897
 Frc consts  --      6.3197                 6.2950                 6.3678
 IR Inten    --     21.3521                29.8326                12.6047

                     79                     80                     81
                      A                      A                      A
 Frequencies --   3150.9898              3162.8713              3164.4327
 Red. masses --      1.0911                 1.0869                 1.0880
 Frc consts  --      6.3829                 6.4063                 6.4190
 IR Inten    --      8.3591                19.6677                 4.5178

                     82                     83                     84
                      A                      A                      A
 Frequencies --   3176.7112              3187.9573              3195.8760
 Red. masses --      1.0843                 1.0897                 1.0903
 Frc consts  --      6.4472                 6.5249                 6.5613
 IR Inten    --      0.0901                 1.8172                66.8672

 - Thermochemistry -
 -------------------
 Temperature   298.150 Kelvin.  Pressure   1.00000 Atm.
 Atom     1 has atomic number  6 and mass  12.00000

 Molecular mass:   162.14085 amu.
 Principal axes and moments of inertia in atomic units:
                           1         2         3
     Eigenvalues --   497.772778417.888778751.68555
           X            1.00000   0.00237   0.00182
           Y           -0.00235   0.99993  -0.01143
           Z           -0.00184   0.01143   0.99993
 This molecule is an asymmetric top.
 Rotational symmetry number  1.
 Warning -- assumption of classical behavior for rotation
           may cause significant error
 Rotational temperatures (Kelvin)      0.17400     0.01029     0.00990
 Rotational constants (GHZ):           3.62563     0.21439     0.20622
 Zero-point vibrational energy     701118.9 (Joules/Mol)
                                  167.57143 (Kcal/Mol)
 Warning -- explicit consideration of  21 degrees of freedom as
           vibrations may cause significant error
 Vibrational temperatures:     36.85    57.76    79.84    98.62   172.83
          (Kelvin)            185.48   190.71   238.23   255.18   303.11
                              330.53   352.06   413.53   499.41   561.29
                              609.78   642.52   659.60   721.86   761.76
                              802.52  1034.38  1123.32  1151.38  1188.57
                             1230.36  1253.54  1285.64  1328.73  1390.81
                             1402.83  1431.40  1439.49  1473.80  1479.19
                             1489.42  1554.76  1580.24  1601.66  1634.32
                             1675.97  1728.09  1785.15  1837.47  1852.55
                             1885.79  1911.10  1945.19  1974.66  1995.52
                             2064.43  2065.86  2077.05  2086.28  2156.68
                             2158.55  2172.91  2181.76  2184.08  2194.80
                             2197.68  2210.99  2342.36  2408.03  2461.32
                             2476.70  4339.06  4346.07  4361.18  4384.96
                             4406.17  4415.72  4417.67  4481.20  4493.65
                             4495.68  4507.07  4531.08  4533.57  4550.67
                             4552.91  4570.58  4586.76  4598.15

 Zero-point correction=                           0.267042 (Hartree/Particle)
 Thermal correction to Energy=                    0.281709
 Thermal correction to Enthalpy=                  0.282654
 Thermal correction to Gibbs Free Energy=         0.223938
 Sum of electronic and zero-point Energies=           -467.848774
 Sum of electronic and thermal Energies=              -467.834107
 Sum of electronic and thermal Enthalpies=            -467.833163
 Sum of electronic and thermal Free Energies=         -467.891878

                     E (Thermal)             CV                S
                      KCal/Mol        Cal/Mol-Kelvin    Cal/Mol-Kelvin
 Total                  176.775             52.432            123.577
 Electronic               0.000              0.000              0.000
 Translational            0.889              2.981             41.159
 Rotational               0.889              2.981             31.973
 Vibrational            174.998             46.470             50.446
 Vibration     1          0.593              1.985              6.143
 Vibration     2          0.594              1.981              5.252
 Vibration     3          0.596              1.975              4.611
 Vibration     4          0.598              1.969              4.195
 Vibration     5          0.609              1.932              3.098
 Vibration     6          0.611              1.924              2.962
 Vibration     7          0.613              1.921              2.909
 Vibration     8          0.624              1.885              2.485
 Vibration     9          0.628              1.870              2.356
 Vibration    10          0.643              1.825              2.038
 Vibration    11          0.652              1.796              1.881
 Vibration    12          0.660              1.772              1.768
 Vibration    13          0.685              1.697              1.489
 Vibration    14          0.725              1.581              1.179
 Vibration    15          0.758              1.491              1.000
 Vibration    16          0.786              1.418              0.879
 Vibration    17          0.806              1.368              0.806
 Vibration    18          0.816              1.342              0.771
 Vibration    19          0.857              1.246              0.654
 Vibration    20          0.884              1.185              0.588
 Vibration    21          0.913              1.123              0.528

                           ! Non-Optimized Parameters !
 Normal termination of Gaussian 16 at Wed Dec  9 16:54:01 2020.

 ----------------------------------------------------------------------
 # B3LYP/6-311++G(d,p) empiricaldispersion=gd3bj scf=xqc pop=npa geom=c
 heck
 ----------------------------------------------------------------------

 ---------------------------------------
 CID_129694124_JID_2144_Energie_neutraal
 ---------------------------------------
 Structure from the checkpoint file:  "JID_2144.chk"
 Charge =  0 Multiplicity = 1

 SCF Done:  E(RB3LYP) =  -468.245634046     A.U. after   14 cycles
 Normal termination of Gaussian 16 at Wed Dec  9 16:56:41 2020.

 ----------------------------------------------------------------------
 # B3LYP/6-311++G(d,p) empiricaldispersion=gd3bj scf=xqc pop=npa geom=c
 heck
 ----------------------------------------------------------------------

 -------------------------------------
 CID_129694124_JID_2144_Energie_kation
 -------------------------------------
 Structure from the checkpoint file:  "JID_2144.chk"
 Charge =  1 Multiplicity = 2

 SCF Done:  E(UB3LYP) =  -467.993520427     A.U. after   18 cycles
 Normal termination of Gaussian 16 at Wed Dec  9 17:01:39 2020.
 Gaussian 16:  ES64L-G16RevA.03 25-Dec-2016

 ----------------------------------------------------------------------
 # B3LYP/6-311++G(d,p) empiricaldispersion=gd3bj scf=xqc pop=npa geom=c
 heck
 ----------------------------------------------------------------------

 ------------------------------------
 CID_129694124_JID_2144_Energie_anion
 ------------------------------------
 Structure from the checkpoint file:  "JID_2144.chk"
 Charge = -1 Multiplicity = 2

                         Standard orientation:
 ---------------------------------------------------------------------
 Center     Atomic      Atomic             Coordinates (Angstroms)
 Number     Number       Type             X           Y           Z
 ---------------------------------------------------------------------
      1          6           0        5.956652    0.436717    0.810336
      2          6           0        5.016965    0.499700   -0.406000
      3          6           0        3.876062   -0.467270   -0.299300
      4          6           0        2.574008   -0.129529   -0.254818
      5          6           0        1.499478   -1.091439   -0.132123
      6          6           0        0.166379   -0.831625   -0.081616
      7          6           0       -0.452177    0.470419   -0.142340
      8          6           0       -1.785045    0.738367   -0.091081
      9          6           0       -2.853159   -0.227839    0.035191
     10          6           0       -4.180316    0.029252    0.086942
     11          6           0       -5.173146   -1.094528    0.220662
     12          6           0       -4.794154    1.401852    0.020414
     13          1           0        5.420330    0.697608    1.728977
     14          1           0        6.797937    1.129129    0.694208
     15          1           0        6.366568   -0.572008    0.938792
     16          1           0        4.627991    1.518936   -0.523123
     17          1           0        5.600896    0.280957   -1.312877
     18          1           0        4.145597   -1.523521   -0.233100
     19          1           0        2.313031    0.925997   -0.315773
     20          1           0        1.811388   -2.133759   -0.074591
     21          1           0       -0.495900   -1.688344    0.013562
     22          1           0        0.213979    1.324228   -0.239102
     23          1           0       -2.072603    1.784806   -0.151274
     24          1           0       -2.557798   -1.273329    0.094988
     25          1           0       -5.783476   -0.976491    1.127516
     26          1           0       -5.876302   -1.102950   -0.624510
     27          1           0       -4.682549   -2.071533    0.265186
     28          1           0       -5.391729    1.599290    0.921237
     29          1           0       -4.060770    2.204250   -0.077191
     30          1           0       -5.485872    1.472264   -0.830529
 ---------------------------------------------------------------------

 SCF Done:  E(UB3LYP) =  -468.250517979     A.U. after   24 cycles

 The electronic state is 2-A.
 Alpha  occ. eigenvalues --  -10.05381 -10.05239 -10.05223 -10.05090 -10.03458
 Alpha  occ. eigenvalues --  -10.02542 -10.02528 -10.02064 -10.01226 -10.01098
 Alpha  occ. eigenvalues --  -10.00949 -10.00930  -0.69005  -0.68043  -0.65485
 Alpha  occ. eigenvalues --   -0.62347  -0.58387  -0.57887  -0.54245  -0.50751
 Alpha  occ. eigenvalues --   -0.45064  -0.43157  -0.40612  -0.37128  -0.35212
 Alpha  occ. eigenvalues --   -0.33887  -0.32711  -0.32059  -0.31637  -0.29489
 Alpha  occ. eigenvalues --   -0.28328  -0.27546  -0.26619  -0.26034  -0.25357
 Alpha  occ. eigenvalues --   -0.24643  -0.23365  -0.22450  -0.22245  -0.20967
 Alpha  occ. eigenvalues --   -0.19793  -0.17740  -0.16575  -0.11477  -0.05797
 Alpha  occ. eigenvalues --    0.04379
 Alpha virt. eigenvalues --    0.07181   0.07431   0.09105   0.09619   0.09856
 Alpha virt. eigenvalues --    0.10302   0.10593   0.11058   0.11864   0.12579
 Alpha virt. eigenvalues --    0.12672   0.13159   0.13220   0.13466   0.14803

  Beta  occ. eigenvalues --  -10.05405 -10.05265 -10.05172 -10.05112 -10.03127
  Beta  occ. eigenvalues --  -10.02601 -10.02558 -10.01761 -10.01115 -10.00984
  Beta  occ. eigenvalues --  -10.00685 -10.00667  -0.68603  -0.67711  -0.65083
  Beta  occ. eigenvalues --   -0.62000  -0.58099  -0.57830  -0.54038  -0.50622
  Beta  occ. eigenvalues --   -0.44431  -0.42831  -0.40338  -0.36914  -0.35077
  Beta  occ. eigenvalues --   -0.33766  -0.32575  -0.31693  -0.31498  -0.29339
  Beta  occ. eigenvalues --   -0.28159  -0.27448  -0.26479  -0.25907  -0.25215
  Beta  occ. eigenvalues --   -0.24554  -0.23249  -0.22352  -0.22092  -0.20800
  Beta  occ. eigenvalues --   -0.18599  -0.17591  -0.15444  -0.10240  -0.04054
  Beta virt. eigenvalues --    0.07223   0.07384   0.09033   0.09419   0.09581
  Beta virt. eigenvalues --    0.09848   0.10526   0.10921   0.11105   0.11793
  Beta virt. eigenvalues --    0.12668   0.13106   0.13125   0.13322   0.13674

 Mulliken charges and spin densities:
               1          2
     1  C   -0.040333  -0.503230
     2  C   -0.591616   0.300267
     3  C    0.244585   0.054695
     4  C   -0.141821  -0.051537
     5  C   -0.029374   0.168109
     6  C   -0.213742   0.061663
     7  C   -0.362270   0.076098
     8  C   -0.008285   0.216337
     9  C   -0.127308  -0.050651
    10  C    0.608529   0.182868
    11  C   -0.528368  -0.024523
    12  C   -0.792000  -0.009387
    13  H    0.083665   0.043727
    14  H   -0.199778   0.309613
    15  H    0.037711   0.082932
    16  H    0.109444   0.031850
    17  H    0.035247   0.073591
    18  H    0.077404  -0.007317
    19  H   -0.066999  -0.007225
    20  H    0.096399  -0.011618
    21  H    0.110402  -0.006054
    22  H    0.128351  -0.000415
    23  H    0.012337  -0.016163
    24  H   -0.106448   0.001696
    25  H    0.092238   0.021871
    26  H    0.090524   0.023719
    27  H    0.145471   0.000680
    28  H    0.092159   0.018010
    29  H    0.153114   0.000796
    30  H    0.090763   0.019598
 Sum of Mulliken charges =  -1.00000   1.00000

 Dipole moment (field-independent basis, Debye):
    X=             -2.7788    Y=             -0.0185    Z=              0.0156  Tot=              2.7789
 Quadrupole moment (field-independent basis, Debye-Ang):
   XX=           -163.5285   YY=            -84.6485   ZZ=            -91.3279
   XY=             -1.8747   XZ=             -1.6795   YZ=             -0.8242

 Summary of Natural Population Analysis:

                                       Natural Population
                Natural  -----------------------------------------------
    Atom  No    Charge         Core      Valence    Rydberg      Total
 -----------------------------------------------------------------------
      C    1   -0.28001      0.99967     2.27525    0.00510     3.28001
      C    2   -0.20853      0.99964     2.19839    0.01051     3.20853
      C    3   -0.03203      0.99955     2.02368    0.00881     3.03203
      C    4   -0.12078      0.99951     2.11288    0.00839     3.12078
      C    5   -0.06215      0.99958     2.05165    0.01091     3.06215
      C    6   -0.09016      0.99944     2.08063    0.01009     3.09016
      C    7   -0.09888      0.99960     2.08801    0.01126     3.09888
      C    8   -0.05677      0.99944     2.04765    0.00968     3.05677
      C    9   -0.13307      0.99948     2.12383    0.00976     3.13307
      C   10    0.04268      0.99954     1.94980    0.00798     2.95732
      C   11   -0.29342      0.99964     2.28966    0.00412     3.29342
      C   12   -0.29911      0.99964     2.29467    0.00481     3.29911
      H   13    0.09624      0.00000     0.40270    0.00106     0.40376
      H   14    0.09191      0.00000     0.40623    0.00186     0.40809
      H   15    0.09234      0.00000     0.40652    0.00113     0.40766
      H   16    0.09302      0.00000     0.40582    0.00117     0.40698
      H   17    0.09411      0.00000     0.40460    0.00129     0.40589
      H   18    0.07698      0.00000     0.42110    0.00192     0.42302
      H   19    0.08626      0.00000     0.41228    0.00146     0.41374
      H   20    0.08057      0.00000     0.41779    0.00164     0.41943
      H   21    0.08785      0.00000     0.41159    0.00055     0.41215
      H   22    0.08425      0.00000     0.41400    0.00175     0.41575
      H   23    0.08456      0.00000     0.41488    0.00056     0.41544
      H   24    0.08847      0.00000     0.40990    0.00163     0.41153
      H   25    0.09339      0.00000     0.40520    0.00142     0.40661
      H   26    0.09340      0.00000     0.40518    0.00142     0.40660
      H   27    0.09743      0.00000     0.40179    0.00078     0.40257
      H   28    0.09495      0.00000     0.40373    0.00132     0.40505
      H   29    0.10162      0.00000     0.39756    0.00083     0.39838
      H   30    0.09497      0.00000     0.40371    0.00132     0.40503
 =======================================================================
   * Total *    0.00011     11.99471    32.88065    0.12453    44.99989

 Normal termination of Gaussian 16 at Wed Dec  9 17:08:42 2020.
