 Gaussian 16, Revision A.03,

 -----------------------------------------------------------
 # opt freq B3LYP/6-31G(d) empiricaldispersion=gd3bj scf=xqc
 -----------------------------------------------------------

 -------------------------------
 CID_120848426_JID_5857_neutraal
 -------------------------------
 Symbolic Z-matrix:
 Charge =  0 Multiplicity = 1

 SCF Done:  E(RB3LYP) =  -656.453807344     A.U. after   13 cycles
 SCF Done:  E(RB3LYP) =  -656.458864274     A.U. after   11 cycles
 SCF Done:  E(RB3LYP) =  -656.459379300     A.U. after   10 cycles
 SCF Done:  E(RB3LYP) =  -656.459769607     A.U. after   11 cycles
 SCF Done:  E(RB3LYP) =  -656.459911828     A.U. after   10 cycles
 SCF Done:  E(RB3LYP) =  -656.460015963     A.U. after   11 cycles
 SCF Done:  E(RB3LYP) =  -656.460106577     A.U. after   10 cycles
 SCF Done:  E(RB3LYP) =  -656.460172370     A.U. after   10 cycles
 SCF Done:  E(RB3LYP) =  -656.460186082     A.U. after    9 cycles
 SCF Done:  E(RB3LYP) =  -656.460188110     A.U. after    7 cycles
 SCF Done:  E(RB3LYP) =  -656.460188282     A.U. after    7 cycles
 SCF Done:  E(RB3LYP) =  -656.460188343     A.U. after    7 cycles
 SCF Done:  E(RB3LYP) =  -656.460188340     A.U. after    6 cycles
 Optimization completed.
    -- Stationary point found.
 Normal termination of Gaussian 16 at Thu Dec 10 17:23:42 2020.

 --------------------------------------------------------------------
 #N Geom=AllCheck Guess=TCheck SCRF=Check GenChk RB3LYP/6-31G(d) Freq
 --------------------------------------------------------------------

 Structure from the checkpoint file:  "JID_5857.chk"
 -------------------------------
 CID_120848426_JID_5857_neutraal
 -------------------------------
 Charge =  0 Multiplicity = 1

 SCF Done:  E(RB3LYP) =  -656.460188340     A.U. after    1 cycles

  Exact polarizability: 159.870   0.894 129.664   1.679   1.226 126.413
 Approx polarizability: 192.926  -3.305 191.527   2.851   0.970 191.353

                      1                      2                      3
                      A                      A                      A
 Frequencies --     27.3357                45.6761                49.4110
 Red. masses --      4.0323                 4.2760                 3.3486
 Frc consts  --      0.0018                 0.0053                 0.0048
 IR Inten    --      0.2372                 0.4821                 0.3168

                      4                      5                      6
                      A                      A                      A
 Frequencies --     85.2881               110.7644               131.4368
 Red. masses --      3.1127                 4.0807                 3.0303
 Frc consts  --      0.0133                 0.0295                 0.0308
 IR Inten    --      0.3871                 2.5509                 0.3326

                      7                      8                      9
                      A                      A                      A
 Frequencies --    160.1396               188.8463               223.0714
 Red. masses --      3.0907                 2.8853                 2.5344
 Frc consts  --      0.0467                 0.0606                 0.0743
 IR Inten    --      1.8400                 0.7517                 0.6226

                     10                     11                     12
                      A                      A                      A
 Frequencies --    251.8122               260.0833               288.6230
 Red. masses --      1.6315                 1.5094                 2.2066
 Frc consts  --      0.0610                 0.0602                 0.1083
 IR Inten    --      0.8324                 0.8806                 0.2466

                     13                     14                     15
                      A                      A                      A
 Frequencies --    297.3696               322.3525               372.3656
 Red. masses --      1.7892                 2.0410                 2.4495
 Frc consts  --      0.0932                 0.1250                 0.2001
 IR Inten    --     28.9702                 9.7694                 3.3619

                     16                     17                     18
                      A                      A                      A
 Frequencies --    381.7647               386.9964               408.0161
 Red. masses --      1.4679                 1.9178                 1.7917
 Frc consts  --      0.1260                 0.1692                 0.1757
 IR Inten    --     78.0454                 4.7996                39.4699

                     19                     20                     21
                      A                      A                      A
 Frequencies --    418.9227               451.2438               474.6537
 Red. masses --      2.2004                 2.7525                 3.2179
 Frc consts  --      0.2275                 0.3302                 0.4272
 IR Inten    --      6.9757                 1.7245                 3.6539

                     22                     23                     24
                      A                      A                      A
 Frequencies --    497.8836               512.4560               570.5059
 Red. masses --      2.3762                 2.8104                 2.7887
 Frc consts  --      0.3470                 0.4348                 0.5348
 IR Inten    --      3.8876                 7.2149                25.1277

                     25                     26                     27
                      A                      A                      A
 Frequencies --    640.3610               733.8850               798.1752
 Red. masses --      2.0386                 3.4149                 2.2413
 Frc consts  --      0.4925                 1.0836                 0.8413
 IR Inten    --     19.8449                 3.2791                34.1468

                     28                     29                     30
                      A                      A                      A
 Frequencies --    803.9939               810.5784               830.5424
 Red. masses --      1.0846                 1.9515                 1.5477
 Frc consts  --      0.4131                 0.7555                 0.6290
 IR Inten    --      5.5411                37.2711                 0.7505

                     31                     32                     33
                      A                      A                      A
 Frequencies --    871.0317               878.5910               882.8820
 Red. masses --      2.5614                 2.8132                 2.2681
 Frc consts  --      1.1450                 1.2795                 1.0417
 IR Inten    --      4.4988                24.1080                 1.0595

                     34                     35                     36
                      A                      A                      A
 Frequencies --    910.6246               933.9468               950.6429
 Red. masses --      2.0990                 1.7133                 1.7636
 Frc consts  --      1.0255                 0.8805                 0.9390
 IR Inten    --      3.5526                 4.0552                10.4118

                     37                     38                     39
                      A                      A                      A
 Frequencies --    968.3013               985.3468               988.5554
 Red. masses --      1.9168                 2.0036                 1.6510
 Frc consts  --      1.0589                 1.1461                 0.9506
 IR Inten    --      6.6749                 4.7540                 2.0496

                     40                     41                     42
                      A                      A                      A
 Frequencies --   1033.1651              1038.2995              1045.3939
 Red. masses --      1.9494                 1.7108                 1.8979
 Frc consts  --      1.2260                 1.0867                 1.2220
 IR Inten    --     36.2787                11.4548                 8.2563

                     43                     44                     45
                      A                      A                      A
 Frequencies --   1065.8138              1068.4463              1073.1587
 Red. masses --      1.5033                 1.8854                 1.7403
 Frc consts  --      1.0062                 1.2681                 1.1809
 IR Inten    --     10.2927                15.6856                18.3118

                     46                     47                     48
                      A                      A                      A
 Frequencies --   1076.6314              1084.7215              1095.4527
 Red. masses --      4.7651                 2.0294                 1.3938
 Frc consts  --      3.2543                 1.4069                 0.9854
 IR Inten    --     78.3969                16.1839                 3.7672

                     49                     50                     51
                      A                      A                      A
 Frequencies --   1113.9361              1138.6685              1154.4517
 Red. masses --      1.6604                 1.9885                 2.9258
 Frc consts  --      1.2139                 1.5191                 2.2974
 IR Inten    --      8.9897                32.7456                 8.5930

                     52                     53                     54
                      A                      A                      A
 Frequencies --   1172.3188              1195.9544              1199.5540
 Red. masses --      1.5077                 1.6198                 1.2487
 Frc consts  --      1.2208                 1.3650                 1.0586
 IR Inten    --      9.9385                13.7932                 4.4849

                     55                     56                     57
                      A                      A                      A
 Frequencies --   1207.5683              1218.5298              1219.1093
 Red. masses --      1.4751                 1.2826                 1.1560
 Frc consts  --      1.2674                 1.1220                 1.0122
 IR Inten    --      1.6363                 7.9704                 9.1127

                     58                     59                     60
                      A                      A                      A
 Frequencies --   1250.6725              1292.3117              1299.2877
 Red. masses --      1.6609                 1.7992                 1.4617
 Frc consts  --      1.5307                 1.7704                 1.4539
 IR Inten    --      3.7308                14.5333                 1.8046

                     61                     62                     63
                      A                      A                      A
 Frequencies --   1319.2997              1330.1077              1346.0092
 Red. masses --      1.3952                 1.2103                 1.8426
 Frc consts  --      1.4308                 1.2616                 1.9669
 IR Inten    --     11.5874                 1.8314                 9.0427

                     64                     65                     66
                      A                      A                      A
 Frequencies --   1355.9703              1367.3689              1369.2549
 Red. masses --      1.5667                 1.3431                 1.4438
 Frc consts  --      1.6972                 1.4795                 1.5949
 IR Inten    --      2.9465                25.2463                15.4871

                     67                     68                     69
                      A                      A                      A
 Frequencies --   1383.9432              1392.0677              1403.4555
 Red. masses --      1.3595                 1.3791                 1.4648
 Frc consts  --      1.5341                 1.5746                 1.6999
 IR Inten    --     16.5685                 7.6077                 0.6903

                     70                     71                     72
                      A                      A                      A
 Frequencies --   1406.5156              1429.6512              1438.9220
 Red. masses --      1.4710                 1.3973                 1.3763
 Frc consts  --      1.7146                 1.6827                 1.6790
 IR Inten    --      2.9010                 8.6784                19.9342

                     73                     74                     75
                      A                      A                      A
 Frequencies --   1442.4660              1453.9117              1477.2965
 Red. masses --      1.3348                 1.4819                 1.1047
 Frc consts  --      1.6364                 1.8456                 1.4205
 IR Inten    --     54.2651                 3.6591                 3.5155

                     76                     77                     78
                      A                      A                      A
 Frequencies --   1482.3759              1496.5981              1507.4163
 Red. masses --      1.1810                 1.1633                 1.1829
 Frc consts  --      1.5290                 1.5352                 1.5837
 IR Inten    --      0.3239                 6.0866                 0.7593

                     79                     80                     81
                      A                      A                      A
 Frequencies --   1513.5984              1521.4017              1522.4480
 Red. masses --      1.0941                 1.0643                 1.2059
 Frc consts  --      1.4768                 1.4515                 1.6469
 IR Inten    --      5.5861                 6.1380                 5.5239

                     82                     83                     84
                      A                      A                      A
 Frequencies --   1528.1518              1533.4771              1535.2856
 Red. masses --      1.1715                 1.0863                 1.1172
 Frc consts  --      1.6118                 1.5051                 1.5516
 IR Inten    --      2.1677                 3.3714                 0.6131

                     85                     86                     87
                      A                      A                      A
 Frequencies --   1537.5566              1542.2565              1545.4462
 Red. masses --      1.1102                 1.1051                 1.0991
 Frc consts  --      1.5464                 1.5486                 1.5467
 IR Inten    --      2.7182                 3.2001                 7.6017

                     88                     89                     90
                      A                      A                      A
 Frequencies --   2918.9362              2924.8345              2934.7042
 Red. masses --      1.0745                 1.0725                 1.0732
 Frc consts  --      5.3940                 5.4058                 5.4458
 IR Inten    --     22.4083               133.4261                48.4534

                     91                     92                     93
                      A                      A                      A
 Frequencies --   2949.9272              2990.5422              2995.3664
 Red. masses --      1.0620                 1.0692                 1.0709
 Frc consts  --      5.4448                 5.6340                 5.6610
 IR Inten    --    110.9463                48.8384                66.5659

                     94                     95                     96
                      A                      A                      A
 Frequencies --   3029.0271              3045.2446              3056.4886
 Red. masses --      1.0794                 1.0633                 1.0665
 Frc consts  --      5.8352                 5.8094                 5.8700
 IR Inten    --     23.7468                33.6098                32.3775

                     97                     98                     99
                      A                      A                      A
 Frequencies --   3076.1683              3076.8579              3079.1289
 Red. masses --      1.0916                 1.0874                 1.0866
 Frc consts  --      6.0863                 6.0651                 6.0698
 IR Inten    --     26.5785                70.4115                31.3533

                    100                    101                    102
                      A                      A                      A
 Frequencies --   3081.2040              3083.5151              3087.5826
 Red. masses --      1.0732                 1.0932                 1.1023
 Frc consts  --      6.0030                 6.1241                 6.1916
 IR Inten    --     19.0823                44.8709                43.1838

                    103                    104                    105
                      A                      A                      A
 Frequencies --   3092.5894              3107.5974              3128.0031
 Red. masses --      1.0861                 1.1012                 1.1027
 Frc consts  --      6.1201                 6.2654                 6.3571
 IR Inten    --     42.4115                29.7642                36.9760

                    106                    107                    108
                      A                      A                      A
 Frequencies --   3139.6062              3147.3799              3229.3225
 Red. masses --      1.0579                 1.0566                 1.1153
 Frc consts  --      6.1438                 6.1668                 6.8527
 IR Inten    --     22.7121                16.3366                 4.0333

                    109                    110                    111
                      A                      A                      A
 Frequencies --   3243.3110              3496.5262              3727.2956
 Red. masses --      1.1118                 1.0745                 1.0657
 Frc consts  --      6.8904                 7.7401                 8.7229
 IR Inten    --     13.8815                 3.4018                 5.7571

 - Thermochemistry -
 -------------------
 Temperature   298.150 Kelvin.  Pressure   1.00000 Atm.
 Atom     1 has atomic number  6 and mass  12.00000

 Molecular mass:   212.18886 amu.
 Principal axes and moments of inertia in atomic units:
                           1         2         3
     Eigenvalues --  1397.553126569.255716783.25388
           X            0.99997   0.00764   0.00169
           Y           -0.00757   0.99936  -0.03495
           Z           -0.00196   0.03493   0.99939
 This molecule is an asymmetric top.
 Rotational symmetry number  1.
 Warning -- assumption of classical behavior for rotation
           may cause significant error
 Rotational temperatures (Kelvin)      0.06198     0.01318     0.01277
 Rotational constants (GHZ):           1.29136     0.27473     0.26606
 Zero-point vibrational energy     943682.1 (Joules/Mol)
                                  225.54544 (Kcal/Mol)
 Warning -- explicit consideration of  24 degrees of freedom as
           vibrations may cause significant error
 Vibrational temperatures:     39.33    65.72    71.09   122.71   159.37
          (Kelvin)            189.11   230.41   271.71   320.95   362.30
                              374.20   415.26   427.85   463.79   535.75
                              549.27   556.80   587.04   602.74   649.24
                              682.92   716.34   737.31   820.83   921.34
                             1055.90  1148.40  1156.77  1166.24  1194.97
                             1253.22  1264.10  1270.27  1310.19  1343.74
                             1367.76  1393.17  1417.69  1422.31  1486.49
                             1493.88  1504.09  1533.47  1537.26  1544.04
                             1549.03  1560.67  1576.11  1602.71  1638.29
                             1661.00  1686.71  1720.71  1725.89  1737.42
                             1753.19  1754.03  1799.44  1859.35  1869.39
                             1898.18  1913.73  1936.61  1950.94  1967.34
                             1970.05  1991.19  2002.87  2019.26  2023.66
                             2056.95  2070.29  2075.39  2091.85  2125.50
                             2132.81  2153.27  2168.84  2177.73  2188.96
                             2190.46  2198.67  2206.33  2208.93  2212.20
                             2218.96  2223.55  4199.70  4208.18  4222.38
                             4244.29  4302.72  4309.66  4358.09  4381.43
                             4397.61  4425.92  4426.91  4430.18  4433.17
                             4436.49  4442.34  4449.55  4471.14  4500.50
                             4517.19  4528.38  4646.27  4666.40  5030.72
                             5362.75

 Zero-point correction=                           0.359430 (Hartree/Particle)
 Thermal correction to Energy=                    0.375230
 Thermal correction to Enthalpy=                  0.376174
 Thermal correction to Gibbs Free Energy=         0.315851
 Sum of electronic and zero-point Energies=           -656.100759
 Sum of electronic and thermal Energies=              -656.084958
 Sum of electronic and thermal Enthalpies=            -656.084014
 Sum of electronic and thermal Free Energies=         -656.144337

                     E (Thermal)             CV                S
                      KCal/Mol        Cal/Mol-Kelvin    Cal/Mol-Kelvin
 Total                  235.460             61.586            126.961
 Electronic               0.000              0.000              0.000
 Translational            0.889              2.981             41.960
 Rotational               0.889              2.981             32.499
 Vibrational            233.683             55.625             52.502
 Vibration     1          0.593              1.984              6.014
 Vibration     2          0.595              1.979              4.996
 Vibration     3          0.595              1.978              4.841
 Vibration     4          0.601              1.959              3.765
 Vibration     5          0.607              1.941              3.255
 Vibration     6          0.612              1.922              2.925
 Vibration     7          0.622              1.891              2.548
 Vibration     8          0.633              1.855              2.239
 Vibration     9          0.649              1.806              1.934
 Vibration    10          0.664              1.760              1.718
 Vibration    11          0.668              1.746              1.661
 Vibration    12          0.685              1.695              1.482
 Vibration    13          0.691              1.679              1.432
 Vibration    14          0.707              1.631              1.298
 Vibration    15          0.744              1.529              1.070
 Vibration    16          0.751              1.509              1.032
 Vibration    17          0.755              1.498              1.012
 Vibration    18          0.773              1.453              0.934
 Vibration    19          0.782              1.429              0.896
 Vibration    20          0.810              1.358              0.792
 Vibration    21          0.831              1.306              0.725
 Vibration    22          0.853              1.255              0.663
 Vibration    23          0.868              1.222              0.628
 Vibration    24          0.927              1.095              0.503

 Optimization completed.
    -- Stationary point found.
 Normal termination of Gaussian 16 at Thu Dec 10 17:37:39 2020.

 ----------------------------------------------------------------------
 # B3LYP/6-311++G(d,p) empiricaldispersion=gd3bj scf=xqc pop=npa geom=c
 heck
 ----------------------------------------------------------------------

 ---------------------------------------
 CID_120848426_JID_5857_Energie_neutraal
 ---------------------------------------
 Structure from the checkpoint file:  "JID_5857.chk"
 Charge =  0 Multiplicity = 1

 SCF Done:  E(RB3LYP) =  -656.655686950     A.U. after   13 cycles
 Normal termination of Gaussian 16 at Thu Dec 10 17:43:41 2020.

 ----------------------------------------------------------------------
 # B3LYP/6-311++G(d,p) empiricaldispersion=gd3bj scf=xqc pop=npa geom=c
 heck
 ----------------------------------------------------------------------

 -------------------------------------
 CID_120848426_JID_5857_Energie_kation
 -------------------------------------
 Structure from the checkpoint file:  "JID_5857.chk"
 Charge =  1 Multiplicity = 2

 SCF Done:  E(UB3LYP) =  -656.372784832     A.U. after   24 cycles
 Normal termination of Gaussian 16 at Thu Dec 10 18:00:37 2020.
 Gaussian 16:  ES64L-G16RevA.03 25-Dec-2016

 ----------------------------------------------------------------------
 # B3LYP/6-311++G(d,p) empiricaldispersion=gd3bj scf=xqc pop=npa geom=c
 heck
 ----------------------------------------------------------------------

 ------------------------------------
 CID_120848426_JID_5857_Energie_anion
 ------------------------------------
 Structure from the checkpoint file:  "JID_5857.chk"
 Charge = -1 Multiplicity = 2

                         Standard orientation:
 ---------------------------------------------------------------------
 Center     Atomic      Atomic             Coordinates (Angstroms)
 Number     Number       Type             X           Y           Z
 ---------------------------------------------------------------------
      1          6           0        0.832793   -1.571970    1.674344
      2          7           0        0.453917   -0.730514    0.546970
      3          6           0       -0.844215   -1.113058   -0.010574
      4          6           0       -1.533595    0.046060   -0.749826
      5          6           0       -1.890874    1.203252    0.203539
      6          6           0       -3.108142    0.881367    1.074933
      7          7           0       -4.243491    0.518783    0.224874
      8          6           0       -3.968177   -0.689070   -0.553633
      9          6           0       -2.794383   -0.423324   -1.501204
     10          6           0        1.523242   -0.685764   -0.453914
     11          6           0        2.507413    0.469206   -0.270022
     12          6           0        1.986354    1.881807   -0.278292
     13          6           0        2.507888    1.287808    1.005346
     14          6           0        3.853432    0.219067   -0.917585
     15          8           0        4.551007   -0.872251   -0.323051
     16          1           0        0.091484   -1.479578    2.475275
     17          1           0        1.800869   -1.246318    2.066573
     18          1           0        0.923704   -2.641265    1.403442
     19          1           0       -0.755197   -1.984236   -0.688066
     20          1           0       -1.473133   -1.441671    0.822764
     21          1           0       -0.822935    0.427539   -1.495177
     22          1           0       -1.028555    1.430122    0.838918
     23          1           0       -2.122607    2.096991   -0.388465
     24          1           0       -2.848443    0.080503    1.795684
     25          1           0       -3.383266    1.762289    1.665933
     26          1           0       -5.069184    0.372603    0.801437
     27          1           0       -4.863507   -0.941811   -1.132971
     28          1           0       -3.740339   -1.564734    0.086457
     29          1           0       -3.100954    0.360048   -2.204553
     30          1           0       -2.576298   -1.325477   -2.087393
     31          1           0        2.092766   -1.629666   -0.454892
     32          1           0        1.074765   -0.592146   -1.449327
     33          1           0        2.576499    2.648759   -0.773778
     34          1           0        0.911865    2.014055   -0.360745
     35          1           0        1.771967    1.040804    1.761966
     36          1           0        3.461246    1.648167    1.387015
     37          1           0        3.730705   -0.055756   -1.971706
     38          1           0        4.457781    1.140050   -0.885855
     39          1           0        4.579306   -0.691433    0.630293
 ---------------------------------------------------------------------

 SCF Done:  E(UB3LYP) =  -656.642538098     A.U. after   28 cycles

 The electronic state is 2-A.
 Alpha  occ. eigenvalues --  -19.03000 -14.21110 -14.19764 -10.12705 -10.09986
 Alpha  occ. eigenvalues --  -10.09527 -10.09304 -10.09239 -10.09070 -10.09014
 Alpha  occ. eigenvalues --  -10.07886 -10.07794 -10.07635 -10.07076 -10.06408
 Alpha  occ. eigenvalues --   -0.93137  -0.83400  -0.81261  -0.77113  -0.70413
 Alpha  occ. eigenvalues --   -0.65510  -0.63044  -0.60832  -0.59758  -0.53747
 Alpha  occ. eigenvalues --   -0.52565  -0.51115  -0.50693  -0.46118  -0.43591
 Alpha  occ. eigenvalues --   -0.42598  -0.41693  -0.39258  -0.38874  -0.37960
 Alpha  occ. eigenvalues --   -0.36427  -0.35456  -0.35059  -0.34230  -0.33602
 Alpha  occ. eigenvalues --   -0.32515  -0.31318  -0.30530  -0.29505  -0.28841
 Alpha  occ. eigenvalues --   -0.28334  -0.27684  -0.27225  -0.26380  -0.25234
 Alpha  occ. eigenvalues --   -0.24763  -0.22703  -0.21754  -0.21519  -0.20348
 Alpha  occ. eigenvalues --   -0.19422  -0.18349  -0.13159  -0.12525   0.04150
 Alpha virt. eigenvalues --    0.05649   0.06740   0.07224   0.07695   0.08169
 Alpha virt. eigenvalues --    0.08663   0.09402   0.09743   0.10241   0.10385
 Alpha virt. eigenvalues --    0.10713   0.11220   0.11936   0.12489   0.12771

  Beta  occ. eigenvalues --  -19.02973 -14.21104 -14.19740 -10.12692 -10.09978
  Beta  occ. eigenvalues --  -10.09514 -10.09281 -10.09239 -10.09048 -10.08988
  Beta  occ. eigenvalues --  -10.07881 -10.07793 -10.07604 -10.07069 -10.06405
  Beta  occ. eigenvalues --   -0.93079  -0.83385  -0.81226  -0.77096  -0.70394
  Beta  occ. eigenvalues --   -0.65479  -0.63017  -0.60798  -0.59717  -0.53701
  Beta  occ. eigenvalues --   -0.52527  -0.51066  -0.50647  -0.46081  -0.43553
  Beta  occ. eigenvalues --   -0.42558  -0.41628  -0.39226  -0.38849  -0.37918
  Beta  occ. eigenvalues --   -0.36403  -0.35423  -0.35022  -0.34210  -0.33578
  Beta  occ. eigenvalues --   -0.32490  -0.31291  -0.30502  -0.29477  -0.28810
  Beta  occ. eigenvalues --   -0.28311  -0.27659  -0.27201  -0.26357  -0.25207
  Beta  occ. eigenvalues --   -0.24743  -0.22687  -0.21725  -0.21498  -0.20323
  Beta  occ. eigenvalues --   -0.19400  -0.18327  -0.13113  -0.12491
  Beta virt. eigenvalues --    0.06234   0.06873   0.07070   0.07646   0.08274
  Beta virt. eigenvalues --    0.08473   0.08962   0.09658   0.09985   0.10631
  Beta virt. eigenvalues --    0.10648   0.11054   0.11527   0.12145   0.12852

 Mulliken charges and spin densities:
               1          2
     1  C    0.596203  -0.846565
     2  N    0.305278   0.118317
     3  C   -1.005243  -0.085911
     4  C    0.798938  -0.063713
     5  C   -0.712307   0.391370
     6  C    1.006750  -1.469030
     7  N   -0.406002   0.282021
     8  C    0.618090  -1.023086
     9  C   -1.178580   0.642196
    10  C   -0.641172  -0.411731
    11  C   -0.669464   1.403991
    12  C    0.022363  -0.504945
    13  C    0.362427  -0.774145
    14  C    0.928616  -1.320225
    15  O   -0.205051   0.020122
    16  H   -0.190713   0.338468
    17  H   -0.095721   0.237687
    18  H   -0.105401   0.226341
    19  H    0.059820   0.077378
    20  H    0.316578  -0.139488
    21  H    0.145113   0.010211
    22  H    0.448349  -0.320326
    23  H    0.093046   0.073201
    24  H   -0.208906   0.350922
    25  H   -0.175498   0.354550
    26  H   -0.141026   0.395459
    27  H   -0.381214   0.568120
    28  H   -0.291385   0.396715
    29  H    0.121493   0.033026
    30  H   -0.064314   0.188756
    31  H    0.239667  -0.058184
    32  H    0.022218   0.079405
    33  H    0.076672   0.083871
    34  H    0.042556   0.093873
    35  H   -0.060177   0.230573
    36  H   -0.650623   0.824349
    37  H    0.123241   0.052590
    38  H   -0.132402   0.273867
    39  H   -0.012218   0.269967
 Sum of Mulliken charges =  -1.00000   1.00000

 Dipole moment (field-independent basis, Debye):
    X=              0.8896    Y=              0.9315    Z=             -4.2237  Tot=              4.4157
 Quadrupole moment (field-independent basis, Debye-Ang):
   XX=           -212.1705   YY=           -132.7154   ZZ=           -132.1314
   XY=             -1.2872   XZ=             -3.6775   YZ=             -2.5799

 Summary of Natural Population Analysis:

                                       Natural Population
                Natural  -----------------------------------------------
    Atom  No    Charge         Core      Valence    Rydberg      Total
 -----------------------------------------------------------------------
      C    1   -0.17393      0.99964     2.16602    0.00827     3.17393
      N    2   -0.29197      0.99972     2.77905    0.01321     3.79197
      C    3   -0.08103      0.99958     2.07002    0.01142     3.08103
      C    4   -0.11602      0.99958     2.10621    0.01023     3.11602
      C    5   -0.19557      0.99960     2.18696    0.00901     3.19557
      C    6   -0.08826      0.99962     2.07689    0.01175     3.08826
      N    7   -0.34270      0.99974     2.83030    0.01266     3.84270
      C    8   -0.08817      0.99962     2.07678    0.01176     3.08817
      C    9   -0.19149      0.99961     2.18251    0.00936     3.19149
      C   10   -0.07825      0.99956     2.06812    0.01057     3.07825
      C   11   -0.06728      0.99954     2.05422    0.01352     3.06728
      C   12   -0.19553      0.99958     2.18721    0.00874     3.19553
      C   13   -0.19749      0.99959     2.18672    0.01119     3.19749
      C   14   -0.00285      0.99952     1.98988    0.01346     3.00285
      O   15   -0.37023      0.99990     3.36370    0.00662     4.37023
      H   16    0.09666      0.00000     0.40221    0.00113     0.40334
      H   17    0.09789      0.00000     0.40067    0.00145     0.40211
      H   18    0.08119      0.00000     0.41772    0.00109     0.41881
      H   19    0.08297      0.00000     0.41578    0.00125     0.41703
      H   20    0.09837      0.00000     0.39945    0.00218     0.40163
      H   21    0.09639      0.00000     0.40190    0.00171     0.40361
      H   22    0.10640      0.00000     0.39186    0.00173     0.39360
      H   23    0.09679      0.00000     0.40199    0.00121     0.40321
      H   24    0.07804      0.00000     0.42011    0.00185     0.42196
      H   25    0.09543      0.00000     0.40351    0.00106     0.40457
      H   26    0.17683      0.00000     0.31925    0.00392     0.32317
      H   27    0.09533      0.00000     0.40338    0.00129     0.40467
      H   28    0.07767      0.00000     0.42044    0.00189     0.42233
      H   29    0.09892      0.00000     0.39988    0.00120     0.40108
      H   30    0.09787      0.00000     0.40122    0.00090     0.40213
      H   31    0.09560      0.00000     0.40282    0.00159     0.40440
      H   32    0.09475      0.00000     0.40396    0.00128     0.40525
      H   33    0.09951      0.00000     0.39965    0.00084     0.40049
      H   34    0.10595      0.00000     0.39277    0.00128     0.39405
      H   35    0.11112      0.00000     0.38722    0.00166     0.38888
      H   36    0.10304      0.00000     0.39506    0.00190     0.39696
      H   37    0.08474      0.00000     0.41415    0.00111     0.41526
      H   38    0.07942      0.00000     0.41915    0.00143     0.42058
      H   39    0.22988      0.00000     0.26560    0.00452     0.27012
 =======================================================================
   * Total *   -0.00000     14.99440    43.80434    0.20125    59.00000

 Normal termination of Gaussian 16 at Thu Dec 10 18:17:55 2020.
