 Gaussian 16, Revision A.03,

 -----------------------------------------------------------
 # opt freq B3LYP/6-31G(d) empiricaldispersion=gd3bj scf=xqc
 -----------------------------------------------------------

 -------------------------------
 CID_62747119_JID_10385_neutraal
 -------------------------------
 Symbolic Z-matrix:
 Charge =  0 Multiplicity = 1

 SCF Done:  E(RB3LYP) =  -877.894678966     A.U. after   14 cycles
 SCF Done:  E(RB3LYP) =  -877.901306154     A.U. after   12 cycles
 SCF Done:  E(RB3LYP) =  -877.902768789     A.U. after   13 cycles
 SCF Done:  E(RB3LYP) =  -877.903766998     A.U. after   13 cycles
 SCF Done:  E(RB3LYP) =  -877.904463685     A.U. after   12 cycles
 SCF Done:  E(RB3LYP) =  -877.904847595     A.U. after   12 cycles
 SCF Done:  E(RB3LYP) =  -877.905138001     A.U. after   13 cycles
 SCF Done:  E(RB3LYP) =  -877.905320502     A.U. after   12 cycles
 SCF Done:  E(RB3LYP) =  -877.905574503     A.U. after   13 cycles
 SCF Done:  E(RB3LYP) =  -877.905572171     A.U. after   12 cycles
 SCF Done:  E(RB3LYP) =  -877.905924431     A.U. after   10 cycles
 SCF Done:  E(RB3LYP) =  -877.905926806     A.U. after   10 cycles
 SCF Done:  E(RB3LYP) =  -877.905927254     A.U. after    9 cycles
 SCF Done:  E(RB3LYP) =  -877.905927399     A.U. after    7 cycles
 SCF Done:  E(RB3LYP) =  -877.905927435     A.U. after    7 cycles
 Optimization completed.
    -- Stationary point found.
 Normal termination of Gaussian 16 at Mon Dec 14 14:09:26 2020.

 --------------------------------------------------------------------
 #N Geom=AllCheck Guess=TCheck SCRF=Check GenChk RB3LYP/6-31G(d) Freq
 --------------------------------------------------------------------

 Structure from the checkpoint file:  "JID_10385.chk"
 -------------------------------
 CID_62747119_JID_10385_neutraal
 -------------------------------
 Charge =  0 Multiplicity = 1

 SCF Done:  E(RB3LYP) =  -877.905927435     A.U. after    1 cycles

  Exact polarizability: 216.004   9.394 156.927  -6.420  10.367 163.093
 Approx polarizability: 264.314  18.239 265.667 -11.347  26.819 294.419

                      1                      2                      3
                      A                      A                      A
 Frequencies --     12.6675                21.0614                23.8913
 Red. masses --      5.0443                 2.8845                 6.0156
 Frc consts  --      0.0005                 0.0008                 0.0020
 IR Inten    --      0.4154                 0.2096                 0.2526

                      4                      5                      6
                      A                      A                      A
 Frequencies --     28.9862                37.9416                65.4045
 Red. masses --      4.3579                 5.1184                 3.6472
 Frc consts  --      0.0022                 0.0043                 0.0092
 IR Inten    --      1.0225                 0.6640                 0.6598

                      7                      8                      9
                      A                      A                      A
 Frequencies --    102.6461               117.6439               156.6796
 Red. masses --      4.2130                 2.9337                 4.0675
 Frc consts  --      0.0262                 0.0239                 0.0588
 IR Inten    --      1.0811                 0.5255                 2.9562

                     10                     11                     12
                      A                      A                      A
 Frequencies --    168.2248               210.8844               238.9733
 Red. masses --      5.6588                 2.9196                 1.9951
 Frc consts  --      0.0944                 0.0765                 0.0671
 IR Inten    --      1.9517                 1.5760                 2.7699

                     13                     14                     15
                      A                      A                      A
 Frequencies --    262.0825               271.3723               276.8716
 Red. masses --      1.2376                 1.2910                 2.7940
 Frc consts  --      0.0501                 0.0560                 0.1262
 IR Inten    --      1.2844                 0.7744                 0.9545

                     16                     17                     18
                      A                      A                      A
 Frequencies --    332.2570               360.5567               375.0734
 Red. masses --      3.7119                 2.5673                 2.8174
 Frc consts  --      0.2414                 0.1966                 0.2335
 IR Inten    --      1.2818                 3.2225                 2.5365

                     19                     20                     21
                      A                      A                      A
 Frequencies --    400.9367               413.1087               415.7686
 Red. masses --      2.2179                 2.4616                 4.3038
 Frc consts  --      0.2101                 0.2475                 0.4383
 IR Inten    --      3.2958                 5.0957                 4.4274

                     22                     23                     24
                      A                      A                      A
 Frequencies --    426.3726               432.5700               465.7951
 Red. masses --      3.3151                 4.0849                 2.6230
 Frc consts  --      0.3551                 0.4503                 0.3353
 IR Inten    --      1.2219                 2.4411                16.9387

                     25                     26                     27
                      A                      A                      A
 Frequencies --    492.1992               509.1551               522.3847
 Red. masses --      2.6499                 3.7438                 4.5244
 Frc consts  --      0.3782                 0.5718                 0.7274
 IR Inten    --      9.4827                 7.8749                 6.0961

                     28                     29                     30
                      A                      A                      A
 Frequencies --    567.6787               632.3177               655.1181
 Red. masses --      2.3724                 2.4432                 3.1431
 Frc consts  --      0.4504                 0.5755                 0.7948
 IR Inten    --     30.1584                24.2596               125.0624

                     31                     32                     33
                      A                      A                      A
 Frequencies --    663.1867               694.3598               726.4252
 Red. masses --      5.7960                 6.9134                 3.1059
 Frc consts  --      1.5019                 1.9639                 0.9657
 IR Inten    --     10.6556                 7.4656                 1.3103

                     34                     35                     36
                      A                      A                      A
 Frequencies --    741.6707               781.5630               801.3729
 Red. masses --      2.7593                 3.3407                 2.8572
 Frc consts  --      0.8943                 1.2023                 1.0811
 IR Inten    --     13.6887                 8.4194                12.2995

                     37                     38                     39
                      A                      A                      A
 Frequencies --    812.5369               833.3771               843.5541
 Red. masses --      1.3184                 2.1673                 1.7961
 Frc consts  --      0.5129                 0.8868                 0.7530
 IR Inten    --      1.3532                13.9133                14.3031

                     40                     41                     42
                      A                      A                      A
 Frequencies --    852.9070               875.5372               891.5665
 Red. masses --      2.8984                 2.7134                 2.8000
 Frc consts  --      1.2423                 1.2255                 1.3113
 IR Inten    --     38.8148                 9.4986                14.0037

                     43                     44                     45
                      A                      A                      A
 Frequencies --    933.1062               937.1656               978.3037
 Red. masses --      1.3091                 1.3110                 1.3868
 Frc consts  --      0.6716                 0.6784                 0.7820
 IR Inten    --      0.5361                 0.7869                 0.3450

                     46                     47                     48
                      A                      A                      A
 Frequencies --   1003.4638              1008.5233              1013.8971
 Red. masses --      3.4148                 2.5636                 1.8442
 Frc consts  --      2.0259                 1.5363                 1.1170
 IR Inten    --      3.9521                 4.7547                 1.2624

                     49                     50                     51
                      A                      A                      A
 Frequencies --   1021.4389              1028.3173              1032.5774
 Red. masses --      3.2635                 3.1281                 2.4088
 Frc consts  --      2.0061                 1.9489                 1.5132
 IR Inten    --      8.4616                57.2186                15.5439

                     52                     53                     54
                      A                      A                      A
 Frequencies --   1064.5706              1082.5333              1104.8936
 Red. masses --      2.7764                 1.5039                 2.0296
 Frc consts  --      1.8538                 1.0384                 1.4598
 IR Inten    --     75.1650                 5.8186                 7.1021

                     55                     56                     57
                      A                      A                      A
 Frequencies --   1107.8009              1119.0203              1134.1120
 Red. masses --      1.9980                 2.3818                 1.2785
 Frc consts  --      1.4447                 1.7573                 0.9688
 IR Inten    --     18.3380                17.5523                10.6196

                     58                     59                     60
                      A                      A                      A
 Frequencies --   1149.9475              1196.8721              1199.9286
 Red. masses --      1.3853                 1.4680                 1.2186
 Frc consts  --      1.0793                 1.2390                 1.0338
 IR Inten    --     10.7069                 8.6591                14.6352

                     61                     62                     63
                      A                      A                      A
 Frequencies --   1204.0634              1213.7048              1239.6101
 Red. masses --      2.0846                 1.6121                 2.1635
 Frc consts  --      1.7806                 1.3992                 1.9587
 IR Inten    --      5.3755                 0.2593                 7.2766

                     64                     65                     66
                      A                      A                      A
 Frequencies --   1250.6384              1260.4937              1283.6443
 Red. masses --      3.0677                 2.4309                 2.0874
 Frc consts  --      2.8270                 2.2756                 2.0265
 IR Inten    --      3.5370               238.4373                14.2868

                     67                     68                     69
                      A                      A                      A
 Frequencies --   1296.6980              1318.1272              1333.4469
 Red. masses --      2.6881                 1.6783                 1.7638
 Frc consts  --      2.6630                 1.7181                 1.8478
 IR Inten    --     53.9832                 4.4541                 8.2668

                     70                     71                     72
                      A                      A                      A
 Frequencies --   1337.6354              1348.4271              1371.1377
 Red. masses --      1.5809                 2.1461                 2.4516
 Frc consts  --      1.6666                 2.2991                 2.7156
 IR Inten    --      7.1740                31.5565                16.1063

                     73                     74                     75
                      A                      A                      A
 Frequencies --   1371.6881              1393.4872              1398.9544
 Red. masses --      1.5087                 1.3207                 1.4235
 Frc consts  --      1.6725                 1.5110                 1.6414
 IR Inten    --     24.1781                21.6934                 3.6977

                     76                     77                     78
                      A                      A                      A
 Frequencies --   1431.7569              1434.0911              1460.1014
 Red. masses --      1.2711                 1.7812                 2.5362
 Frc consts  --      1.5353                 2.1584                 3.1856
 IR Inten    --      6.5497                33.8382                 2.3663

                     79                     80                     81
                      A                      A                      A
 Frequencies --   1470.7653              1487.8997              1506.0603
 Red. masses --      1.1547                 1.1047                 1.1149
 Frc consts  --      1.4717                 1.4410                 1.4899
 IR Inten    --      1.0104                 2.2619                 7.9758

                     82                     83                     84
                      A                      A                      A
 Frequencies --   1506.9735              1509.4980              1518.0808
 Red. masses --      1.0548                 1.2956                 1.1062
 Frc consts  --      1.4114                 1.7394                 1.5021
 IR Inten    --      9.0788                14.4126                 5.3748

                     85                     86                     87
                      A                      A                      A
 Frequencies --   1520.5225              1527.7246              1535.0435
 Red. masses --      1.6157                 1.0846                 1.0710
 Frc consts  --      2.2009                 1.4915                 1.4868
 IR Inten    --     12.5622                25.7306                 7.5021

                     88                     89                     90
                      A                      A                      A
 Frequencies --   1545.2685              1551.1820              1565.9846
 Red. masses --      1.4702                 1.0678                 2.5007
 Frc consts  --      2.0683                 1.5138                 3.6131
 IR Inten    --      5.5190                 7.5012               315.6889

                     91                     92                     93
                      A                      A                      A
 Frequencies --   1615.6629              1635.5190              1643.6882
 Red. masses --      6.1932                 5.8164                 4.9008
 Frc consts  --      9.5250                 9.1668                 7.8011
 IR Inten    --     44.8190               127.4919                 1.3081

                     94                     95                     96
                      A                      A                      A
 Frequencies --   1679.5819              2932.6425              2969.6253
 Red. masses --      6.0194                 1.0622                 1.0587
 Frc consts  --     10.0047                 5.3823                 5.5007
 IR Inten    --     13.7691                74.1371                76.9479

                     97                     98                     99
                      A                      A                      A
 Frequencies --   3046.9118              3048.4898              3066.0996
 Red. masses --      1.0643                 1.0638                 1.0690
 Frc consts  --      5.8214                 5.8247                 5.9213
 IR Inten    --     23.0473                41.0478                45.5701

                    100                    101                    102
                      A                      A                      A
 Frequencies --   3068.1498              3073.4307              3095.3514
 Red. masses --      1.0624                 1.0759                 1.1017
 Frc consts  --      5.8923                 5.9876                 6.2193
 IR Inten    --     27.6361                51.7300                17.6945

                    103                    104                    105
                      A                      A                      A
 Frequencies --   3112.0871              3113.7039              3119.1019
 Red. masses --      1.1037                 1.1025                 1.1006
 Frc consts  --      6.2978                 6.2980                 6.3087
 IR Inten    --     18.3135                12.5964                76.9692

                    106                    107                    108
                      A                      A                      A
 Frequencies --   3131.5188              3176.5013              3176.9832
 Red. masses --      1.1007                 1.0882                 1.0896
 Frc consts  --      6.3597                 6.4691                 6.4796
 IR Inten    --     30.0988                16.2913                24.3295

                    109                    110                    111
                      A                      A                      A
 Frequencies --   3190.9119              3203.9583              3205.1162
 Red. masses --      1.0913                 1.0879                 1.0929
 Frc consts  --      6.5467                 6.5796                 6.6145
 IR Inten    --     29.7525                18.4577                 9.7538

                    112                    113                    114
                      A                      A                      A
 Frequencies --   3210.7563              3221.8506              3561.5699
 Red. masses --      1.0946                 1.0928                 1.0746
 Frc consts  --      6.6482                 6.6837                 8.0309
 IR Inten    --      7.4859                14.7148                12.1159

 - Thermochemistry -
 -------------------
 Temperature   298.150 Kelvin.  Pressure   1.00000 Atm.
 Atom     1 has atomic number  6 and mass  12.00000

 Molecular mass:   272.16371 amu.
 Principal axes and moments of inertia in atomic units:
                           1         2         3
     Eigenvalues --  2095.71888********************
           X            0.99999  -0.00119  -0.00378
           Y            0.00126   0.99982   0.01871
           Z            0.00376  -0.01871   0.99982
 This molecule is an asymmetric top.
 Rotational symmetry number  1.
 Warning -- assumption of classical behavior for rotation
           may cause significant error
 Rotational temperatures (Kelvin)      0.04133     0.00676     0.00646
 Rotational constants (GHZ):           0.86116     0.14089     0.13459
 Zero-point vibrational energy     891954.1 (Joules/Mol)
                                  213.18214 (Kcal/Mol)
 Warning -- explicit consideration of  28 degrees of freedom as
           vibrations may cause significant error
 Vibrational temperatures:     18.23    30.30    34.37    41.70    54.59
          (Kelvin)             94.10   147.68   169.26   225.43   242.04
                              303.42   343.83   377.08   390.44   398.36
                              478.04   518.76   539.65   576.86   594.37
                              598.20   613.46   622.37   670.18   708.16
                              732.56   751.60   816.76   909.76   942.57
                              954.18   999.03  1045.16  1067.10  1124.49
                             1153.00  1169.06  1199.04  1213.69  1227.14
                             1259.70  1282.77  1342.53  1348.37  1407.56
                             1443.76  1451.04  1458.77  1469.62  1479.52
                             1485.65  1531.68  1557.52  1589.70  1593.88
                             1610.02  1631.73  1654.52  1722.03  1726.43
                             1732.38  1746.25  1783.52  1799.39  1813.57
                             1846.88  1865.66  1896.49  1918.53  1924.56
                             1940.09  1972.76  1973.55  2004.92  2012.78
                             2059.98  2063.34  2100.76  2116.10  2140.76
                             2166.88  2168.20  2171.83  2184.18  2187.69
                             2198.05  2208.59  2223.30  2231.80  2253.10
                             2324.58  2353.15  2364.90  2416.54  4219.42
                             4272.63  4383.83  4386.10  4411.43  4414.38
                             4421.98  4453.52  4477.60  4479.93  4487.69
                             4505.56  4570.28  4570.97  4591.01  4609.78
                             4611.45  4619.56  4635.52  5124.30

 Zero-point correction=                           0.339727 (Hartree/Particle)
 Thermal correction to Energy=                    0.358583
 Thermal correction to Enthalpy=                  0.359528
 Thermal correction to Gibbs Free Energy=         0.288461
 Sum of electronic and zero-point Energies=           -877.566200
 Sum of electronic and thermal Energies=              -877.547344
 Sum of electronic and thermal Enthalpies=            -877.546400
 Sum of electronic and thermal Free Energies=         -877.617466

                     E (Thermal)             CV                S
                      KCal/Mol        Cal/Mol-Kelvin    Cal/Mol-Kelvin
 Total                  225.014             71.463            149.572
 Electronic               0.000              0.000              0.000
 Translational            0.889              2.981             42.702
 Rotational               0.889              2.981             34.242
 Vibrational            223.237             65.501             72.627
 Vibration     1          0.593              1.987              7.541
 Vibration     2          0.593              1.985              6.532
 Vibration     3          0.593              1.985              6.281
 Vibration     4          0.593              1.984              5.898
 Vibration     5          0.594              1.982              5.364
 Vibration     6          0.597              1.971              4.287
 Vibration     7          0.605              1.947              3.403
 Vibration     8          0.608              1.935              3.139
 Vibration     9          0.620              1.895              2.589
 Vibration    10          0.625              1.882              2.455
 Vibration    11          0.643              1.824              2.036
 Vibration    12          0.657              1.781              1.811
 Vibration    13          0.669              1.742              1.648
 Vibration    14          0.675              1.726              1.587
 Vibration    15          0.678              1.716              1.553
 Vibration    16          0.714              1.611              1.249
 Vibration    17          0.735              1.554              1.120
 Vibration    18          0.746              1.523              1.059
 Vibration    19          0.767              1.468              0.959
 Vibration    20          0.777              1.442              0.916
 Vibration    21          0.779              1.436              0.906
 Vibration    22          0.788              1.413              0.871
 Vibration    23          0.793              1.399              0.850
 Vibration    24          0.823              1.326              0.749
 Vibration    25          0.848              1.267              0.678
 Vibration    26          0.864              1.230              0.636
 Vibration    27          0.877              1.200              0.604
 Vibration    28          0.924              1.101              0.509

                           ! Non-Optimized Parameters !
 Normal termination of Gaussian 16 at Mon Dec 14 14:28:04 2020.

 ----------------------------------------------------------------------
 # B3LYP/6-311++G(d,p) empiricaldispersion=gd3bj scf=xqc pop=npa geom=c
 heck
 ----------------------------------------------------------------------

 ---------------------------------------
 CID_62747119_JID_10385_Energie_neutraal
 ---------------------------------------
 Structure from the checkpoint file:  "JID_10385.chk"
 Charge =  0 Multiplicity = 1

 SCF Done:  E(RB3LYP) =  -878.142704608     A.U. after   14 cycles
 Normal termination of Gaussian 16 at Mon Dec 14 14:35:27 2020.

 ----------------------------------------------------------------------
 # B3LYP/6-311++G(d,p) empiricaldispersion=gd3bj scf=xqc pop=npa geom=c
 heck
 ----------------------------------------------------------------------

 -------------------------------------
 CID_62747119_JID_10385_Energie_kation
 -------------------------------------
 Structure from the checkpoint file:  "JID_10385.chk"
 Charge =  1 Multiplicity = 2

 SCF Done:  E(UB3LYP) =  -877.885020102     A.U. after   24 cycles
 Normal termination of Gaussian 16 at Mon Dec 14 14:52:32 2020.
 Gaussian 16:  ES64L-G16RevA.03 25-Dec-2016

 ----------------------------------------------------------------------
 # B3LYP/6-311++G(d,p) empiricaldispersion=gd3bj scf=xqc pop=npa geom=c
 heck
 ----------------------------------------------------------------------

 ------------------------------------
 CID_62747119_JID_10385_Energie_anion
 ------------------------------------
 Structure from the checkpoint file:  "JID_10385.chk"
 Charge = -1 Multiplicity = 2

                         Standard orientation:
 ---------------------------------------------------------------------
 Center     Atomic      Atomic             Coordinates (Angstroms)
 Number     Number       Type             X           Y           Z
 ---------------------------------------------------------------------
      1          6           0        3.619123   -1.480272    0.459763
      2          7           0        4.692329   -0.543027    0.752396
      3          6           0        5.855354   -0.757088   -0.090129
      4          6           0        4.274682    0.851553    0.825011
      5          6           0        3.750530    1.517186   -0.477451
      6          8           0        2.403932    1.999056   -0.353195
      7          6           0        1.423458    1.029637   -0.355130
      8          6           0        0.643997    0.846294    0.784576
      9          6           0       -0.378527   -0.102926    0.803742
     10          6           0       -0.631034   -0.903589   -0.320282
     11          6           0        0.153177   -0.699224   -1.469386
     12          6           0        1.161792    0.255425   -1.490589
     13          7           0       -1.597706   -1.924406   -0.330410
     14          6           0       -2.715155   -1.861075    0.596241
     15          6           0       -3.628498   -0.669694    0.364677
     16          7           0       -4.014363   -0.473549   -0.906788
     17          6           0       -4.807869    0.574615   -1.134544
     18          7           0       -5.264374    1.455500   -0.236656
     19          6           0       -4.871671    1.245549    1.024940
     20          6           0       -4.044411    0.184118    1.385084
     21          1           0        3.232214   -1.418388   -0.573440
     22          1           0        2.777062   -1.301602    1.134686
     23          1           0        3.983210   -2.501836    0.620006
     24          1           0        5.667135   -0.609023   -1.171933
     25          1           0        6.658623   -0.074274    0.209350
     26          1           0        6.214915   -1.784340    0.039909
     27          1           0        3.482707    0.931725    1.578072
     28          1           0        5.130558    1.425065    1.201792
     29          1           0        4.334736    2.406488   -0.727885
     30          1           0        3.825238    0.821437   -1.323034
     31          1           0        0.838401    1.463862    1.655783
     32          1           0       -0.971298   -0.213566    1.704505
     33          1           0       -0.039466   -1.299387   -2.355607
     34          1           0        1.745783    0.410591   -2.392814
     35          1           0       -1.929516   -2.108202   -1.271072
     36          1           0       -3.298528   -2.779675    0.465848
     37          1           0       -2.346046   -1.866911    1.626025
     38          1           0       -5.119104    0.730864   -2.165411
     39          1           0       -5.228347    1.956213    1.768514
     40          1           0       -3.730610    0.033838    2.413335
 ---------------------------------------------------------------------

 SCF Done:  E(UB3LYP) =  -878.145318607     A.U. after   33 cycles
 SCF Done:  E(UB3LYP) =  -878.145318607     a.u. after    1 cycles

 The electronic state is 2-A.
 Alpha  occ. eigenvalues --  -19.04285 -14.21862 -14.21442 -14.17115 -14.17051
 Alpha  occ. eigenvalues --  -10.13140 -10.11993 -10.11017 -10.10647 -10.10602
 Alpha  occ. eigenvalues --  -10.10211 -10.09645 -10.09383 -10.07772 -10.07486
 Alpha  occ. eigenvalues --  -10.07302 -10.07272 -10.07267 -10.06951 -10.05809
 Alpha  occ. eigenvalues --   -0.95799  -0.85143  -0.83651  -0.82866  -0.75550
 Alpha  occ. eigenvalues --   -0.74190  -0.67149  -0.66234  -0.65169  -0.63033
 Alpha  occ. eigenvalues --   -0.61947  -0.59026  -0.56426  -0.52549  -0.52164
 Alpha  occ. eigenvalues --   -0.50535  -0.49491  -0.47702  -0.43737  -0.42192
 Alpha  occ. eigenvalues --   -0.40178  -0.40061  -0.39257  -0.38709  -0.37278
 Alpha  occ. eigenvalues --   -0.36424  -0.35652  -0.34966  -0.34296  -0.33935
 Alpha  occ. eigenvalues --   -0.32658  -0.31296  -0.31059  -0.30404  -0.30267
 Alpha  occ. eigenvalues --   -0.29620  -0.28633  -0.28179  -0.27948  -0.27368
 Alpha  occ. eigenvalues --   -0.27116  -0.26544  -0.25254  -0.24675  -0.20237
 Alpha  occ. eigenvalues --   -0.18720  -0.17923  -0.17066  -0.16215  -0.15460
 Alpha  occ. eigenvalues --   -0.12633  -0.12363  -0.09790   0.03985
 Alpha virt. eigenvalues --    0.05024   0.07138   0.07490   0.07621   0.08055
 Alpha virt. eigenvalues --    0.08490   0.08578   0.09179   0.09404   0.09660
 Alpha virt. eigenvalues --    0.10233   0.10413   0.10751   0.11110   0.11404

  Beta  occ. eigenvalues --  -19.04285 -14.21862 -14.21412 -14.16833 -14.16789
  Beta  occ. eigenvalues --  -10.13134 -10.12005 -10.11020 -10.10658 -10.10639
  Beta  occ. eigenvalues --  -10.10181 -10.09671 -10.09377 -10.07445 -10.07432
  Beta  occ. eigenvalues --  -10.07277 -10.07255 -10.06946 -10.06930 -10.05920
  Beta  occ. eigenvalues --   -0.95797  -0.84724  -0.83645  -0.82756  -0.75081
  Beta  occ. eigenvalues --   -0.73969  -0.66985  -0.66046  -0.65092  -0.62965
  Beta  occ. eigenvalues --   -0.61915  -0.58901  -0.56316  -0.52475  -0.52004
  Beta  occ. eigenvalues --   -0.50324  -0.49242  -0.47608  -0.43712  -0.42151
  Beta  occ. eigenvalues --   -0.40154  -0.39903  -0.39156  -0.38642  -0.37107
  Beta  occ. eigenvalues --   -0.36392  -0.35598  -0.34920  -0.34176  -0.33793
  Beta  occ. eigenvalues --   -0.32634  -0.31128  -0.30957  -0.30369  -0.30173
  Beta  occ. eigenvalues --   -0.29247  -0.28559  -0.27992  -0.27581  -0.27341
  Beta  occ. eigenvalues --   -0.26787  -0.26476  -0.25228  -0.24626  -0.20156
  Beta  occ. eigenvalues --   -0.18233  -0.16693  -0.16371  -0.15852  -0.14774
  Beta  occ. eigenvalues --   -0.12599  -0.12062  -0.09699
  Beta virt. eigenvalues --    0.05686   0.07309   0.07517   0.07640   0.07943
  Beta virt. eigenvalues --    0.08509   0.08555   0.09164   0.09469   0.09645
  Beta virt. eigenvalues --    0.10103   0.10306   0.10464   0.10835   0.11095

 Mulliken charges and spin densities:
               1          2
     1  C   -0.357733  -0.111044
     2  N   -0.024650   0.082351
     3  C    0.488377  -0.813377
     4  C   -0.328606  -0.089811
     5  C   -0.227902  -0.046771
     6  O   -0.090779   0.000739
     7  C   -0.727104  -0.069654
     8  C   -0.088814  -0.003669
     9  C    0.584594  -0.033777
    10  C   -0.718741   0.034720
    11  C   -0.329766   0.071024
    12  C    0.372822  -0.099637
    13  N    0.180281   0.004789
    14  C   -0.520642  -0.238857
    15  C    0.113692   0.277880
    16  N   -0.139686   0.146852
    17  C   -0.004416  -0.027247
    18  N   -0.182822   0.109306
    19  C   -0.528231   0.227301
    20  C    0.081153   0.005816
    21  H    0.149296   0.023622
    22  H    0.128731   0.036798
    23  H    0.119226   0.033304
    24  H   -0.139281   0.243617
    25  H   -0.279293   0.418378
    26  H   -0.100775   0.231269
    27  H    0.187078   0.014041
    28  H   -0.030712   0.185484
    29  H   -0.017509   0.172625
    30  H    0.215032  -0.088937
    31  H    0.177820   0.000817
    32  H    0.109249  -0.005483
    33  H    0.113258   0.027996
    34  H    0.101095   0.062038
    35  H    0.197742   0.024224
    36  H   -0.025127   0.224838
    37  H    0.151133  -0.028351
    38  H    0.144169   0.004019
    39  H    0.121142  -0.021439
    40  H    0.126702   0.014208
 Sum of Mulliken charges =  -1.00000   1.00000

 Dipole moment (field-independent basis, Debye):
    X=              2.7223    Y=             -1.6038    Z=              1.2593  Tot=              3.4013
 Quadrupole moment (field-independent basis, Debye-Ang):
   XX=           -251.0661   YY=           -150.4331   ZZ=           -130.1531
   XY=              9.9395   XZ=             -6.7957   YZ=              2.1271

 Summary of Natural Population Analysis:

                                       Natural Population
                Natural  -----------------------------------------------
    Atom  No    Charge         Core      Valence    Rydberg      Total
 -----------------------------------------------------------------------
      C    1   -0.17957      0.99964     2.17281    0.00712     3.17957
      N    2   -0.27749      0.99974     2.76489    0.01286     3.77749
      C    3   -0.17835      0.99965     2.16960    0.00910     3.17835
      C    4   -0.10119      0.99961     2.08849    0.01309     3.10119
      C    5   -0.02251      0.99957     2.01055    0.01240     3.02251
      O    6   -0.29249      0.99986     3.28342    0.00920     4.29249
      C    7    0.12482      0.99935     1.86122    0.01460     2.87518
      C    8   -0.10716      0.99952     2.09959    0.00806     3.10716
      C    9   -0.12065      0.99953     2.11437    0.00674     3.12065
      C   10    0.08797      0.99949     1.90148    0.01107     2.91203
      C   11   -0.11145      0.99953     2.10314    0.00877     3.11145
      C   12   -0.11381      0.99951     2.10494    0.00935     3.11381
      N   13   -0.31005      0.99969     2.79949    0.01087     3.81005
      C   14   -0.10268      0.99959     2.09049    0.01260     3.10268
      C   15    0.15895      0.99954     1.82561    0.01590     2.84105
      N   16   -0.23398      0.99967     2.72109    0.01323     3.73398
      C   17    0.12889      0.99967     1.85256    0.01887     2.87111
      N   18   -0.22552      0.99972     2.71469    0.01111     3.72552
      C   19    0.09287      0.99961     1.89270    0.01482     2.90713
      C   20   -0.16640      0.99950     2.16040    0.00650     3.16640
      H   21    0.08458      0.00000     0.41407    0.00135     0.41542
      H   22    0.10145      0.00000     0.39758    0.00096     0.39855
      H   23    0.09150      0.00000     0.40758    0.00092     0.40850
      H   24    0.07848      0.00000     0.42004    0.00148     0.42152
      H   25    0.09557      0.00000     0.40324    0.00118     0.40443
      H   26    0.09418      0.00000     0.40471    0.00111     0.40582
      H   27    0.10200      0.00000     0.39676    0.00123     0.39800
      H   28    0.09509      0.00000     0.40386    0.00106     0.40491
      H   29    0.08939      0.00000     0.40940    0.00120     0.41061
      H   30    0.08338      0.00000     0.41522    0.00140     0.41662
      H   31    0.10207      0.00000     0.39699    0.00094     0.39793
      H   32    0.10205      0.00000     0.39674    0.00120     0.39795
      H   33    0.09687      0.00000     0.40181    0.00132     0.40313
      H   34    0.10075      0.00000     0.39832    0.00093     0.39925
      H   35    0.18640      0.00000     0.31076    0.00284     0.31360
      H   36    0.10570      0.00000     0.39300    0.00130     0.39430
      H   37    0.09134      0.00000     0.40763    0.00102     0.40866
      H   38    0.07450      0.00000     0.42426    0.00124     0.42550
      H   39    0.07785      0.00000     0.42086    0.00129     0.42215
      H   40    0.09664      0.00000     0.40239    0.00097     0.40336
 =======================================================================
   * Total *    0.00000     19.99201    52.75677    0.25123    73.00000

 Normal termination of Gaussian 16 at Mon Dec 14 15:16:00 2020.
