 Gaussian 16, Revision A.03,

 -----------------------------------------------------------
 # opt freq B3LYP/6-31G(d) empiricaldispersion=gd3bj scf=xqc
 -----------------------------------------------------------

 -------------------------------
 CID_149224274_JID_3095_neutraal
 -------------------------------
 Symbolic Z-matrix:
 Charge =  0 Multiplicity = 1

 SCF Done:  E(RB3LYP) =  -581.699385524     A.U. after   13 cycles
 SCF Done:  E(RB3LYP) =  -581.700912249     A.U. after   11 cycles
 SCF Done:  E(RB3LYP) =  -581.700317229     A.U. after   11 cycles
 SCF Done:  E(RB3LYP) =  -581.703143098     A.U. after   11 cycles
 SCF Done:  E(RB3LYP) =  -581.703639996     A.U. after   10 cycles
 SCF Done:  E(RB3LYP) =  -581.703842720     A.U. after   10 cycles
 SCF Done:  E(RB3LYP) =  -581.703883087     A.U. after   10 cycles
 SCF Done:  E(RB3LYP) =  -581.703916976     A.U. after    9 cycles
 SCF Done:  E(RB3LYP) =  -581.703947797     A.U. after   10 cycles
 SCF Done:  E(RB3LYP) =  -581.703953518     A.U. after    9 cycles
 SCF Done:  E(RB3LYP) =  -581.703955497     A.U. after    9 cycles
 SCF Done:  E(RB3LYP) =  -581.703956509     A.U. after    8 cycles
 SCF Done:  E(RB3LYP) =  -581.703956615     A.U. after    7 cycles
 SCF Done:  E(RB3LYP) =  -581.703957253     A.U. after    7 cycles
 SCF Done:  E(RB3LYP) =  -581.703957231     A.U. after    6 cycles
 Optimization completed.
    -- Stationary point found.
 Normal termination of Gaussian 16 at Wed Dec  9 22:27:48 2020.

 --------------------------------------------------------------------
 #N Geom=AllCheck Guess=TCheck SCRF=Check GenChk RB3LYP/6-31G(d) Freq
 --------------------------------------------------------------------

 Structure from the checkpoint file:  "JID_3095.chk"
 -------------------------------
 CID_149224274_JID_3095_neutraal
 -------------------------------
 Charge =  0 Multiplicity = 1

 SCF Done:  E(RB3LYP) =  -581.703957231     A.U. after    1 cycles

  Exact polarizability: 127.383  -2.096 109.019   2.227   0.871 109.588
 Approx polarizability: 162.675  -0.150 155.765  -1.299  -2.432 163.587

                      1                      2                      3
                      A                      A                      A
 Frequencies --     36.3501                99.4395               109.2527
 Red. masses --      3.6602                 3.7574                 2.5657
 Frc consts  --      0.0028                 0.0219                 0.0180
 IR Inten    --      0.5174                 2.0494                 0.1476

                      4                      5                      6
                      A                      A                      A
 Frequencies --    130.5583               177.5766               231.2935
 Red. masses --      3.1931                 3.0534                 3.2159
 Frc consts  --      0.0321                 0.0567                 0.1014
 IR Inten    --      0.6733                 0.0714                 1.7491

                      7                      8                      9
                      A                      A                      A
 Frequencies --    241.2941               274.9158               311.0150
 Red. masses --      1.4814                 1.6393                 2.0410
 Frc consts  --      0.0508                 0.0730                 0.1163
 IR Inten    --      0.9755                 1.1237                 0.5167

                     10                     11                     12
                      A                      A                      A
 Frequencies --    333.7915               355.1216               369.1149
 Red. masses --      1.8849                 2.1675                 2.3592
 Frc consts  --      0.1237                 0.1611                 0.1894
 IR Inten    --      1.9161                 1.5099                 2.6455

                     13                     14                     15
                      A                      A                      A
 Frequencies --    417.2058               434.9334               449.0975
 Red. masses --      2.9462                 2.9312                 3.0600
 Frc consts  --      0.3021                 0.3267                 0.3636
 IR Inten    --      6.5953                 4.4193                 1.3830

                     16                     17                     18
                      A                      A                      A
 Frequencies --    496.5474               565.3581               586.1509
 Red. masses --      1.6710                 3.2262                 4.8393
 Frc consts  --      0.2427                 0.6076                 0.9796
 IR Inten    --      0.2954                 2.0142                 1.9026

                     19                     20                     21
                      A                      A                      A
 Frequencies --    672.4656               721.0158               775.8800
 Red. masses --      3.2144                 2.7060                 4.0860
 Frc consts  --      0.8564                 0.8288                 1.4492
 IR Inten    --      3.2934                 4.1616                 9.4191

                     22                     23                     24
                      A                      A                      A
 Frequencies --    794.0010               802.5639               835.7513
 Red. masses --      1.5161                 2.6112                 3.0847
 Frc consts  --      0.5631                 0.9910                 1.2694
 IR Inten    --      0.1565                 5.8043                 4.9501

                     25                     26                     27
                      A                      A                      A
 Frequencies --    861.5895               883.2446               885.6617
 Red. masses --      1.8469                 2.1853                 2.3202
 Frc consts  --      0.8078                 1.0045                 1.0723
 IR Inten    --      2.2608                 2.4081                 5.4492

                     28                     29                     30
                      A                      A                      A
 Frequencies --    905.5077               940.3951               954.4773
 Red. masses --      1.8899                 2.2686                 1.3814
 Frc consts  --      0.9130                 1.1820                 0.7415
 IR Inten    --      6.6072                 5.5261                 5.4512

                     31                     32                     33
                      A                      A                      A
 Frequencies --    987.9973              1029.9770              1047.9186
 Red. masses --      2.5165                 2.4863                 2.2713
 Frc consts  --      1.4473                 1.5540                 1.4695
 IR Inten    --      3.3755                 9.0605                20.1087

                     34                     35                     36
                      A                      A                      A
 Frequencies --   1051.2241              1055.2949              1069.3238
 Red. masses --      2.1457                 3.0403                 1.8874
 Frc consts  --      1.3971                 1.9949                 1.2715
 IR Inten    --     19.1080               122.3524                33.2868

                     37                     38                     39
                      A                      A                      A
 Frequencies --   1077.0653              1115.3857              1125.5117
 Red. masses --      2.0697                 2.1692                 1.7871
 Frc consts  --      1.4146                 1.5900                 1.3338
 IR Inten    --     17.9757                 5.4467                14.5713

                     40                     41                     42
                      A                      A                      A
 Frequencies --   1139.2302              1152.0384              1163.3959
 Red. masses --      1.6271                 1.0811                 1.8022
 Frc consts  --      1.2442                 0.8454                 1.4371
 IR Inten    --     12.8590                 0.8408                 3.8353

                     43                     44                     45
                      A                      A                      A
 Frequencies --   1185.9884              1194.4733              1216.8773
 Red. masses --      1.9844                 2.0931                 3.0041
 Frc consts  --      1.6445                 1.7595                 2.6210
 IR Inten    --     14.7766                 6.8985               123.0582

                     46                     47                     48
                      A                      A                      A
 Frequencies --   1289.3265              1297.4954              1308.5203
 Red. masses --      1.3465                 1.2914                 1.2709
 Frc consts  --      1.3188                 1.2809                 1.2821
 IR Inten    --     15.4180                18.9342                 7.7500

                     49                     50                     51
                      A                      A                      A
 Frequencies --   1320.2606              1327.5096              1335.8358
 Red. masses --      1.0998                 1.2008                 1.3070
 Frc consts  --      1.1295                 1.2468                 1.3742
 IR Inten    --      4.1871                 2.2605                 7.5439

                     52                     53                     54
                      A                      A                      A
 Frequencies --   1363.4185              1373.9895              1379.7554
 Red. masses --      1.4750                 1.3375                 1.4553
 Frc consts  --      1.6155                 1.4876                 1.6323
 IR Inten    --     18.2605                 0.2364                 2.3032

                     55                     56                     57
                      A                      A                      A
 Frequencies --   1396.3780              1400.5365              1405.2439
 Red. masses --      1.3541                 1.4165                 1.3441
 Frc consts  --      1.5557                 1.6370                 1.5638
 IR Inten    --      8.3756                 0.2056                 3.0085

                     58                     59                     60
                      A                      A                      A
 Frequencies --   1407.7920              1409.8671              1414.4385
 Red. masses --      1.3130                 1.3453                 1.3181
 Frc consts  --      1.5332                 1.5756                 1.5537
 IR Inten    --      3.1428                 2.0842                 1.4648

                     61                     62                     63
                      A                      A                      A
 Frequencies --   1422.5292              1438.5918              1444.0027
 Red. masses --      1.3988                 1.3028                 1.2366
 Frc consts  --      1.6677                 1.5886                 1.5192
 IR Inten    --      1.8242                14.1302                 5.7461

                     64                     65                     66
                      A                      A                      A
 Frequencies --   1472.2536              1509.1020              1512.7617
 Red. masses --      1.2160                 1.0845                 1.0802
 Frc consts  --      1.5529                 1.4551                 1.4564
 IR Inten    --     16.2603                 1.9310                 0.5443

                     67                     68                     69
                      A                      A                      A
 Frequencies --   1515.2007              1518.4303              1521.5898
 Red. masses --      1.0909                 1.0977                 1.0672
 Frc consts  --      1.4756                 1.4911                 1.4557
 IR Inten    --      1.3458                 1.7230                 4.8487

                     70                     71                     72
                      A                      A                      A
 Frequencies --   1524.1019              1535.1270              1544.6231
 Red. masses --      1.0769                 1.0884                 1.0743
 Frc consts  --      1.4739                 1.5112                 1.5101
 IR Inten    --     11.1943                 3.5619                 3.0212

                     73                     74                     75
                      A                      A                      A
 Frequencies --   1555.1066              2991.1291              3017.7025
 Red. masses --      1.0877                 1.0819                 1.0667
 Frc consts  --      1.5498                 5.7029                 5.7232
 IR Inten    --      0.7229                21.1930                26.1200

                     76                     77                     78
                      A                      A                      A
 Frequencies --   3021.0275              3021.5509              3029.4265
 Red. masses --      1.0671                 1.0667                 1.0732
 Frc consts  --      5.7383                 5.7380                 5.8032
 IR Inten    --     53.6300                29.0211                46.2443

                     79                     80                     81
                      A                      A                      A
 Frequencies --   3038.7953              3048.4136              3049.4041
 Red. masses --      1.0836                 1.0660                 1.0686
 Frc consts  --      5.8956                 5.8363                 5.8546
 IR Inten    --     36.9405                37.0672                49.1586

                     82                     83                     84
                      A                      A                      A
 Frequencies --   3062.3963              3063.0059              3067.6467
 Red. masses --      1.0499                 1.0622                 1.0969
 Frc consts  --      5.8014                 5.8714                 6.0817
 IR Inten    --     25.4749                11.4329                68.8303

                     85                     86                     87
                      A                      A                      A
 Frequencies --   3070.1890              3078.4574              3091.2841
 Red. masses --      1.0936                 1.0784                 1.0936
 Frc consts  --      6.0733                 6.0216                 6.1571
 IR Inten    --     49.3167                31.2467                41.2171

                     88                     89                     90
                      A                      A                      A
 Frequencies --   3098.2476              3104.5913              3111.6455
 Red. masses --      1.0932                 1.1032                 1.0971
 Frc consts  --      6.1828                 6.2651                 6.2587
 IR Inten    --     61.4102                27.2419                49.4452

                     91                     92                     93
                      A                      A                      A
 Frequencies --   3126.8469              3132.9634              3156.3623
 Red. masses --      1.1017                 1.0967                 1.0984
 Frc consts  --      6.3465                 6.3424                 6.4471
 IR Inten    --     26.7572                39.9436                26.5222

 - Thermochemistry -
 -------------------
 Temperature   298.150 Kelvin.  Pressure   1.00000 Atm.
 Atom     1 has atomic number  6 and mass  12.00000

 Molecular mass:   184.14633 amu.
 Principal axes and moments of inertia in atomic units:
                           1         2         3
     Eigenvalues --  1345.286543123.573013279.02633
           X            0.99978  -0.01613   0.01348
           Y            0.01502   0.99683   0.07819
           Z           -0.01470  -0.07797   0.99685
 This molecule is an asymmetric top.
 Rotational symmetry number  1.
 Warning -- assumption of classical behavior for rotation
           may cause significant error
 Rotational temperatures (Kelvin)      0.06438     0.02773     0.02641
 Rotational constants (GHZ):           1.34153     0.57778     0.55039
 Zero-point vibrational energy     799034.6 (Joules/Mol)
                                  190.97384 (Kcal/Mol)
 Warning -- explicit consideration of  18 degrees of freedom as
           vibrations may cause significant error
 Vibrational temperatures:     52.30   143.07   157.19   187.84   255.49
          (Kelvin)            332.78   347.17   395.54   447.48   480.25
                              510.94   531.07   600.27   625.77   646.15
                              714.42   813.42   843.34   967.53  1037.38
                             1116.32  1142.39  1154.71  1202.46  1239.64
                             1270.79  1274.27  1302.82  1353.02  1373.28
                             1421.51  1481.91  1507.72  1512.48  1518.33
                             1538.52  1549.66  1604.79  1619.36  1639.10
                             1657.53  1673.87  1706.37  1718.58  1750.82
                             1855.05  1866.81  1882.67  1899.56  1909.99
                             1921.97  1961.66  1976.86  1985.16  2009.08
                             2015.06  2021.83  2025.50  2028.48  2035.06
                             2046.70  2069.81  2077.60  2118.24  2171.26
                             2176.53  2180.04  2184.68  2189.23  2192.84
                             2208.71  2222.37  2237.45  4303.57  4341.80
                             4346.58  4347.34  4358.67  4372.15  4385.99
                             4387.41  4406.11  4406.98  4413.66  4417.32
                             4429.21  4447.67  4457.69  4466.81  4476.96
                             4498.84  4507.64  4541.30

 Zero-point correction=                           0.304336 (Hartree/Particle)
 Thermal correction to Energy=                    0.316549
 Thermal correction to Enthalpy=                  0.317493
 Thermal correction to Gibbs Free Energy=         0.266195
 Sum of electronic and zero-point Energies=           -581.399621
 Sum of electronic and thermal Energies=              -581.387409
 Sum of electronic and thermal Enthalpies=            -581.386465
 Sum of electronic and thermal Free Energies=         -581.437763

                     E (Thermal)             CV                S
                      KCal/Mol        Cal/Mol-Kelvin    Cal/Mol-Kelvin
 Total                  198.637             49.107            107.966
 Electronic               0.000              0.000              0.000
 Translational            0.889              2.981             41.538
 Rotational               0.889              2.981             31.000
 Vibrational            196.860             43.145             35.428
 Vibration     1          0.594              1.982              5.449
 Vibration     2          0.604              1.950              3.465
 Vibration     3          0.606              1.942              3.282
 Vibration     4          0.612              1.923              2.938
 Vibration     5          0.628              1.870              2.354
 Vibration     6          0.653              1.793              1.869
 Vibration     7          0.658              1.777              1.793
 Vibration     8          0.677              1.720              1.565
 Vibration     9          0.700              1.653              1.357
 Vibration    10          0.715              1.608              1.242
 Vibration    11          0.731              1.565              1.143
 Vibration    12          0.741              1.536              1.083
 Vibration    13          0.780              1.433              0.902
 Vibration    14          0.796              1.394              0.843
 Vibration    15          0.808              1.363              0.799
 Vibration    16          0.852              1.258              0.667
 Vibration    17          0.921              1.106              0.513
 Vibration    18          0.943              1.061              0.474

 Optimization completed.
    -- Stationary point found.
 Normal termination of Gaussian 16 at Wed Dec  9 22:37:39 2020.

 ----------------------------------------------------------------------
 # B3LYP/6-311++G(d,p) empiricaldispersion=gd3bj scf=xqc pop=npa geom=c
 heck
 ----------------------------------------------------------------------

 ---------------------------------------
 CID_149224274_JID_3095_Energie_neutraal
 ---------------------------------------
 Structure from the checkpoint file:  "JID_3095.chk"
 Charge =  0 Multiplicity = 1

 SCF Done:  E(RB3LYP) =  -581.866025585     A.U. after   13 cycles
 Normal termination of Gaussian 16 at Wed Dec  9 22:41:59 2020.

 ----------------------------------------------------------------------
 # B3LYP/6-311++G(d,p) empiricaldispersion=gd3bj scf=xqc pop=npa geom=c
 heck
 ----------------------------------------------------------------------

 -------------------------------------
 CID_149224274_JID_3095_Energie_kation
 -------------------------------------
 Structure from the checkpoint file:  "JID_3095.chk"
 Charge =  1 Multiplicity = 2

 SCF Done:  E(UB3LYP) =  -581.537383175     A.U. after   24 cycles
 Normal termination of Gaussian 16 at Wed Dec  9 22:52:41 2020.
 Gaussian 16:  ES64L-G16RevA.03 25-Dec-2016

 ----------------------------------------------------------------------
 # B3LYP/6-311++G(d,p) empiricaldispersion=gd3bj scf=xqc pop=npa geom=c
 heck
 ----------------------------------------------------------------------

 ------------------------------------
 CID_149224274_JID_3095_Energie_anion
 ------------------------------------
 Structure from the checkpoint file:  "JID_3095.chk"
 Charge = -1 Multiplicity = 2

                         Standard orientation:
 ---------------------------------------------------------------------
 Center     Atomic      Atomic             Coordinates (Angstroms)
 Number     Number       Type             X           Y           Z
 ---------------------------------------------------------------------
      1          6           0       -2.379580    1.716655   -0.124300
      2          6           0       -2.604655    0.208945   -0.262361
      3          6           0       -1.691124   -0.536067   -1.257433
      4          6           0       -0.348819   -1.077315   -0.689910
      5          8           0       -0.399596   -1.333385    0.724829
      6          6           0       -1.256662   -0.539377    1.508312
      7          8           0       -2.562514   -0.455442    1.008706
      8          6           0        0.923454   -0.345533   -1.185874
      9          6           0        1.054291    1.174798   -0.967220
     10          6           0        1.542096    1.583897    0.429154
     11          6           0        2.841460    0.858413    0.799588
     12          6           0        2.674330   -0.661175    0.682749
     13          6           0        2.214396   -1.059799   -0.726643
     14          1           0       -2.517847    2.205389   -1.095228
     15          1           0       -1.381915    1.973609    0.237690
     16          1           0       -3.110938    2.130410    0.577212
     17          1           0       -3.637220    0.068368   -0.597152
     18          1           0       -2.261039   -1.399885   -1.613565
     19          1           0       -1.496394    0.094789   -2.131814
     20          1           0       -0.232161   -2.086209   -1.102459
     21          1           0       -0.837653    0.467651    1.647339
     22          1           0       -1.322971   -1.039475    2.476535
     23          1           0        0.852611   -0.489250   -2.275548
     24          1           0        1.793802    1.538864   -1.694934
     25          1           0        0.117334    1.682515   -1.218456
     26          1           0        0.781348    1.352988    1.183523
     27          1           0        1.688652    2.671087    0.460393
     28          1           0        3.153373    1.133671    1.814776
     29          1           0        3.643787    1.189787    0.123241
     30          1           0        1.935749   -1.007409    1.412758
     31          1           0        3.621855   -1.163776    0.914960
     32          1           0        2.077698   -2.147054   -0.786022
     33          1           0        3.013682   -0.806111   -1.437897
 ---------------------------------------------------------------------

 SCF Done:  E(UB3LYP) =  -581.852035229     A.U. after   26 cycles

 The electronic state is 2-A.
 Alpha  occ. eigenvalues --  -19.02910 -19.02316 -10.16225 -10.12498 -10.12009
 Alpha  occ. eigenvalues --  -10.06676 -10.06645 -10.06054 -10.06028 -10.06006
 Alpha  occ. eigenvalues --  -10.05732 -10.05728 -10.05506  -0.97312  -0.90739
 Alpha  occ. eigenvalues --   -0.73132  -0.69796  -0.65358  -0.63651  -0.61448
 Alpha  occ. eigenvalues --   -0.58074  -0.55057  -0.50554  -0.49866  -0.45800
 Alpha  occ. eigenvalues --   -0.42420  -0.41673  -0.39789  -0.37672  -0.36817
 Alpha  occ. eigenvalues --   -0.35078  -0.34372  -0.33835  -0.33007  -0.32570
 Alpha  occ. eigenvalues --   -0.31022  -0.30296  -0.27569  -0.27222  -0.27147
 Alpha  occ. eigenvalues --   -0.26592  -0.25082  -0.24357  -0.23574  -0.23109
 Alpha  occ. eigenvalues --   -0.21270  -0.20923  -0.19662  -0.19229  -0.16891
 Alpha  occ. eigenvalues --   -0.15474   0.04490
 Alpha virt. eigenvalues --    0.06761   0.07265   0.07726   0.08834   0.09054
 Alpha virt. eigenvalues --    0.09590   0.09697   0.10314   0.11390   0.11740
 Alpha virt. eigenvalues --    0.11997   0.12533   0.12987   0.13548   0.14442

  Beta  occ. eigenvalues --  -19.02908 -19.02312 -10.16217 -10.12486 -10.12000
  Beta  occ. eigenvalues --  -10.06649 -10.06637 -10.06021 -10.06014 -10.05992
  Beta  occ. eigenvalues --  -10.05712 -10.05708 -10.05500  -0.97303  -0.90730
  Beta  occ. eigenvalues --   -0.73100  -0.69761  -0.65324  -0.63618  -0.61404
  Beta  occ. eigenvalues --   -0.58041  -0.55012  -0.50507  -0.49829  -0.45757
  Beta  occ. eigenvalues --   -0.42379  -0.41634  -0.39754  -0.37627  -0.36780
  Beta  occ. eigenvalues --   -0.35045  -0.34338  -0.33802  -0.32974  -0.32543
  Beta  occ. eigenvalues --   -0.30989  -0.30255  -0.27536  -0.27184  -0.27122
  Beta  occ. eigenvalues --   -0.26565  -0.25048  -0.24330  -0.23541  -0.23082
  Beta  occ. eigenvalues --   -0.21244  -0.20896  -0.19622  -0.19199  -0.16876
  Beta  occ. eigenvalues --   -0.15458
  Beta virt. eigenvalues --    0.06682   0.07578   0.07913   0.08281   0.09337
  Beta virt. eigenvalues --    0.09501   0.09998   0.10312   0.10805   0.11827
  Beta virt. eigenvalues --    0.12055   0.12463   0.12998   0.13293   0.13802

 Mulliken charges and spin densities:
               1          2
     1  C    1.271623  -1.830492
     2  C   -1.452701   1.325918
     3  C    1.037136  -1.571544
     4  C    0.466679  -0.636146
     5  O   -0.130646   0.020898
     6  C    0.208304  -0.358787
     7  O   -0.105524   0.010396
     8  C   -0.344626   0.781077
     9  C    0.362088  -1.011760
    10  C   -0.244826   0.282753
    11  C    0.401432  -1.009789
    12  C   -0.339763   0.022509
    13  C    0.345313  -0.721565
    14  H   -0.333225   0.486090
    15  H   -0.189279   0.327124
    16  H   -0.014197   0.175760
    17  H   -0.427373   0.638768
    18  H   -0.222354   0.398792
    19  H   -0.274703   0.440039
    20  H   -0.027027   0.235583
    21  H    0.031698   0.124340
    22  H    0.074123   0.104277
    23  H   -0.276407   0.507448
    24  H   -0.413102   0.589765
    25  H    0.116046   0.031540
    26  H    0.149903  -0.123593
    27  H   -0.235004   0.417980
    28  H   -0.165044   0.323120
    29  H    0.058097   0.067965
    30  H    0.146869   0.019858
    31  H   -0.098460   0.251566
    32  H   -0.133612   0.282008
    33  H   -0.241438   0.398103
 Sum of Mulliken charges =  -1.00000   1.00000

 Dipole moment (field-independent basis, Debye):
    X=              0.5369    Y=             -1.2655    Z=              4.3981  Tot=              4.6079
 Quadrupole moment (field-independent basis, Debye-Ang):
   XX=           -144.9504   YY=           -125.6190   ZZ=           -123.3329
   XY=             -0.0822   XZ=             -2.1152   YZ=              1.5953

 Summary of Natural Population Analysis:

                                       Natural Population
                Natural  -----------------------------------------------
    Atom  No    Charge         Core      Valence    Rydberg      Total
 -----------------------------------------------------------------------
      C    1   -0.30117      0.99963     2.29549    0.00604     3.30117
      C    2    0.06329      0.99955     1.92125    0.01591     2.93671
      C    3   -0.21673      0.99958     2.20721    0.00994     3.21673
      C    4    0.07259      0.99949     1.91086    0.01707     2.92741
      O    5   -0.30882      0.99988     3.30041    0.00853     4.30882
      C    6    0.14814      0.99960     1.83644    0.01582     2.85186
      O    7   -0.30149      0.99988     3.29324    0.00836     4.30149
      C    8   -0.11840      0.99955     2.10577    0.01308     3.11840
      C    9   -0.19486      0.99960     2.18494    0.01032     3.19486
      C   10   -0.19060      0.99962     2.18246    0.00852     3.19060
      C   11   -0.18696      0.99963     2.17984    0.00749     3.18696
      C   12   -0.19346      0.99962     2.18577    0.00807     3.19346
      C   13   -0.18689      0.99961     2.17752    0.00976     3.18689
      H   14    0.10573      0.00000     0.39271    0.00156     0.39427
      H   15    0.09857      0.00000     0.39993    0.00150     0.40143
      H   16    0.10190      0.00000     0.39707    0.00103     0.39810
      H   17    0.09272      0.00000     0.40546    0.00183     0.40728
      H   18    0.10518      0.00000     0.39337    0.00145     0.39482
      H   19    0.10830      0.00000     0.38976    0.00194     0.39170
      H   20    0.09109      0.00000     0.40712    0.00180     0.40891
      H   21    0.06227      0.00000     0.43604    0.00169     0.43773
      H   22    0.08106      0.00000     0.41776    0.00118     0.41894
      H   23    0.10397      0.00000     0.39371    0.00232     0.39603
      H   24    0.09917      0.00000     0.39912    0.00171     0.40083
      H   25    0.10197      0.00000     0.39623    0.00180     0.39803
      H   26    0.08852      0.00000     0.40960    0.00188     0.41148
      H   27    0.09764      0.00000     0.40130    0.00106     0.40236
      H   28    0.09515      0.00000     0.40394    0.00091     0.40485
      H   29    0.09184      0.00000     0.40683    0.00134     0.40816
      H   30    0.10164      0.00000     0.39679    0.00157     0.39836
      H   31    0.09403      0.00000     0.40510    0.00087     0.40597
      H   32    0.09880      0.00000     0.40010    0.00110     0.40120
      H   33    0.09581      0.00000     0.40288    0.00131     0.40419
 =======================================================================
   * Total *    0.00000     12.99525    37.83600    0.16875    51.00000

 Normal termination of Gaussian 16 at Wed Dec  9 23:06:26 2020.
