 Gaussian 16, Revision A.03,

 -----------------------------------------------------------
 # opt freq B3LYP/6-31G(d) empiricaldispersion=gd3bj scf=xqc
 -----------------------------------------------------------

 -------------------------------
 CID_113854626_JID_7417_neutraal
 -------------------------------
 Symbolic Z-matrix:
 Charge =  0 Multiplicity = 1

 SCF Done:  E(RB3LYP) =  -811.933809340     A.U. after   15 cycles
 SCF Done:  E(RB3LYP) =  -811.940933756     A.U. after   13 cycles
 SCF Done:  E(RB3LYP) =  -811.942050191     A.U. after   12 cycles
 SCF Done:  E(RB3LYP) =  -811.942981358     A.U. after   12 cycles
 SCF Done:  E(RB3LYP) =  -811.943646392     A.U. after   13 cycles
 SCF Done:  E(RB3LYP) =  -811.943931948     A.U. after   13 cycles
 SCF Done:  E(RB3LYP) =  -811.944458116     A.U. after   12 cycles
 SCF Done:  E(RB3LYP) =  -811.944902708     A.U. after   12 cycles
 SCF Done:  E(RB3LYP) =  -811.945044992     A.U. after   12 cycles
 SCF Done:  E(RB3LYP) =  -811.945110570     A.U. after   11 cycles
 SCF Done:  E(RB3LYP) =  -811.945199753     A.U. after    8 cycles
 SCF Done:  E(RB3LYP) =  -811.945200468     A.U. after    8 cycles
 SCF Done:  E(RB3LYP) =  -811.945200792     A.U. after    8 cycles
 SCF Done:  E(RB3LYP) =  -811.945200982     A.U. after    7 cycles
 SCF Done:  E(RB3LYP) =  -811.945201055     A.U. after    7 cycles
 Optimization completed.
    -- Stationary point found.
 Normal termination of Gaussian 16 at Sun Dec 13 16:06:47 2020.

 --------------------------------------------------------------------
 #N Geom=AllCheck Guess=TCheck SCRF=Check GenChk RB3LYP/6-31G(d) Freq
 --------------------------------------------------------------------

 Structure from the checkpoint file:  "JID_7417.chk"
 -------------------------------
 CID_113854626_JID_7417_neutraal
 -------------------------------
 Charge =  0 Multiplicity = 1

 SCF Done:  E(RB3LYP) =  -811.945201055     A.U. after    1 cycles

  Exact polarizability: 204.644  -0.787 141.709   0.042   0.006  79.371
 Approx polarizability: 274.955  -6.227 233.729  -0.295  -0.307 134.365

 ******    1 imaginary frequencies (negative Signs) ******

                      1                      2                      3
                      A                      A                      A
 Frequencies --    -13.4303                25.7105                37.9477
 Red. masses --      4.5315                 4.8940                 6.7630
 Frc consts  --      0.0005                 0.0019                 0.0057
 IR Inten    --      0.2161                 0.8789                 3.1032

                      4                      5                      6
                      A                      A                      A
 Frequencies --     59.4942                92.8943               106.1418
 Red. masses --      5.2485                 6.2291                 1.2026
 Frc consts  --      0.0109                 0.0317                 0.0080
 IR Inten    --      1.5476                 0.8449                 0.0470

                      7                      8                      9
                      A                      A                      A
 Frequencies --    134.5644               202.7589               221.5735
 Red. masses --      5.4893                 3.7765                 3.7569
 Frc consts  --      0.0586                 0.0915                 0.1087
 IR Inten    --      6.6728                 0.4820                 5.5355

                     10                     11                     12
                      A                      A                      A
 Frequencies --    226.0664               245.0442               305.9298
 Red. masses --      5.3294                 4.6137                 1.0638
 Frc consts  --      0.1605                 0.1632                 0.0587
 IR Inten    --      3.3024                 2.9864                21.1192

                     13                     14                     15
                      A                      A                      A
 Frequencies --    312.1090               364.4945               384.3807
 Red. masses --      3.5227                 7.7590                 7.1242
 Frc consts  --      0.2022                 0.6073                 0.6202
 IR Inten    --      0.6302                 7.2232                 3.0660

                     16                     17                     18
                      A                      A                      A
 Frequencies --    420.3420               451.0430               508.1349
 Red. masses --      3.5603                 2.9327                 5.8532
 Frc consts  --      0.3706                 0.3515                 0.8904
 IR Inten    --      0.9398                11.9018                 0.0696

                     19                     20                     21
                      A                      A                      A
 Frequencies --    540.7551               587.5277               595.7198
 Red. masses --      6.3884                 1.7956                 2.8567
 Frc consts  --      1.1006                 0.3652                 0.5973
 IR Inten    --     14.7761               207.9368                13.5707

                     22                     23                     24
                      A                      A                      A
 Frequencies --    603.5187               642.0192               643.7544
 Red. masses --      1.4575                 4.4593                 2.5531
 Frc consts  --      0.3128                 1.0830                 0.6234
 IR Inten    --     28.1550                24.5619               129.2311

                     25                     26                     27
                      A                      A                      A
 Frequencies --    653.1524               695.5619               710.6798
 Red. masses --      6.9861                 2.0838                 6.7027
 Frc consts  --      1.7560                 0.5940                 1.9946
 IR Inten    --     13.5406                 5.0247                19.0958

                     28                     29                     30
                      A                      A                      A
 Frequencies --    735.0335               738.1664               767.7488
 Red. masses --      7.0769                 8.2378                 1.4998
 Frc consts  --      2.2527                 2.6447                 0.5208
 IR Inten    --     16.0430                44.3641                54.6445

                     31                     32                     33
                      A                      A                      A
 Frequencies --    805.1594               834.5512               839.3191
 Red. masses --      5.5869                 1.3799                 1.4636
 Frc consts  --      2.1339                 0.5663                 0.6075
 IR Inten    --      9.0926                 9.4536                 1.6330

                     34                     35                     36
                      A                      A                      A
 Frequencies --    852.7193               866.9300               948.9707
 Red. masses --      1.6035                10.2069                 1.2431
 Frc consts  --      0.6870                 4.5197                 0.6596
 IR Inten    --     31.8315                 5.8077                 0.3492

                     37                     38                     39
                      A                      A                      A
 Frequencies --    951.4616              1015.1463              1023.8520
 Red. masses --      7.4958                 6.0007                 2.5798
 Frc consts  --      3.9981                 3.6434                 1.5934
 IR Inten    --     53.2809                 0.5466                25.7843

                     40                     41                     42
                      A                      A                      A
 Frequencies --   1046.2392              1068.9132              1097.0000
 Red. masses --      5.8835                 2.5511                 2.4993
 Frc consts  --      3.7944                 1.7173                 1.7721
 IR Inten    --     10.3998                50.9537                 3.6622

                     43                     44                     45
                      A                      A                      A
 Frequencies --   1118.2012              1152.5420              1164.1464
 Red. masses --      1.6718                 1.3448                 1.3097
 Frc consts  --      1.2316                 1.0525                 1.0457
 IR Inten    --      3.2045                 5.8033                 0.0162

                     46                     47                     48
                      A                      A                      A
 Frequencies --   1206.8319              1224.0171              1240.0160
 Red. masses --      1.1104                 2.0946                 1.7133
 Frc consts  --      0.9528                 1.8490                 1.5522
 IR Inten    --     18.7826                86.2210                16.6325

                     49                     50                     51
                      A                      A                      A
 Frequencies --   1306.3188              1337.2276              1356.5363
 Red. masses --      2.4123                 4.1600                 5.4278
 Frc consts  --      2.4254                 4.3828                 5.8849
 IR Inten    --    150.6514                59.0138               863.0639

                     52                     53                     54
                      A                      A                      A
 Frequencies --   1367.1070              1380.2647              1398.4084
 Red. masses --      1.6635                 7.2900                 4.2845
 Frc consts  --      1.8318                 8.1828                 4.9365
 IR Inten    --     19.7731                 9.3735               281.6000

                     55                     56                     57
                      A                      A                      A
 Frequencies --   1461.0232              1478.0731              1492.2613
 Red. masses --      3.6403                 1.4943                 2.2379
 Frc consts  --      4.5782                 1.9235                 2.9362
 IR Inten    --      5.1732                23.4420                17.5243

                     58                     59                     60
                      A                      A                      A
 Frequencies --   1502.3336              1511.6275              1543.5050
 Red. masses --      1.0415                 3.5997                 2.3633
 Frc consts  --      1.3850                 4.8463                 3.3173
 IR Inten    --      8.0801                35.3062                33.9776

                     61                     62                     63
                      A                      A                      A
 Frequencies --   1547.3245              1564.7742              1579.3484
 Red. masses --      1.2263                 2.4998                 5.0400
 Frc consts  --      1.7299                 3.6063                 7.4070
 IR Inten    --     29.4694               141.2690               110.5697

                     64                     65                     66
                      A                      A                      A
 Frequencies --   1654.7534              1672.7950              1695.5602
 Red. masses --      5.2452                 3.7994                 1.2916
 Frc consts  --      8.4621                 6.2640                 2.1879
 IR Inten    --     55.4130               140.3418               156.7513

                     67                     68                     69
                      A                      A                      A
 Frequencies --   1850.3471              3078.4102              3152.1954
 Red. masses --      9.0026                 1.0314                 1.1068
 Frc consts  --     18.1605                 5.7589                 6.4794
 IR Inten    --    710.5923                35.0087                 9.5276

                     70                     71                     72
                      A                      A                      A
 Frequencies --   3169.0298              3179.2156              3186.7365
 Red. masses --      1.1055                 1.0860                 1.0905
 Frc consts  --      6.5413                 6.4670                 6.5245
 IR Inten    --      7.9939                 1.5638                25.9698

                     73                     74                     75
                      A                      A                      A
 Frequencies --   3205.1415              3266.6365              3272.7042
 Red. masses --      1.0965                 1.0896                 1.0982
 Frc consts  --      6.6367                 6.8504                 6.9301
 IR Inten    --     24.2122                 3.5675                 2.1151

                     76                     77                     78
                      A                      A                      A
 Frequencies --   3553.8973              3621.6040              3653.4587
 Red. masses --      1.0478                 1.0758                 1.0983
 Frc consts  --      7.7971                 8.3135                 8.6372
 IR Inten    --     12.3883                38.2934                 8.6765

 - Thermochemistry -
 -------------------
 Temperature   298.150 Kelvin.  Pressure   1.00000 Atm.
 Atom     1 has atomic number  6 and mass  12.00000

 Molecular mass:   233.09127 amu.
 Principal axes and moments of inertia in atomic units:
                           1         2         3
     Eigenvalues --  1707.992508157.137469329.14776
           X            0.99998   0.00507   0.00331
           Y           -0.00510   0.99995   0.00827
           Z           -0.00326  -0.00828   0.99996
 This molecule is an asymmetric top.
 Rotational symmetry number  1.
 Warning -- assumption of classical behavior for rotation
           may cause significant error
 Rotational temperatures (Kelvin)      0.05071     0.01062     0.00928
 Rotational constants (GHZ):           1.05664     0.22125     0.19345
    1 imaginary frequencies ignored.
 Zero-point vibrational energy     571258.1 (Joules/Mol)
                                  136.53397 (Kcal/Mol)
 Warning -- explicit consideration of  21 degrees of freedom as
           vibrations may cause significant error
 Vibrational temperatures:     36.99    54.60    85.60   133.65   152.71
          (Kelvin)            193.61   291.72   318.79   325.26   352.56
                              440.16   449.06   524.43   553.04   604.78
                              648.95   731.09   778.03   845.32   857.11
                              868.33   923.72   926.22   939.74  1000.76
                             1022.51  1057.55  1062.06  1104.62  1158.44
                             1200.73  1207.59  1226.87  1247.32  1365.36
                             1368.94  1460.57  1473.09  1505.30  1537.93
                             1578.34  1608.84  1658.25  1674.95  1736.36
                             1761.09  1784.11  1879.50  1923.97  1951.75
                             1966.96  1985.89  2012.00  2102.09  2126.62
                             2147.03  2161.52  2174.89  2220.76  2226.25
                             2251.36  2272.33  2380.82  2406.78  2439.53
                             2662.24  4429.15  4535.31  4559.53  4574.18
                             4585.00  4611.48  4699.96  4708.69  5113.27
                             5210.68  5256.51

 Zero-point correction=                           0.217581 (Hartree/Particle)
 Thermal correction to Energy=                    0.231869
 Thermal correction to Enthalpy=                  0.232813
 Thermal correction to Gibbs Free Energy=         0.174549
 Sum of electronic and zero-point Energies=           -811.727620
 Sum of electronic and thermal Energies=              -811.713333
 Sum of electronic and thermal Enthalpies=            -811.712388
 Sum of electronic and thermal Free Energies=         -811.770652

                     E (Thermal)             CV                S
                      KCal/Mol        Cal/Mol-Kelvin    Cal/Mol-Kelvin
 Total                  145.500             54.535            122.627
 Electronic               0.000              0.000              0.000
 Translational            0.889              2.981             42.241
 Rotational               0.889              2.981             33.230
 Vibrational            143.722             48.574             47.157
 Vibration     1          0.593              1.985              6.136
 Vibration     2          0.594              1.982              5.363
 Vibration     3          0.597              1.974              4.474
 Vibration     4          0.602              1.954              3.598
 Vibration     5          0.605              1.944              3.338
 Vibration     6          0.613              1.919              2.880
 Vibration     7          0.639              1.836              2.108
 Vibration     8          0.648              1.808              1.946
 Vibration     9          0.650              1.801              1.910
 Vibration    10          0.660              1.771              1.766
 Vibration    11          0.696              1.662              1.384
 Vibration    12          0.700              1.651              1.351
 Vibration    13          0.738              1.545              1.103
 Vibration    14          0.753              1.504              1.022
 Vibration    15          0.783              1.426              0.891
 Vibration    16          0.810              1.359              0.793
 Vibration    17          0.863              1.232              0.638
 Vibration    18          0.896              1.160              0.564
 Vibration    19          0.945              1.058              0.472
 Vibration    20          0.953              1.041              0.457
 Vibration    21          0.962              1.024              0.444

                           ! Non-Optimized Parameters !
 Normal termination of Gaussian 16 at Sun Dec 13 16:14:43 2020.

 ----------------------------------------------------------------------
 # B3LYP/6-311++G(d,p) empiricaldispersion=gd3bj scf=xqc pop=npa geom=c
 heck
 ----------------------------------------------------------------------

 ---------------------------------------
 CID_113854626_JID_7417_Energie_neutraal
 ---------------------------------------
 Structure from the checkpoint file:  "JID_7417.chk"
 Charge =  0 Multiplicity = 1

 SCF Done:  E(RB3LYP) =  -812.178640344     A.U. after   16 cycles
 Normal termination of Gaussian 16 at Sun Dec 13 16:18:38 2020.

 ----------------------------------------------------------------------
 # B3LYP/6-311++G(d,p) empiricaldispersion=gd3bj scf=xqc pop=npa geom=c
 heck
 ----------------------------------------------------------------------

 -------------------------------------
 CID_113854626_JID_7417_Energie_kation
 -------------------------------------
 Structure from the checkpoint file:  "JID_7417.chk"
 Charge =  1 Multiplicity = 2

 SCF Done:  E(UB3LYP) =  -811.899681184     A.U. after   25 cycles
 Normal termination of Gaussian 16 at Sun Dec 13 16:27:08 2020.
 Gaussian 16:  ES64L-G16RevA.03 25-Dec-2016

 ----------------------------------------------------------------------
 # B3LYP/6-311++G(d,p) empiricaldispersion=gd3bj scf=xqc pop=npa geom=c
 heck
 ----------------------------------------------------------------------

 ------------------------------------
 CID_113854626_JID_7417_Energie_anion
 ------------------------------------
 Structure from the checkpoint file:  "JID_7417.chk"
 Charge = -1 Multiplicity = 2

                         Standard orientation:
 ---------------------------------------------------------------------
 Center     Atomic      Atomic             Coordinates (Angstroms)
 Number     Number       Type             X           Y           Z
 ---------------------------------------------------------------------
      1          6           0        5.139888    1.020257    0.976119
      2          7           0        3.987106    0.605004    0.203249
      3          6           0        3.886105    0.326533   -1.115195
      4          7           0        2.647358   -0.026311   -1.421487
      5          6           0        2.033949    0.049902   -0.218625
      6          7           0        2.780149    0.429251    0.804329
      7          8           0        0.696708   -0.179215   -0.062450
      8          6           0        0.332004   -1.501935    0.062655
      9          8           0        1.122726   -2.416517    0.113793
     10          7           0       -1.023616   -1.662549    0.134012
     11          6           0       -2.130251   -0.784720    0.086590
     12          6           0       -3.394702   -1.393239    0.144536
     13          6           0       -4.538111   -0.602284    0.112967
     14          6           0       -4.451623    0.783325    0.024948
     15          6           0       -3.189284    1.393415   -0.033348
     16          6           0       -2.028379    0.605072    0.000494
     17          7           0       -3.078167    2.777814   -0.178946
     18          1           0        4.946170    1.989134    1.443349
     19          1           0        5.353210    0.281019    1.752258
     20          1           0        5.996271    1.102678    0.303684
     21          1           0        4.720912    0.396156   -1.799203
     22          1           0       -1.257406   -2.641984    0.225149
     23          1           0       -3.475009   -2.474779    0.213433
     24          1           0       -5.514562   -1.076216    0.159362
     25          1           0       -5.350455    1.393186   -0.005746
     26          1           0       -1.060119    1.081765   -0.046053
     27          1           0       -3.864695    3.306432    0.176612
     28          1           0       -2.197191    3.168073    0.131476
 ---------------------------------------------------------------------

 SCF Done:  E(UB3LYP) =  -812.171373867     A.U. after   33 cycles
 SCF Done:  E(UB3LYP) =  -812.171373867     a.u. after    1 cycles

 The electronic state is 2-A.
 Alpha  occ. eigenvalues --  -19.10401 -19.02791 -14.32266 -14.28474 -14.25805
 Alpha  occ. eigenvalues --  -14.23300 -14.22807 -10.25718 -10.19672 -10.15980
 Alpha  occ. eigenvalues --  -10.14940 -10.13534 -10.12975 -10.09917 -10.09075
 Alpha  occ. eigenvalues --  -10.08485 -10.08397  -1.05664  -1.00334  -0.95742
 Alpha  occ. eigenvalues --   -0.87907  -0.83726  -0.82999  -0.76661  -0.75741
 Alpha  occ. eigenvalues --   -0.67315  -0.65966  -0.64555  -0.60337  -0.55608
 Alpha  occ. eigenvalues --   -0.54025  -0.53219  -0.50086  -0.48034  -0.45558
 Alpha  occ. eigenvalues --   -0.43999  -0.42163  -0.41466  -0.40692  -0.40606
 Alpha  occ. eigenvalues --   -0.39639  -0.38140  -0.36918  -0.35539  -0.34928
 Alpha  occ. eigenvalues --   -0.34262  -0.33490  -0.31905  -0.31445  -0.29704
 Alpha  occ. eigenvalues --   -0.27420  -0.26885  -0.25897  -0.25001  -0.21901
 Alpha  occ. eigenvalues --   -0.21768  -0.21193  -0.20822  -0.18193  -0.15381
 Alpha  occ. eigenvalues --   -0.12830   0.03504
 Alpha virt. eigenvalues --    0.04581   0.05751   0.06162   0.06969   0.07059
 Alpha virt. eigenvalues --    0.07487   0.07688   0.08559   0.09444   0.10370
 Alpha virt. eigenvalues --    0.10548   0.11760   0.11914   0.12101   0.12245

  Beta  occ. eigenvalues --  -19.10400 -19.02787 -14.32265 -14.28473 -14.25796
  Beta  occ. eigenvalues --  -14.23249 -14.22806 -10.25714 -10.19671 -10.15959
  Beta  occ. eigenvalues --  -10.14936 -10.13527 -10.12905 -10.09914 -10.09069
  Beta  occ. eigenvalues --  -10.08479 -10.08378  -1.05660  -1.00325  -0.95737
  Beta  occ. eigenvalues --   -0.87900  -0.83667  -0.82987  -0.76639  -0.75714
  Beta  occ. eigenvalues --   -0.67295  -0.65929  -0.64496  -0.60313  -0.55585
  Beta  occ. eigenvalues --   -0.53970  -0.53183  -0.50067  -0.48000  -0.45528
  Beta  occ. eigenvalues --   -0.43951  -0.42124  -0.41423  -0.40654  -0.40576
  Beta  occ. eigenvalues --   -0.39611  -0.38106  -0.36887  -0.35521  -0.34900
  Beta  occ. eigenvalues --   -0.34227  -0.33414  -0.31874  -0.31421  -0.29675
  Beta  occ. eigenvalues --   -0.27398  -0.26865  -0.25880  -0.24985  -0.21896
  Beta  occ. eigenvalues --   -0.21745  -0.21180  -0.20813  -0.18178  -0.15366
  Beta  occ. eigenvalues --   -0.12788
  Beta virt. eigenvalues --    0.05420   0.06161   0.06325   0.06480   0.07168
  Beta virt. eigenvalues --    0.07290   0.07728   0.08374   0.09047   0.09934
  Beta virt. eigenvalues --    0.10893   0.11379   0.11779   0.11955   0.12217

 Mulliken charges and spin densities:
               1          2
     1  C    1.577750  -1.863824
     2  N   -0.046784   0.064747
     3  C    0.322838  -0.221298
     4  N   -0.134697   0.026249
     5  C    0.047622  -0.473974
     6  N   -0.332338   0.237555
     7  O   -0.054476   0.001892
     8  C    0.331839  -0.015963
     9  O   -0.255769   0.008483
    10  N   -0.268906  -0.004601
    11  C    0.571599  -0.688954
    12  C   -1.100790   0.219211
    13  C    0.190354  -0.521884
    14  C   -0.623784   0.653068
    15  C   -0.606518   0.236125
    16  C    1.664448  -0.953462
    17  N   -0.185222  -0.088117
    18  H   -0.369483   0.558968
    19  H   -0.199827   0.385680
    20  H   -0.801423   0.963521
    21  H   -0.616677   0.813756
    22  H    0.305554   0.036485
    23  H    0.013630   0.087757
    24  H    0.043385   0.115398
    25  H   -0.394334   0.546657
    26  H    0.221806   0.079623
    27  H   -0.291297   0.550304
    28  H   -0.008501   0.246599
 Sum of Mulliken charges =  -1.00000   1.00000

 Dipole moment (field-independent basis, Debye):
    X=             -6.0529    Y=             -5.5327    Z=              0.2738  Tot=              8.2051
 Quadrupole moment (field-independent basis, Debye-Ang):
   XX=           -230.5698   YY=           -141.9942   ZZ=           -128.9392
   XY=              9.0860   XZ=              0.4684   YZ=             -2.3009

 Summary of Natural Population Analysis:

                                       Natural Population
                Natural  -----------------------------------------------
    Atom  No    Charge         Core      Valence    Rydberg      Total
 -----------------------------------------------------------------------
      C    1   -0.17296      0.99963     2.16490    0.00843     3.17296
      N    2   -0.10713      0.99967     2.59494    0.01252     3.60713
      C    3    0.11872      0.99963     1.86531    0.01634     2.88128
      N    4   -0.26436      0.99969     2.75518    0.00949     3.76436
      C    5    0.31435      0.99955     1.66365    0.02246     2.68565
      N    6   -0.16280      0.99968     2.65220    0.01093     3.66280
      O    7   -0.28000      0.99983     3.27143    0.00875     4.28000
      C    8    0.46756      0.99969     1.50902    0.02373     2.53244
      O    9   -0.30990      0.99987     3.30538    0.00465     4.30990
      N   10   -0.30572      0.99963     2.79838    0.00772     3.80572
      C   11    0.08821      0.99948     1.90214    0.01017     2.91179
      C   12   -0.14188      0.99953     2.13276    0.00959     3.14188
      C   13   -0.08662      0.99957     2.07764    0.00940     3.08662
      C   14   -0.13545      0.99952     2.12561    0.01032     3.13545
      C   15    0.09676      0.99950     1.89217    0.01157     2.90324
      C   16   -0.14197      0.99948     2.13390    0.00859     3.14197
      N   17   -0.39156      0.99971     2.88193    0.00991     3.89156
      H   18    0.10594      0.00000     0.39222    0.00184     0.39406
      H   19    0.10408      0.00000     0.39460    0.00132     0.39592
      H   20    0.10931      0.00000     0.38439    0.00629     0.39069
      H   21    0.10256      0.00000     0.39568    0.00176     0.39744
      H   22    0.19896      0.00000     0.29871    0.00233     0.30104
      H   23    0.09718      0.00000     0.40186    0.00096     0.40282
      H   24    0.10002      0.00000     0.39921    0.00077     0.39998
      H   25    0.10291      0.00000     0.39589    0.00120     0.39709
      H   26    0.11691      0.00000     0.38182    0.00127     0.38309
      H   27    0.18953      0.00000     0.30520    0.00527     0.31047
      H   28    0.18735      0.00000     0.31073    0.00192     0.31265
 =======================================================================
   * Total *   -0.00000     16.99366    43.78685    0.21949    61.00000

 Normal termination of Gaussian 16 at Sun Dec 13 16:38:59 2020.
