 Gaussian 16, Revision A.03,

 -----------------------------------------------------------
 # opt freq B3LYP/6-31G(d) empiricaldispersion=gd3bj scf=xqc
 -----------------------------------------------------------

 -------------------------------
 CID_139041405_JID_1616_neutraal
 -------------------------------
 Symbolic Z-matrix:
 Charge =  0 Multiplicity = 1

 SCF Done:  E(RB3LYP) =  -890.273097008     A.U. after   15 cycles
 SCF Done:  E(RB3LYP) =  -890.277364869     A.U. after   13 cycles
 SCF Done:  E(RB3LYP) =  -890.280053485     A.U. after   13 cycles
 SCF Done:  E(RB3LYP) =  -890.283423394     A.U. after   15 cycles
 SCF Done:  E(RB3LYP) =  -890.284410578     A.U. after   13 cycles
 SCF Done:  E(RB3LYP) =  -890.284595173     A.U. after   12 cycles
 SCF Done:  E(RB3LYP) =  -890.284685874     A.U. after   12 cycles
 SCF Done:  E(RB3LYP) =  -890.284701103     A.U. after   11 cycles
 SCF Done:  E(RB3LYP) =  -890.284708269     A.U. after   11 cycles
 SCF Done:  E(RB3LYP) =  -890.284711482     A.U. after   10 cycles
 SCF Done:  E(RB3LYP) =  -890.284713406     A.U. after   10 cycles
 SCF Done:  E(RB3LYP) =  -890.284713990     A.U. after    9 cycles
 Optimization completed.
    -- Stationary point found.
 Normal termination of Gaussian 16 at Tue Dec  8 19:43:41 2020.

 --------------------------------------------------------------------
 #N Geom=AllCheck Guess=TCheck SCRF=Check GenChk RB3LYP/6-31G(d) Freq
 --------------------------------------------------------------------

 Structure from the checkpoint file:  "JID_1616.chk"
 -------------------------------
 CID_139041405_JID_1616_neutraal
 -------------------------------
 Charge =  0 Multiplicity = 1

 SCF Done:  E(RB3LYP) =  -890.284713990     A.U. after    1 cycles

  Exact polarizability: 155.016   1.103 130.330  -0.001  -0.006  38.733
 Approx polarizability: 266.909   8.151 236.346  -0.005  -0.014  61.613

                      1                      2                      3
                      A                      A                      A
 Frequencies --     66.3336                87.2707               138.2161
 Red. masses --      4.2548                 4.7060                 6.7061
 Frc consts  --      0.0110                 0.0211                 0.0755
 IR Inten    --      0.1928                 0.0234                 0.5930

                      4                      5                      6
                      A                      A                      A
 Frequencies --    138.5952               178.9375               200.1821
 Red. masses --      7.6404                 4.8530                 7.2443
 Frc consts  --      0.0865                 0.0916                 0.1710
 IR Inten    --      0.0560                 6.3333                 2.1423

                      7                      8                      9
                      A                      A                      A
 Frequencies --    287.0654               332.7350               371.5501
 Red. masses --      7.8304                 3.0811                10.6354
 Frc consts  --      0.3802                 0.2010                 0.8650
 IR Inten    --      1.0172                45.1835                 0.8508

                     10                     11                     12
                      A                      A                      A
 Frequencies --    385.1574               415.8302               430.3279
 Red. masses --      1.6105                 1.1358                 6.5008
 Frc consts  --      0.1408                 0.1157                 0.7093
 IR Inten    --     27.5615               158.9558                 1.2623

                     13                     14                     15
                      A                      A                      A
 Frequencies --    475.8772               563.4382               591.6410
 Red. masses --      3.8999                 6.6059                 4.3519
 Frc consts  --      0.5204                 1.2356                 0.8975
 IR Inten    --     10.3789                12.2112                24.1953

                     16                     17                     18
                      A                      A                      A
 Frequencies --    671.2255               671.7015               746.7092
 Red. masses --      2.4993                 6.9016                 1.5991
 Frc consts  --      0.6634                 1.8347                 0.5253
 IR Inten    --      5.8142                15.0611                40.6093

                     19                     20                     21
                      A                      A                      A
 Frequencies --    748.7822               787.1717               866.2348
 Red. masses --      7.9102                 5.4861                 4.5114
 Frc consts  --      2.6130                 2.0029                 1.9945
 IR Inten    --     30.3214                 9.7580                21.2751

                     22                     23                     24
                      A                      A                      A
 Frequencies --    893.4968               943.8897               945.1488
 Red. masses --      1.2920                 7.9026                 1.2473
 Frc consts  --      0.6077                 4.1482                 0.6565
 IR Inten    --      0.5845               241.1375                 7.4110

                     25                     26                     27
                      A                      A                      A
 Frequencies --    982.1531              1010.2442              1061.8314
 Red. masses --      1.4695                 9.1490                 2.8124
 Frc consts  --      0.8352                 5.5014                 1.8683
 IR Inten    --      9.1492               180.3895                 1.4243

                     28                     29                     30
                      A                      A                      A
 Frequencies --   1131.1354              1215.7498              1271.4649
 Red. masses --      1.3474                 2.5113                 3.0724
 Frc consts  --      1.0158                 2.1870                 2.9264
 IR Inten    --      0.3663                15.8855                76.6825

                     31                     32                     33
                      A                      A                      A
 Frequencies --   1323.6992              1356.0009              1384.4070
 Red. masses --      1.2107                 1.2761                 1.3366
 Frc consts  --      1.2499                 1.3824                 1.5093
 IR Inten    --     63.6234                45.9954                10.2056

                     34                     35                     36
                      A                      A                      A
 Frequencies --   1407.7013              1475.0550              1488.1212
 Red. masses --      2.1115                 3.7918                 1.9898
 Frc consts  --      2.4652                 4.8609                 2.5962
 IR Inten    --     23.2581                54.2282                 6.2486

                     37                     38                     39
                      A                      A                      A
 Frequencies --   1570.4116              1691.3343              1706.4798
 Red. masses --      5.9688                 5.8805                 6.4357
 Frc consts  --      8.6729                 9.9112                11.0419
 IR Inten    --      6.8531                 6.1124                 1.5014

                     40                     41                     42
                      A                      A                      A
 Frequencies --   3121.6350              3220.2123              3225.7071
 Red. masses --      1.0879                 1.0911                 1.0897
 Frc consts  --      6.2460                 6.6663                 6.6804
 IR Inten    --     20.8229                 6.5922                12.4179

                     43                     44                     45
                      A                      A                      A
 Frequencies --   3268.0951              3755.6134              3761.9655
 Red. masses --      1.0967                 1.0676                 1.0678
 Frc consts  --      6.9010                 8.8721                 8.9038
 IR Inten    --      0.3324                95.7585               119.5146

 - Thermochemistry -
 -------------------
 Temperature   298.150 Kelvin.  Pressure   1.00000 Atm.
 Atom     1 has atomic number  6 and mass  12.00000

 Molecular mass:   170.01500 amu.
 Principal axes and moments of inertia in atomic units:
                           1         2         3
     Eigenvalues --  1301.614392519.928113821.54244
           X            0.99999   0.00379   0.00000
           Y           -0.00379   0.99999  -0.00001
           Z           -0.00000   0.00001   1.00000
 This molecule is an asymmetric top.
 Rotational symmetry number  1.
 Warning -- assumption of classical behavior for rotation
           may cause significant error
 Rotational temperatures (Kelvin)      0.06654     0.03437     0.02266
 Rotational constants (GHZ):           1.38654     0.71619     0.47225
 Zero-point vibrational energy     313221.4 (Joules/Mol)
                                   74.86172 (Kcal/Mol)
 Warning -- explicit consideration of  15 degrees of freedom as
           vibrations may cause significant error
 Vibrational temperatures:     95.44   125.56   198.86   199.41   257.45
          (Kelvin)            288.02   413.02   478.73   534.58   554.16
                              598.29   619.15   684.68   810.66   851.24
                              965.74   966.43  1074.35  1077.33  1132.56
                             1246.32  1285.54  1358.05  1359.86  1413.10
                             1453.52  1527.74  1627.45  1749.19  1829.35
                             1904.51  1950.98  1991.85  2025.37  2122.28
                             2141.07  2259.47  2433.45  2455.24  4491.34
                             4633.17  4641.07  4702.06  5403.49  5412.63

 Zero-point correction=                           0.119300 (Hartree/Particle)
 Thermal correction to Energy=                    0.129754
 Thermal correction to Enthalpy=                  0.130699
 Thermal correction to Gibbs Free Energy=         0.082679
 Sum of electronic and zero-point Energies=           -890.165414
 Sum of electronic and thermal Energies=              -890.154960
 Sum of electronic and thermal Enthalpies=            -890.154015
 Sum of electronic and thermal Free Energies=         -890.202035

                     E (Thermal)             CV                S
                      KCal/Mol        Cal/Mol-Kelvin    Cal/Mol-Kelvin
 Total                   81.422             38.391            101.066
 Electronic               0.000              0.000              0.000
 Translational            0.889              2.981             41.300
 Rotational               0.889              2.981             30.906
 Vibrational             79.645             32.430             28.860
 Vibration     1          0.598              1.970              4.259
 Vibration     2          0.601              1.958              3.720
 Vibration     3          0.614              1.915              2.828
 Vibration     4          0.614              1.915              2.823
 Vibration     5          0.629              1.868              2.339
 Vibration     6          0.638              1.840              2.131
 Vibration     7          0.684              1.698              1.491
 Vibration     8          0.715              1.610              1.247
 Vibration     9          0.743              1.531              1.073
 Vibration    10          0.754              1.502              1.019
 Vibration    11          0.779              1.436              0.906
 Vibration    12          0.792              1.404              0.858
 Vibration    13          0.833              1.304              0.721
 Vibration    14          0.919              1.110              0.517
 Vibration    15          0.949              1.050              0.464

 Optimization completed.
    -- Stationary point found.
 Normal termination of Gaussian 16 at Tue Dec  8 19:46:40 2020.

 ----------------------------------------------------------------------
 # B3LYP/6-311++G(d,p) empiricaldispersion=gd3bj scf=xqc pop=npa geom=c
 heck
 ----------------------------------------------------------------------

 ---------------------------------------
 CID_139041405_JID_1616_Energie_neutraal
 ---------------------------------------
 Structure from the checkpoint file:  "JID_1616.chk"
 Charge =  0 Multiplicity = 1

 SCF Done:  E(RB3LYP) =  -890.464696262     A.U. after   16 cycles
 Normal termination of Gaussian 16 at Tue Dec  8 19:48:04 2020.

 ----------------------------------------------------------------------
 # B3LYP/6-311++G(d,p) empiricaldispersion=gd3bj scf=xqc pop=npa geom=c
 heck
 ----------------------------------------------------------------------

 -------------------------------------
 CID_139041405_JID_1616_Energie_kation
 -------------------------------------
 Structure from the checkpoint file:  "JID_1616.chk"
 Charge =  1 Multiplicity = 2

 SCF Done:  E(UB3LYP) =  -890.169234100     A.U. after   24 cycles
 Normal termination of Gaussian 16 at Tue Dec  8 19:51:43 2020.
 Gaussian 16:  ES64L-G16RevA.03 25-Dec-2016

 ----------------------------------------------------------------------
 # B3LYP/6-311++G(d,p) empiricaldispersion=gd3bj scf=xqc pop=npa geom=c
 heck
 ----------------------------------------------------------------------

 ------------------------------------
 CID_139041405_JID_1616_Energie_anion
 ------------------------------------
 Structure from the checkpoint file:  "JID_1616.chk"
 Charge = -1 Multiplicity = 2

                         Standard orientation:
 ---------------------------------------------------------------------
 Center     Atomic      Atomic             Coordinates (Angstroms)
 Number     Number       Type             X           Y           Z
 ---------------------------------------------------------------------
      1          6           0       -0.270234   -2.194980    0.000166
      2          6           0        1.085661   -2.361139   -0.000055
      3         16           0        1.926438   -0.852482   -0.000261
      4          6           0        0.425140    0.048036   -0.000050
      5          6           0       -0.670395   -0.823110    0.000203
      6          6           0       -2.091332   -0.495879    0.000339
      7          7           0       -2.558087    0.699781   -0.000144
      8          8           0       -3.958988    0.679738   -0.000124
      9          6           0        0.352676    1.492341   -0.000011
     10          7           0        1.293051    2.374304    0.000052
     11          8           0        2.564238    1.781336    0.000234
     12          1           0       -0.979580   -3.015467    0.000440
     13          1           0        1.638023   -3.291336   -0.000093
     14          1           0       -2.786958   -1.338860    0.000729
     15          1           0       -4.182103    1.623810   -0.000849
     16          1           0       -0.646520    1.915281   -0.000171
     17          1           0        3.158279    2.547481    0.000334
 ---------------------------------------------------------------------

 SCF Done:  E(UB3LYP) =  -890.486355879     A.U. after   21 cycles

 The electronic state is 2-A.
 Alpha  occ. eigenvalues --  -88.70968 -19.02133 -19.01205 -14.18877 -14.18190
 Alpha  occ. eigenvalues --  -10.04463 -10.03860 -10.03454 -10.03317 -10.02910
 Alpha  occ. eigenvalues --  -10.02251  -7.79610  -5.75915  -5.75526  -5.75237
 Alpha  occ. eigenvalues --   -0.93967  -0.93167  -0.73525  -0.70497  -0.69505
 Alpha  occ. eigenvalues --   -0.58940  -0.57928  -0.48236  -0.44930  -0.41228
 Alpha  occ. eigenvalues --   -0.40008  -0.37771  -0.34971  -0.32085  -0.30163
 Alpha  occ. eigenvalues --   -0.29932  -0.27473  -0.26499  -0.25528  -0.24757
 Alpha  occ. eigenvalues --   -0.22874  -0.22408  -0.18617  -0.15045  -0.13661
 Alpha  occ. eigenvalues --   -0.13125  -0.12143  -0.09429  -0.06893   0.04054
 Alpha virt. eigenvalues --    0.09493   0.09704   0.10230   0.11312   0.14032
 Alpha virt. eigenvalues --    0.14122   0.14532   0.15425   0.15859   0.16950
 Alpha virt. eigenvalues --    0.17384   0.18777   0.19124   0.19421   0.20243

  Beta  occ. eigenvalues --  -88.70887 -19.02067 -19.01092 -14.18397 -14.17616
  Beta  occ. eigenvalues --  -10.04412 -10.03698 -10.03350 -10.03162 -10.02994
  Beta  occ. eigenvalues --  -10.02122  -7.79537  -5.75876  -5.75490  -5.74975
  Beta  occ. eigenvalues --   -0.93646  -0.92742  -0.73166  -0.70021  -0.69013
  Beta  occ. eigenvalues --   -0.58566  -0.57386  -0.47600  -0.44645  -0.41040
  Beta  occ. eigenvalues --   -0.39755  -0.37560  -0.34696  -0.31810  -0.29993
  Beta  occ. eigenvalues --   -0.29739  -0.26202  -0.25392  -0.25111  -0.24587
  Beta  occ. eigenvalues --   -0.22280  -0.21974  -0.18299  -0.13926  -0.12623
  Beta  occ. eigenvalues --   -0.12450  -0.11530  -0.08337  -0.04784
  Beta virt. eigenvalues --    0.09476   0.09700   0.10154   0.10244   0.11294
  Beta virt. eigenvalues --    0.14091   0.14546   0.15326   0.15814   0.15885
  Beta virt. eigenvalues --    0.16965   0.17595   0.18906   0.19412   0.19944

 Mulliken charges and spin densities:
               1          2
     1  C   -0.542545  -0.071838
     2  C    0.096177   0.114396
     3  S   -0.546750   0.113147
     4  C    0.492365   0.252202
     5  C    0.337655   0.117716
     6  C   -1.020154   0.013662
     7  N   -0.486355   0.222445
     8  O   -0.006383   0.019133
     9  C   -0.062509  -0.042353
    10  N   -0.331995   0.261354
    11  O   -0.094060   0.016528
    12  H    0.083076   0.004999
    13  H    0.197945  -0.007530
    14  H    0.096054  -0.007993
    15  H    0.244664  -0.000301
    16  H    0.297058  -0.003702
    17  H    0.245758  -0.001866
 Sum of Mulliken charges =  -1.00000   1.00000

 Dipole moment (field-independent basis, Debye):
    X=              0.5798    Y=             -1.0948    Z=             -0.0004  Tot=              1.2388
 Quadrupole moment (field-independent basis, Debye-Ang):
   XX=            -91.3476   YY=            -82.6128   ZZ=            -80.5675
   XY=             -1.5896   XZ=              0.0045   YZ=             -0.0027

 Summary of Natural Population Analysis:

                                       Natural Population
                Natural  -----------------------------------------------
    Atom  No    Charge         Core      Valence    Rydberg      Total
 -----------------------------------------------------------------------
      C    1   -0.14257      0.99951     2.13337    0.00969     3.14257
      C    2   -0.18823      0.99956     2.17629    0.01239     3.18823
      S    3    0.24523      4.99944     2.73152    0.02382     7.75477
      C    4   -0.06763      0.99943     2.05625    0.01195     3.06763
      C    5   -0.04549      0.99945     2.03657    0.00947     3.04549
      C    6    0.02275      0.99962     1.96126    0.01637     2.97725
      N    7   -0.03018      0.99962     2.51408    0.01648     3.53018
      O    8   -0.29503      0.99990     3.28709    0.00804     4.29503
      C    9   -0.02011      0.99959     1.99993    0.02059     3.02011
      N   10   -0.01660      0.99965     2.49946    0.01749     3.51660
      O   11   -0.29154      0.99990     3.28275    0.00889     4.29154
      H   12    0.09561      0.00000     0.40327    0.00111     0.40439
      H   13    0.09579      0.00000     0.40317    0.00104     0.40421
      H   14    0.07481      0.00000     0.42238    0.00281     0.42519
      H   15    0.22555      0.00000     0.27192    0.00253     0.27445
      H   16    0.11205      0.00000     0.38436    0.00359     0.38795
      H   17    0.22558      0.00000     0.27189    0.00253     0.27442
 =======================================================================
   * Total *    0.00000     14.99566    28.83557    0.16878    44.00000

 Normal termination of Gaussian 16 at Tue Dec  8 19:54:23 2020.
