 Gaussian 16, Revision A.03,

 -----------------------------------------------------------
 # opt freq B3LYP/6-31G(d) empiricaldispersion=gd3bj scf=xqc
 -----------------------------------------------------------

 ------------------------------
 CID_82396388_JID_5329_neutraal
 ------------------------------
 Symbolic Z-matrix:
 Charge =  0 Multiplicity = 1

 SCF Done:  E(RB3LYP) =  -706.294165745     A.U. after   15 cycles
 SCF Done:  E(RB3LYP) =  -706.298743478     A.U. after   13 cycles
 SCF Done:  E(RB3LYP) =  -706.298758846     A.U. after   12 cycles
 SCF Done:  E(RB3LYP) =  -706.299551215     A.U. after   12 cycles
 SCF Done:  E(RB3LYP) =  -706.299754841     A.U. after   12 cycles
 SCF Done:  E(RB3LYP) =  -706.299935429     A.U. after   13 cycles
 SCF Done:  E(RB3LYP) =  -706.299999762     A.U. after   12 cycles
 SCF Done:  E(RB3LYP) =  -706.300055913     A.U. after   12 cycles
 SCF Done:  E(RB3LYP) =  -706.300104466     A.U. after   11 cycles
 SCF Done:  E(RB3LYP) =  -706.300114648     A.U. after   11 cycles
 SCF Done:  E(RB3LYP) =  -706.300119272     A.U. after   10 cycles
 SCF Done:  E(RB3LYP) =  -706.300120839     A.U. after    9 cycles
 SCF Done:  E(RB3LYP) =  -706.300121233     A.U. after    8 cycles
 SCF Done:  E(RB3LYP) =  -706.300121382     A.U. after    7 cycles
 Optimization completed.
    -- Stationary point found.
 Normal termination of Gaussian 16 at Thu Dec 10 15:35:35 2020.

 --------------------------------------------------------------------
 #N Geom=AllCheck Guess=TCheck SCRF=Check GenChk RB3LYP/6-31G(d) Freq
 --------------------------------------------------------------------

 Structure from the checkpoint file:  "JID_5329.chk"
 ------------------------------
 CID_82396388_JID_5329_neutraal
 ------------------------------
 Charge =  0 Multiplicity = 1

 SCF Done:  E(RB3LYP) =  -706.300121382     A.U. after    1 cycles

  Exact polarizability: 146.221  -7.764 107.513  -0.387 -19.972  96.670
 Approx polarizability: 215.076 -22.087 169.251   3.829 -50.274 168.783

                      1                      2                      3
                      A                      A                      A
 Frequencies --     42.0794                49.8850                69.2373
 Red. masses --      4.7512                 7.0739                 6.6632
 Frc consts  --      0.0050                 0.0104                 0.0188
 IR Inten    --      0.4498                 2.2572                 0.2542

                      4                      5                      6
                      A                      A                      A
 Frequencies --     80.5167                95.0611               165.2852
 Red. masses --      6.5273                 3.9323                 5.4948
 Frc consts  --      0.0249                 0.0209                 0.0884
 IR Inten    --      1.5200                 1.9464                 0.7058

                      7                      8                      9
                      A                      A                      A
 Frequencies --    237.1186               252.2754               301.5558
 Red. masses --      4.7791                 3.9826                 5.8241
 Frc consts  --      0.1583                 0.1493                 0.3120
 IR Inten    --      1.0611                 1.9666                 1.2623

                     10                     11                     12
                      A                      A                      A
 Frequencies --    357.7649               405.0939               418.2013
 Red. masses --      5.2373                 7.7168                 3.0294
 Frc consts  --      0.3950                 0.7461                 0.3122
 IR Inten    --      1.9384                 3.9174                 0.1756

                     13                     14                     15
                      A                      A                      A
 Frequencies --    468.8976               512.3297               534.0922
 Red. masses --      3.3405                 1.5543                 3.1956
 Frc consts  --      0.4327                 0.2404                 0.5371
 IR Inten    --     16.2455                56.4556                 3.2175

                     16                     17                     18
                      A                      A                      A
 Frequencies --    554.4210               594.9648               617.9850
 Red. masses --      2.6731                 2.7712                 2.7596
 Frc consts  --      0.4841                 0.5780                 0.6209
 IR Inten    --     53.3466                16.5757                38.8891

                     19                     20                     21
                      A                      A                      A
 Frequencies --    634.8861               644.9999               676.2090
 Red. masses --      6.3167                 1.9201                 3.3745
 Frc consts  --      1.5001                 0.4706                 0.9091
 IR Inten    --      0.1611                77.1845                51.1923

                     22                     23                     24
                      A                      A                      A
 Frequencies --    716.5855               734.4490               767.0582
 Red. masses --      1.8478                 3.4002                 2.2914
 Frc consts  --      0.5590                 1.0806                 0.7943
 IR Inten    --     34.2406                20.6786                 4.6668

                     25                     26                     27
                      A                      A                      A
 Frequencies --    781.4244               830.5701               862.0135
 Red. masses --      4.0000                 3.2921                 2.5715
 Frc consts  --      1.4391                 1.3380                 1.1258
 IR Inten    --     36.3677                18.6025                 8.6579

                     28                     29                     30
                      A                      A                      A
 Frequencies --    862.8333               895.3235               931.4440
 Red. masses --      1.3991                 4.0353                 1.4497
 Frc consts  --      0.6137                 1.9058                 0.7410
 IR Inten    --      1.3729                 6.0115                 3.7772

                     31                     32                     33
                      A                      A                      A
 Frequencies --    972.2243               974.7940               999.2322
 Red. masses --      1.5045                 2.4517                 1.2671
 Frc consts  --      0.8378                 1.3726                 0.7454
 IR Inten    --      4.0881                 9.3910                 0.0321

                     34                     35                     36
                      A                      A                      A
 Frequencies --   1012.5064              1022.0781              1060.4438
 Red. masses --      2.4117                 5.9731                 2.3044
 Frc consts  --      1.4567                 3.6764                 1.5268
 IR Inten    --      8.3652                 0.8964                 4.4959

                     37                     38                     39
                      A                      A                      A
 Frequencies --   1083.0765              1108.0195              1125.5668
 Red. masses --      2.0606                 2.7565                 1.6719
 Frc consts  --      1.4242                 1.9939                 1.2480
 IR Inten    --     13.0134                10.0316                 4.3361

                     40                     41                     42
                      A                      A                      A
 Frequencies --   1174.4107              1195.6056              1204.4833
 Red. masses --      1.4069                 1.1012                 2.0454
 Frc consts  --      1.1433                 0.9274                 1.7483
 IR Inten    --     12.3122                 0.7413               138.1537

                     43                     44                     45
                      A                      A                      A
 Frequencies --   1219.2660              1223.4501              1257.6821
 Red. masses --      1.1896                 2.1814                 1.9510
 Frc consts  --      1.0420                 1.9238                 1.8182
 IR Inten    --     18.1317                43.2329                89.3710

                     46                     47                     48
                      A                      A                      A
 Frequencies --   1276.3741              1294.8871              1340.0091
 Red. masses --      1.4111                 1.3619                 2.1083
 Frc consts  --      1.3544                 1.3454                 2.2304
 IR Inten    --     18.4646                 2.8286                29.5432

                     49                     50                     51
                      A                      A                      A
 Frequencies --   1340.8858              1371.9360              1376.9738
 Red. masses --      1.9642                 2.0507                 1.5687
 Frc consts  --      2.0807                 2.2741                 1.7524
 IR Inten    --     10.7287                 1.1251                12.3715

                     52                     53                     54
                      A                      A                      A
 Frequencies --   1396.6480              1415.1230              1441.5220
 Red. masses --      2.4226                 1.5935                 2.0192
 Frc consts  --      2.7842                 1.8801                 2.4722
 IR Inten    --     25.3264                30.5873                54.5320

                     55                     56                     57
                      A                      A                      A
 Frequencies --   1500.6733              1506.6710              1548.5697
 Red. masses --      1.1279                 2.0356                 2.1864
 Frc consts  --      1.4966                 2.7226                 3.0892
 IR Inten    --      6.6861                12.6166                 7.5402

                     58                     59                     60
                      A                      A                      A
 Frequencies --   1648.9813              1667.8026              1839.8882
 Red. masses --      5.4684                 5.4927                 9.7461
 Frc consts  --      8.7608                 9.0017                19.4386
 IR Inten    --      0.4473                 1.9930               305.0536

                     61                     62                     63
                      A                      A                      A
 Frequencies --   1841.5797              3079.4555              3097.8472
 Red. masses --     10.6263                 1.0863                 1.0743
 Frc consts  --     21.2332                 6.0693                 6.0743
 IR Inten    --    392.6857                16.0402                 4.5988

                     64                     65                     66
                      A                      A                      A
 Frequencies --   3101.9708              3149.9216              3184.8003
 Red. masses --      1.0727                 1.1031                 1.0850
 Frc consts  --      6.0813                 6.4485                 6.4838
 IR Inten    --     12.1403                 9.1378                 0.9281

                     67                     68                     69
                      A                      A                      A
 Frequencies --   3192.0268              3200.2056              3208.0205
 Red. masses --      1.0877                 1.0912                 1.0938
 Frc consts  --      6.5295                 6.5845                 6.6320
 IR Inten    --      2.2042                17.1479                25.9800

                     70                     71                     72
                      A                      A                      A
 Frequencies --   3214.7849              3615.2557              3685.3697
 Red. masses --      1.0977                 1.0774                 1.0639
 Frc consts  --      6.6839                 8.2967                 8.5138
 IR Inten    --     13.0505                27.0723                51.0899

 - Thermochemistry -
 -------------------
 Temperature   298.150 Kelvin.  Pressure   1.00000 Atm.
 Atom     1 has atomic number  6 and mass  12.00000

 Molecular mass:   205.07389 amu.
 Principal axes and moments of inertia in atomic units:
                           1         2         3
     Eigenvalues --  2133.320173315.613084448.18502
           X            0.99958   0.02873  -0.00244
           Y           -0.02875   0.99955  -0.00902
           Z            0.00218   0.00909   0.99996
 This molecule is an asymmetric top.
 Rotational symmetry number  1.
 Warning -- assumption of classical behavior for rotation
           may cause significant error
 Rotational temperatures (Kelvin)      0.04060     0.02612     0.01947
 Rotational constants (GHZ):           0.84598     0.54432     0.40573
 Zero-point vibrational energy     545889.4 (Joules/Mol)
                                  130.47070 (Kcal/Mol)
 Warning -- explicit consideration of  18 degrees of freedom as
           vibrations may cause significant error
 Vibrational temperatures:     60.54    71.77    99.62   115.85   136.77
          (Kelvin)            237.81   341.16   362.97   433.87   514.74
                              582.84   601.70   674.64   737.13   768.44
                              797.69   856.02   889.14   913.46   928.01
                              972.91  1031.01  1056.71  1103.63  1124.30
                             1195.01  1240.25  1241.42  1288.17  1340.14
                             1398.81  1402.51  1437.67  1456.77  1470.54
                             1525.74  1558.31  1594.19  1619.44  1689.72
                             1720.21  1732.98  1754.25  1760.27  1809.52
                             1836.42  1863.05  1927.97  1929.24  1973.91
                             1981.16  2009.46  2036.05  2074.03  2159.13
                             2167.76  2228.05  2372.52  2399.60  2647.19
                             2649.62  4430.65  4457.11  4463.04  4532.03
                             4582.22  4592.61  4604.38  4615.63  4625.36
                             5201.55  5302.42

 Zero-point correction=                           0.207918 (Hartree/Particle)
 Thermal correction to Energy=                    0.220449
 Thermal correction to Enthalpy=                  0.221394
 Thermal correction to Gibbs Free Energy=         0.167635
 Sum of electronic and zero-point Energies=           -706.092203
 Sum of electronic and thermal Energies=              -706.079672
 Sum of electronic and thermal Enthalpies=            -706.078728
 Sum of electronic and thermal Free Energies=         -706.132487

                     E (Thermal)             CV                S
                      KCal/Mol        Cal/Mol-Kelvin    Cal/Mol-Kelvin
 Total                  138.334             48.308            113.145
 Electronic               0.000              0.000              0.000
 Translational            0.889              2.981             41.859
 Rotational               0.889              2.981             31.820
 Vibrational            136.557             42.346             39.466
 Vibration     1          0.595              1.980              5.159
 Vibration     2          0.595              1.978              4.822
 Vibration     3          0.598              1.969              4.175
 Vibration     4          0.600              1.962              3.878
 Vibration     5          0.603              1.953              3.553
 Vibration     6          0.624              1.885              2.488
 Vibration     7          0.656              1.784              1.824
 Vibration     8          0.664              1.759              1.715
 Vibration     9          0.694              1.671              1.408
 Vibration    10          0.733              1.559              1.132
 Vibration    11          0.770              1.459              0.944
 Vibration    12          0.781              1.431              0.898
 Vibration    13          0.826              1.319              0.741
 Vibration    14          0.867              1.223              0.628
 Vibration    15          0.889              1.175              0.578
 Vibration    16          0.910              1.130              0.535
 Vibration    17          0.953              1.043              0.458
 Vibration    18          0.978              0.994              0.420

 Optimization completed.
    -- Stationary point found.
 Normal termination of Gaussian 16 at Thu Dec 10 15:44:53 2020.

 ----------------------------------------------------------------------
 # B3LYP/6-311++G(d,p) empiricaldispersion=gd3bj scf=xqc pop=npa geom=c
 heck
 ----------------------------------------------------------------------

 --------------------------------------
 CID_82396388_JID_5329_Energie_neutraal
 --------------------------------------
 Structure from the checkpoint file:  "JID_5329.chk"
 Charge =  0 Multiplicity = 1

 SCF Done:  E(RB3LYP) =  -706.509744604     A.U. after   15 cycles
 Normal termination of Gaussian 16 at Thu Dec 10 15:47:50 2020.

 ----------------------------------------------------------------------
 # B3LYP/6-311++G(d,p) empiricaldispersion=gd3bj scf=xqc pop=npa geom=c
 heck
 ----------------------------------------------------------------------

 ------------------------------------
 CID_82396388_JID_5329_Energie_kation
 ------------------------------------
 Structure from the checkpoint file:  "JID_5329.chk"
 Charge =  1 Multiplicity = 2

 SCF Done:  E(UB3LYP) =  -706.182750655     A.U. after   33 cycles
 SCF Done:  E(UB3LYP) =  -706.182750655     a.u. after    1 cycles
 Normal termination of Gaussian 16 at Thu Dec 10 15:57:53 2020.
 Gaussian 16:  ES64L-G16RevA.03 25-Dec-2016

 ----------------------------------------------------------------------
 # B3LYP/6-311++G(d,p) empiricaldispersion=gd3bj scf=xqc pop=npa geom=c
 heck
 ----------------------------------------------------------------------

 -----------------------------------
 CID_82396388_JID_5329_Energie_anion
 -----------------------------------
 Structure from the checkpoint file:  "JID_5329.chk"
 Charge = -1 Multiplicity = 2

                         Standard orientation:
 ---------------------------------------------------------------------
 Center     Atomic      Atomic             Coordinates (Angstroms)
 Number     Number       Type             X           Y           Z
 ---------------------------------------------------------------------
      1          6           0        2.177544    0.304535    0.707594
      2          6           0        1.310879    1.073173   -0.294209
      3          6           0        0.595149   -0.059230   -1.125384
      4          7           0        1.606444   -1.100592   -1.066622
      5          6           0        2.461896   -1.026757    0.009618
      6          8           0        3.267555   -1.876864    0.337150
      7          6           0       -0.757778   -0.475229   -0.571623
      8          6           0       -0.877648   -1.460230    0.414076
      9          6           0       -2.128432   -1.784812    0.939268
     10          6           0       -3.272786   -1.128391    0.485076
     11          6           0       -3.160837   -0.146258   -0.500448
     12          6           0       -1.910924    0.175079   -1.027186
     13          6           0        0.311183    2.074156    0.235112
     14          8           0       -0.212549    2.927089   -0.448356
     15          8           0        0.021822    1.904672    1.543677
     16          1           0        1.638846    0.098663    1.637395
     17          1           0        3.108044    0.813764    0.966698
     18          1           0        1.946563    1.619841   -0.996581
     19          1           0        0.461519    0.292902   -2.152734
     20          1           0        1.488244   -1.985147   -1.543650
     21          1           0        0.005843   -1.983024    0.767233
     22          1           0       -2.207741   -2.553531    1.702724
     23          1           0       -4.246638   -1.384080    0.892767
     24          1           0       -4.047137    0.365634   -0.864493
     25          1           0       -1.823710    0.946598   -1.787189
     26          1           0       -0.673035    2.557122    1.753055
 ---------------------------------------------------------------------

 SCF Done:  E(UB3LYP) =  -706.500396558     A.U. after   33 cycles
 SCF Done:  E(UB3LYP) =  -706.500396558     a.u. after    1 cycles

 The electronic state is 2-A.
 Alpha  occ. eigenvalues --  -19.07843 -19.02226 -19.00273 -14.24819 -10.21587
 Alpha  occ. eigenvalues --  -10.18425 -10.13691 -10.10930 -10.09101 -10.08729
 Alpha  occ. eigenvalues --  -10.08076 -10.07966 -10.07956 -10.07784 -10.07666
 Alpha  occ. eigenvalues --   -1.01925  -0.95245  -0.92904  -0.85746  -0.76322
 Alpha  occ. eigenvalues --   -0.71471  -0.67511  -0.65281  -0.62057  -0.57619
 Alpha  occ. eigenvalues --   -0.51838  -0.51408  -0.50146  -0.48738  -0.43776
 Alpha  occ. eigenvalues --   -0.41210  -0.40173  -0.39502  -0.37869  -0.36911
 Alpha  occ. eigenvalues --   -0.36071  -0.35244  -0.34358  -0.32810  -0.32682
 Alpha  occ. eigenvalues --   -0.31857  -0.30985  -0.30286  -0.28834  -0.27040
 Alpha  occ. eigenvalues --   -0.26287  -0.25105  -0.24760  -0.23142  -0.19686
 Alpha  occ. eigenvalues --   -0.17904  -0.16506  -0.16148  -0.15508   0.04157
 Alpha virt. eigenvalues --    0.06387   0.06843   0.07424   0.07676   0.07852
 Alpha virt. eigenvalues --    0.08164   0.08416   0.09547   0.09655   0.10702
 Alpha virt. eigenvalues --    0.11013   0.12084   0.13093   0.13296   0.13993

  Beta  occ. eigenvalues --  -19.07798 -19.02214 -19.00271 -14.24807 -10.21585
  Beta  occ. eigenvalues --  -10.18425 -10.13678 -10.10902 -10.09083 -10.08697
  Beta  occ. eigenvalues --  -10.08072 -10.07961 -10.07928 -10.07745 -10.07626
  Beta  occ. eigenvalues --   -1.01865  -0.95239  -0.92859  -0.85721  -0.76259
  Beta  occ. eigenvalues --   -0.71420  -0.67441  -0.65220  -0.61996  -0.57554
  Beta  occ. eigenvalues --   -0.51740  -0.51360  -0.50098  -0.48662  -0.43733
  Beta  occ. eigenvalues --   -0.41159  -0.40122  -0.39457  -0.37832  -0.36854
  Beta  occ. eigenvalues --   -0.36039  -0.35213  -0.34319  -0.32778  -0.32638
  Beta  occ. eigenvalues --   -0.31835  -0.30948  -0.30243  -0.28741  -0.26987
  Beta  occ. eigenvalues --   -0.26200  -0.25065  -0.24717  -0.23110  -0.19651
  Beta  occ. eigenvalues --   -0.17867  -0.16488  -0.16022  -0.15336
  Beta virt. eigenvalues --    0.06509   0.07157   0.07627   0.07725   0.08113
  Beta virt. eigenvalues --    0.08260   0.08406   0.09053   0.09981   0.10156
  Beta virt. eigenvalues --    0.10871   0.11427   0.12344   0.13257   0.13366

 Mulliken charges and spin densities:
               1          2
     1  C    0.628784  -1.274470
     2  C   -0.321720   0.838589
     3  C    4.594077  -4.955937
     4  N   -0.423434   0.270051
     5  C   -0.329161   0.439292
     6  O   -0.374070   0.018514
     7  C   -1.597605   2.327728
     8  C   -1.511937   1.337235
     9  C    0.141217  -0.512846
    10  C    0.806815  -1.038747
    11  C    1.118943  -1.564585
    12  C   -1.525465   1.328586
    13  C    0.167840  -0.747219
    14  O   -0.291766   0.071074
    15  O   -0.131190   0.040230
    16  H    0.166984   0.050304
    17  H   -0.096351   0.303229
    18  H   -0.231182   0.509556
    19  H   -0.390907   0.669328
    20  H   -0.002130   0.312883
    21  H    0.178518   0.010603
    22  H   -0.237118   0.406965
    23  H   -0.440267   0.595769
    24  H   -0.454960   0.627997
    25  H   -0.142315   0.338816
    26  H   -0.301602   0.597057
 Sum of Mulliken charges =  -1.00000   1.00000

 Dipole moment (field-independent basis, Debye):
    X=              1.2813    Y=             -1.2794    Z=              0.4113  Tot=              1.8568
 Quadrupole moment (field-independent basis, Debye-Ang):
   XX=           -151.7751   YY=           -132.6120   ZZ=           -122.3259
   XY=              5.2345   XZ=              3.4858   YZ=              1.7119

 Summary of Natural Population Analysis:

                                       Natural Population
                Natural  -----------------------------------------------
    Atom  No    Charge         Core      Valence    Rydberg      Total
 -----------------------------------------------------------------------
      C    1   -0.23608      0.99958     2.22728    0.00922     3.23608
      C    2   -0.14984      0.99953     2.13776    0.01256     3.14984
      C    3   -0.00189      0.99955     1.98769    0.01465     3.00189
      N    4   -0.32168      0.99967     2.81154    0.01047     3.82168
      C    5    0.34758      0.99967     1.62936    0.02339     2.65242
      O    6   -0.31737      0.99987     3.31175    0.00575     4.31737
      C    7   -0.03087      0.99949     2.01885    0.01253     3.03087
      C    8   -0.10079      0.99950     2.09291    0.00838     3.10079
      C    9   -0.09335      0.99956     2.08414    0.00965     3.09335
      C   10   -0.09640      0.99956     2.08646    0.01038     3.09640
      C   11   -0.09810      0.99956     2.08796    0.01058     3.09810
      C   12   -0.09045      0.99951     2.08125    0.00969     3.09045
      C   13    0.41092      0.99967     1.56330    0.02611     2.58908
      O   14   -0.30331      0.99987     3.29747    0.00597     4.30331
      O   15   -0.34060      0.99987     3.33389    0.00684     4.34060
      H   16    0.12150      0.00000     0.37680    0.00170     0.37850
      H   17    0.11477      0.00000     0.38431    0.00093     0.38523
      H   18    0.11986      0.00000     0.37771    0.00243     0.38014
      H   19    0.10903      0.00000     0.38767    0.00330     0.39097
      H   20    0.19952      0.00000     0.29795    0.00253     0.30048
      H   21    0.10248      0.00000     0.39583    0.00169     0.39752
      H   22    0.09963      0.00000     0.39948    0.00089     0.40037
      H   23    0.10113      0.00000     0.39748    0.00139     0.39887
      H   24    0.10195      0.00000     0.39684    0.00121     0.39805
      H   25    0.10652      0.00000     0.39184    0.00164     0.39348
      H   26    0.24585      0.00000     0.24572    0.00844     0.25415
 =======================================================================
   * Total *    0.00000     14.99445    38.80324    0.20232    54.00000

 Normal termination of Gaussian 16 at Thu Dec 10 16:08:08 2020.
