 Gaussian 16, Revision A.03,

 -----------------------------------------------------------
 # opt freq B3LYP/6-31G(d) empiricaldispersion=gd3bj scf=xqc
 -----------------------------------------------------------

 ------------------------------
 CID_66827121_JID_5367_neutraal
 ------------------------------
 Symbolic Z-matrix:
 Charge =  0 Multiplicity = 1

 SCF Done:  E(RB3LYP) =  -632.968523295     A.U. after   13 cycles
 SCF Done:  E(RB3LYP) =  -632.975277111     A.U. after   12 cycles
 SCF Done:  E(RB3LYP) =  -632.976343226     A.U. after   12 cycles
 SCF Done:  E(RB3LYP) =  -632.976995345     A.U. after   12 cycles
 SCF Done:  E(RB3LYP) =  -632.979140759     A.U. after   14 cycles
 SCF Done:  E(RB3LYP) =  -632.980263094     A.U. after   12 cycles
 SCF Done:  E(RB3LYP) =  -632.978288230     A.U. after   12 cycles
 SCF Done:  E(RB3LYP) =  -632.981539100     A.U. after   11 cycles
 SCF Done:  E(RB3LYP) =  -632.981579449     A.U. after   11 cycles
 SCF Done:  E(RB3LYP) =  -632.981595711     A.U. after   10 cycles
 SCF Done:  E(RB3LYP) =  -632.981598325     A.U. after   10 cycles
 SCF Done:  E(RB3LYP) =  -632.981598911     A.U. after    7 cycles
 SCF Done:  E(RB3LYP) =  -632.981598981     A.U. after    7 cycles
 Optimization completed.
    -- Stationary point found.
 Normal termination of Gaussian 16 at Thu Dec 10 15:47:30 2020.

 --------------------------------------------------------------------
 #N Geom=AllCheck Guess=TCheck SCRF=Check GenChk RB3LYP/6-31G(d) Freq
 --------------------------------------------------------------------

 Structure from the checkpoint file:  "JID_5367.chk"
 ------------------------------
 CID_66827121_JID_5367_neutraal
 ------------------------------
 Charge =  0 Multiplicity = 1

 SCF Done:  E(RB3LYP) =  -632.981598981     A.U. after    1 cycles

  Exact polarizability: 171.414   2.732 155.548  -9.209  -1.722  97.955
 Approx polarizability: 239.981   7.317 234.993 -18.815  -2.540 149.322

                      1                      2                      3
                      A                      A                      A
 Frequencies --     29.8747                77.9750                95.1271
 Red. masses --      3.6542                 3.2737                 3.6113
 Frc consts  --      0.0019                 0.0117                 0.0193
 IR Inten    --      0.0153                 0.1740                 0.3280

                      4                      5                      6
                      A                      A                      A
 Frequencies --     96.3894               122.5807               195.7222
 Red. masses --      3.5882                 2.4239                 2.0025
 Frc consts  --      0.0196                 0.0215                 0.0452
 IR Inten    --      0.4900                 1.8376                 0.2996

                      7                      8                      9
                      A                      A                      A
 Frequencies --    219.3588               243.2693               255.4353
 Red. masses --      1.5131                 2.6097                 1.3893
 Frc consts  --      0.0429                 0.0910                 0.0534
 IR Inten    --      0.9011                 0.5522                 0.1556

                     10                     11                     12
                      A                      A                      A
 Frequencies --    278.1106               306.3490               319.8043
 Red. masses --      2.6726                 2.7926                 2.7806
 Frc consts  --      0.1218                 0.1544                 0.1676
 IR Inten    --      0.3485                 7.2933                 0.7806

                     13                     14                     15
                      A                      A                      A
 Frequencies --    365.1882               393.4629               409.6473
 Red. masses --      2.4671                 2.4199                 2.4491
 Frc consts  --      0.1939                 0.2207                 0.2421
 IR Inten    --      0.1452                 4.4324                 1.0107

                     16                     17                     18
                      A                      A                      A
 Frequencies --    415.7326               443.7313               496.5489
 Red. masses --      2.7661                 2.7160                 2.8676
 Frc consts  --      0.2817                 0.3151                 0.4166
 IR Inten    --      0.3192                 7.3558                 1.1252

                     19                     20                     21
                      A                      A                      A
 Frequencies --    524.6028               576.0854               630.3843
 Red. masses --      3.1904                 3.6325                 3.5294
 Frc consts  --      0.5173                 0.7103                 0.8263
 IR Inten    --      3.9264                 5.9453                 4.6652

                     22                     23                     24
                      A                      A                      A
 Frequencies --    637.0491               709.4431               725.8129
 Red. masses --      5.8831                 2.1283                 2.9054
 Frc consts  --      1.4067                 0.6311                 0.9018
 IR Inten    --      0.5970                13.0151                28.4807

                     25                     26                     27
                      A                      A                      A
 Frequencies --    744.5389               784.4170               798.2595
 Red. masses --      2.1097                 2.6996                 2.8285
 Frc consts  --      0.6890                 0.9787                 1.0619
 IR Inten    --     28.8644                11.9644                 3.1136

                     28                     29                     30
                      A                      A                      A
 Frequencies --    822.2174               857.1065               886.4614
 Red. masses --      2.4248                 1.2535                 1.7965
 Frc consts  --      0.9658                 0.5426                 0.8317
 IR Inten    --      2.7547                 0.2069                44.8168

                     31                     32                     33
                      A                      A                      A
 Frequencies --    923.3267               933.6779               964.5109
 Red. masses --      1.4928                 2.1886                 1.3669
 Frc consts  --      0.7498                 1.1241                 0.7492
 IR Inten    --     11.5943                 0.7558                 0.7821

                     34                     35                     36
                      A                      A                      A
 Frequencies --    975.7427               990.1733              1000.6341
 Red. masses --      1.8205                 1.2969                 2.1944
 Frc consts  --      1.0212                 0.7491                 1.2946
 IR Inten    --     15.0836                 0.2389                13.5012

                     37                     38                     39
                      A                      A                      A
 Frequencies --   1024.2034              1040.4654              1056.2831
 Red. masses --      5.8483                 2.4402                 2.5601
 Frc consts  --      3.6145                 1.5565                 1.6829
 IR Inten    --      0.1293                26.9802                 9.7066

                     40                     41                     42
                      A                      A                      A
 Frequencies --   1068.8954              1091.1888              1103.4128
 Red. masses --      1.9673                 1.7367                 2.3655
 Frc consts  --      1.3243                 1.2184                 1.6969
 IR Inten    --      2.9120                 5.0679                22.8983

                     43                     44                     45
                      A                      A                      A
 Frequencies --   1118.9764              1135.7932              1155.4514
 Red. masses --      1.5970                 2.0112                 2.1399
 Frc consts  --      1.1781                 1.5286                 1.6833
 IR Inten    --      1.8174                 5.6026                12.9387

                     46                     47                     48
                      A                      A                      A
 Frequencies --   1172.7263              1185.9310              1192.6742
 Red. masses --      1.6593                 2.0139                 1.3774
 Frc consts  --      1.3446                 1.6688                 1.1544
 IR Inten    --     16.3758                20.7457                 5.0756

                     49                     50                     51
                      A                      A                      A
 Frequencies --   1194.0844              1213.5333              1219.8131
 Red. masses --      1.5937                 1.9538                 1.1384
 Frc consts  --      1.3388                 1.6953                 0.9980
 IR Inten    --      6.8349                 2.5295                 4.2224

                     52                     53                     54
                      A                      A                      A
 Frequencies --   1228.5991              1254.9202              1276.5134
 Red. masses --      1.8203                 1.5506                 1.7870
 Frc consts  --      1.6189                 1.4387                 1.7157
 IR Inten    --      4.8778                 1.9363                13.4289

                     55                     56                     57
                      A                      A                      A
 Frequencies --   1311.4872              1342.0246              1351.2332
 Red. masses --      1.4743                 1.5359                 1.9561
 Frc consts  --      1.4940                 1.6298                 2.1042
 IR Inten    --      1.8181                14.7573                15.1845

                     58                     59                     60
                      A                      A                      A
 Frequencies --   1370.5460              1377.1545              1383.3030
 Red. masses --      2.3524                 1.3313                 1.5619
 Frc consts  --      2.6034                 1.4876                 1.7609
 IR Inten    --      1.9636                 6.7039                 4.9190

                     61                     62                     63
                      A                      A                      A
 Frequencies --   1396.6315              1412.6476              1430.3598
 Red. masses --      1.3740                 1.3773                 1.4707
 Frc consts  --      1.5791                 1.6193                 1.7728
 IR Inten    --     15.0783                12.6315                14.2748

                     64                     65                     66
                      A                      A                      A
 Frequencies --   1471.1858              1483.1106              1493.3453
 Red. masses --      1.1740                 1.1936                 1.0973
 Frc consts  --      1.4971                 1.5469                 1.4418
 IR Inten    --      0.1999                 0.7440                 5.5415

                     67                     68                     69
                      A                      A                      A
 Frequencies --   1500.1553              1509.8600              1514.3041
 Red. masses --      2.1781                 1.1428                 1.0582
 Frc consts  --      2.8880                 1.5349                 1.4297
 IR Inten    --      6.3744                 9.2039                 2.5759

                     70                     71                     72
                      A                      A                      A
 Frequencies --   1516.8223              1523.0219              1536.2131
 Red. masses --      1.0786                 1.0854                 1.0545
 Frc consts  --      1.4622                 1.4834                 1.4663
 IR Inten    --     15.7006                 2.4117                 2.8112

                     73                     74                     75
                      A                      A                      A
 Frequencies --   1540.5912              1549.1470              1553.2427
 Red. masses --      1.0910                 2.1174                 1.0919
 Frc consts  --      1.5256                 2.9939                 1.5520
 IR Inten    --      7.8805                18.5868                 9.5896

                     76                     77                     78
                      A                      A                      A
 Frequencies --   1646.2920              1667.8954              2881.2046
 Red. masses --      5.5818                 5.5175                 1.0741
 Frc consts  --      8.9133                 9.0433                 5.2535
 IR Inten    --      0.9267                 3.6780                68.4636

                     79                     80                     81
                      A                      A                      A
 Frequencies --   2915.8135              2935.7326              2973.2893
 Red. masses --      1.0718                 1.0625                 1.0586
 Frc consts  --      5.3686                 5.3951                 5.5138
 IR Inten    --     51.2863               155.1040                67.8295

                     82                     83                     84
                      A                      A                      A
 Frequencies --   3053.2872              3070.2692              3074.8866
 Red. masses --      1.0841                 1.0780                 1.0726
 Frc consts  --      5.9548                 5.9870                 5.9751
 IR Inten    --     25.4076                13.1181                25.9804

                     85                     86                     87
                      A                      A                      A
 Frequencies --   3078.9719              3083.0593              3087.3558
 Red. masses --      1.0811                 1.0734                 1.0749
 Frc consts  --      6.0388                 6.0117                 6.0366
 IR Inten    --     47.4845                52.4765                47.3259

                     88                     89                     90
                      A                      A                      A
 Frequencies --   3120.5778              3139.1526              3140.5200
 Red. masses --      1.1040                 1.1028                 1.1036
 Frc consts  --      6.3342                 6.4031                 6.4130
 IR Inten    --     30.8282                20.3069                24.0729

                     91                     92                     93
                      A                      A                      A
 Frequencies --   3178.4053              3187.2953              3197.9922
 Red. masses --      1.0847                 1.0883                 1.0925
 Frc consts  --      6.4559                 6.5142                 6.5830
 IR Inten    --      0.6740                10.6801                35.2570

                     94                     95                     96
                      A                      A                      A
 Frequencies --   3207.2925              3232.0850              3406.4208
 Red. masses --      1.0970                 1.0917                 1.0735
 Frc consts  --      6.6488                 6.7193                 7.3391
 IR Inten    --     27.6970                 5.2008                12.7384

 - Thermochemistry -
 -------------------
 Temperature   298.150 Kelvin.  Pressure   1.00000 Atm.
 Atom     1 has atomic number  6 and mass  12.00000

 Molecular mass:   205.15790 amu.
 Principal axes and moments of inertia in atomic units:
                           1         2         3
     Eigenvalues --  2211.193123639.915085128.07540
           X            0.99989  -0.01303  -0.00653
           Y            0.01299   0.99990  -0.00507
           Z            0.00659   0.00498   0.99997
 This molecule is an asymmetric top.
 Rotational symmetry number  1.
 Warning -- assumption of classical behavior for rotation
           may cause significant error
 Rotational temperatures (Kelvin)      0.03917     0.02380     0.01689
 Rotational constants (GHZ):           0.81618     0.49582     0.35193
 Zero-point vibrational energy     794478.3 (Joules/Mol)
                                  189.88487 (Kcal/Mol)
 Warning -- explicit consideration of  20 degrees of freedom as
           vibrations may cause significant error
 Vibrational temperatures:     42.98   112.19   136.87   138.68   176.37
          (Kelvin)            281.60   315.61   350.01   367.51   400.14
                              440.77   460.13   525.42   566.11   589.39
                              598.15   638.43   714.42   754.79   828.86
                              906.98   916.57  1020.73  1044.28  1071.23
                             1128.60  1148.52  1182.99  1233.19  1275.42
                             1328.46  1343.35  1387.72  1403.88  1424.64
                             1439.69  1473.60  1497.00  1519.76  1537.90
                             1569.98  1587.56  1609.96  1634.15  1662.44
                             1687.29  1706.29  1715.99  1718.02  1746.00
                             1755.04  1767.68  1805.55  1836.62  1886.94
                             1930.87  1944.12  1971.91  1981.42  1990.26
                             2009.44  2032.48  2057.97  2116.71  2133.87
                             2148.59  2158.39  2172.35  2178.75  2182.37
                             2191.29  2210.27  2216.57  2228.88  2234.77
                             2368.65  2399.73  4145.41  4195.21  4223.86
                             4277.90  4393.00  4417.43  4424.08  4429.95
                             4435.83  4442.02  4489.82  4516.54  4518.51
                             4573.02  4585.81  4601.20  4614.58  4650.25
                             4901.08

 Zero-point correction=                           0.302601 (Hartree/Particle)
 Thermal correction to Energy=                    0.316445
 Thermal correction to Enthalpy=                  0.317389
 Thermal correction to Gibbs Free Energy=         0.261948
 Sum of electronic and zero-point Energies=           -632.678998
 Sum of electronic and thermal Energies=              -632.665154
 Sum of electronic and thermal Enthalpies=            -632.664210
 Sum of electronic and thermal Free Energies=         -632.719651

                     E (Thermal)             CV                S
                      KCal/Mol        Cal/Mol-Kelvin    Cal/Mol-Kelvin
 Total                  198.572             54.939            116.687
 Electronic               0.000              0.000              0.000
 Translational            0.889              2.981             41.860
 Rotational               0.889              2.981             32.090
 Vibrational            196.795             48.977             42.737
 Vibration     1          0.594              1.984              5.838
 Vibration     2          0.599              1.964              3.941
 Vibration     3          0.603              1.953              3.552
 Vibration     4          0.603              1.952              3.526
 Vibration     5          0.610              1.930              3.059
 Vibration     6          0.636              1.846              2.173
 Vibration     7          0.647              1.812              1.964
 Vibration     8          0.659              1.774              1.779
 Vibration     9          0.666              1.754              1.693
 Vibration    10          0.679              1.714              1.545
 Vibration    11          0.697              1.662              1.382
 Vibration    12          0.706              1.636              1.311
 Vibration    13          0.738              1.544              1.100
 Vibration    14          0.761              1.484              0.987
 Vibration    15          0.774              1.449              0.928
 Vibration    16          0.779              1.436              0.907
 Vibration    17          0.803              1.375              0.815
 Vibration    18          0.852              1.258              0.667
 Vibration    19          0.880              1.196              0.599
 Vibration    20          0.932              1.083              0.493

 Optimization completed.
    -- Stationary point found.
 Normal termination of Gaussian 16 at Thu Dec 10 16:00:39 2020.

 ----------------------------------------------------------------------
 # B3LYP/6-311++G(d,p) empiricaldispersion=gd3bj scf=xqc pop=npa geom=c
 heck
 ----------------------------------------------------------------------

 --------------------------------------
 CID_66827121_JID_5367_Energie_neutraal
 --------------------------------------
 Structure from the checkpoint file:  "JID_5367.chk"
 Charge =  0 Multiplicity = 1

 SCF Done:  E(RB3LYP) =  -633.152570907     A.U. after   14 cycles
 Normal termination of Gaussian 16 at Thu Dec 10 16:06:51 2020.

 ----------------------------------------------------------------------
 # B3LYP/6-311++G(d,p) empiricaldispersion=gd3bj scf=xqc pop=npa geom=c
 heck
 ----------------------------------------------------------------------

 ------------------------------------
 CID_66827121_JID_5367_Energie_kation
 ------------------------------------
 Structure from the checkpoint file:  "JID_5367.chk"
 Charge =  1 Multiplicity = 2

 SCF Done:  E(UB3LYP) =  -632.873298315     A.U. after   27 cycles
 Normal termination of Gaussian 16 at Thu Dec 10 16:23:12 2020.
 Gaussian 16:  ES64L-G16RevA.03 25-Dec-2016

 ----------------------------------------------------------------------
 # B3LYP/6-311++G(d,p) empiricaldispersion=gd3bj scf=xqc pop=npa geom=c
 heck
 ----------------------------------------------------------------------

 -----------------------------------
 CID_66827121_JID_5367_Energie_anion
 -----------------------------------
 Structure from the checkpoint file:  "JID_5367.chk"
 Charge = -1 Multiplicity = 2

                         Standard orientation:
 ---------------------------------------------------------------------
 Center     Atomic      Atomic             Coordinates (Angstroms)
 Number     Number       Type             X           Y           Z
 ---------------------------------------------------------------------
      1          6           0        1.713265    3.184498   -0.449802
      2          7           0        2.077880    1.865540    0.050200
      3          7           0        0.912149    1.130800    0.424012
      4          6           0        1.215389    0.212625    1.524476
      5          6           0        2.057481   -0.988229    1.088823
      6          7           0        1.388850   -1.710696    0.006124
      7          6           0        1.108294   -0.826249   -1.119553
      8          6           0        0.276861    0.396423   -0.698462
      9          6           0       -1.177210    0.109171   -0.349020
     10          6           0       -1.706095   -1.179337   -0.229602
     11          6           0       -3.057506   -1.365532    0.072529
     12          6           0       -3.894829   -0.268272    0.264596
     13          6           0       -3.371736    1.023017    0.158599
     14          6           0       -2.025002    1.205922   -0.142825
     15          6           0        2.149226   -2.874426   -0.413437
     16          1           0        1.247845    3.751125    0.361012
     17          1           0        1.012964    3.173888   -1.303515
     18          1           0        2.627250    3.700684   -0.763698
     19          1           0        2.616663    1.363437   -0.659493
     20          1           0        0.260336   -0.145652    1.923445
     21          1           0        1.733200    0.782913    2.298596
     22          1           0        2.193685   -1.674959    1.932578
     23          1           0        3.066902   -0.645505    0.781138
     24          1           0        2.050823   -0.472586   -1.591259
     25          1           0        0.574016   -1.391155   -1.891789
     26          1           0        0.270878    1.091120   -1.547053
     27          1           0       -1.053287   -2.037380   -0.337381
     28          1           0       -3.451775   -2.374126    0.164264
     29          1           0       -4.945310   -0.415227    0.500335
     30          1           0       -4.014211    1.886073    0.311518
     31          1           0       -1.610706    2.208105   -0.208939
     32          1           0        1.594589   -3.421140   -1.184094
     33          1           0        3.144168   -2.613887   -0.826586
     34          1           0        2.300984   -3.542902    0.440644
 ---------------------------------------------------------------------

 SCF Done:  E(UB3LYP) =  -633.138220814     A.U. after   33 cycles
 SCF Done:  E(UB3LYP) =  -633.138220814     a.u. after    1 cycles

 The electronic state is 2-A.
 Alpha  occ. eigenvalues --  -14.23037 -14.22535 -14.20958 -10.10745 -10.09541
 Alpha  occ. eigenvalues --  -10.09358 -10.09085 -10.08863 -10.08698 -10.08400
 Alpha  occ. eigenvalues --  -10.07999 -10.07947 -10.07857 -10.07547 -10.07350
 Alpha  occ. eigenvalues --   -0.88773  -0.83040  -0.76451  -0.72946  -0.68443
 Alpha  occ. eigenvalues --   -0.65060  -0.63899  -0.61611  -0.56894  -0.55306
 Alpha  occ. eigenvalues --   -0.52857  -0.50787  -0.49839  -0.45622  -0.43097
 Alpha  occ. eigenvalues --   -0.40953  -0.38471  -0.37545  -0.37033  -0.36667
 Alpha  occ. eigenvalues --   -0.36514  -0.34767  -0.34462  -0.32417  -0.31984
 Alpha  occ. eigenvalues --   -0.30455  -0.30342  -0.29573  -0.28396  -0.27777
 Alpha  occ. eigenvalues --   -0.27062  -0.26865  -0.25580  -0.24742  -0.24436
 Alpha  occ. eigenvalues --   -0.24079  -0.16254  -0.15993  -0.13957  -0.13434
 Alpha  occ. eigenvalues --   -0.11704   0.04329
 Alpha virt. eigenvalues --    0.06173   0.06413   0.07425   0.07933   0.08060
 Alpha virt. eigenvalues --    0.08395   0.08459   0.09083   0.09829   0.10180
 Alpha virt. eigenvalues --    0.10329   0.11240   0.12131   0.12146   0.12617

  Beta  occ. eigenvalues --  -14.23037 -14.22515 -14.20945 -10.10734 -10.09511
  Beta  occ. eigenvalues --  -10.09346 -10.09080 -10.08828 -10.08665 -10.08393
  Beta  occ. eigenvalues --  -10.07990 -10.07938 -10.07849 -10.07543 -10.07345
  Beta  occ. eigenvalues --   -0.88756  -0.83015  -0.76431  -0.72919  -0.68417
  Beta  occ. eigenvalues --   -0.65042  -0.63871  -0.61566  -0.56833  -0.55268
  Beta  occ. eigenvalues --   -0.52797  -0.50759  -0.49806  -0.45572  -0.43061
  Beta  occ. eigenvalues --   -0.40915  -0.38419  -0.37523  -0.36996  -0.36623
  Beta  occ. eigenvalues --   -0.36470  -0.34743  -0.34429  -0.32397  -0.31953
  Beta  occ. eigenvalues --   -0.30421  -0.30308  -0.29536  -0.28359  -0.27744
  Beta  occ. eigenvalues --   -0.27024  -0.26841  -0.25558  -0.24718  -0.24410
  Beta  occ. eigenvalues --   -0.24048  -0.16223  -0.15982  -0.13917  -0.13398
  Beta  occ. eigenvalues --   -0.11656
  Beta virt. eigenvalues --    0.06311   0.06965   0.07142   0.07658   0.08234
  Beta virt. eigenvalues --    0.08439   0.08604   0.08907   0.09543   0.10282
  Beta virt. eigenvalues --    0.10552   0.10851   0.11351   0.12374   0.12495

 Mulliken charges and spin densities:
               1          2
     1  C    0.658618  -0.984867
     2  N   -0.461006   0.091557
     3  N    0.448788  -0.087860
     4  C   -0.371510  -0.131310
     5  C   -0.033673  -0.190727
     6  N   -0.171472   0.261575
     7  C    1.121833  -2.042316
     8  C    0.212829  -0.405698
     9  C    0.317043   0.804585
    10  C   -1.688188   1.256026
    11  C    0.030958  -0.366765
    12  C    0.711134  -1.079642
    13  C   -0.396211  -0.057821
    14  C    0.044448  -0.161761
    15  C    0.749831  -1.029899
    16  H    0.044654   0.110199
    17  H   -0.240131   0.364766
    18  H   -0.477140   0.619549
    19  H    0.116348   0.090492
    20  H    0.219923  -0.086371
    21  H    0.025532   0.154324
    22  H   -0.047614   0.210676
    23  H    0.086259   0.041698
    24  H   -0.416256   0.544751
    25  H    0.018529   0.166405
    26  H   -0.300066   0.495863
    27  H    0.205559  -0.009824
    28  H   -0.371075   0.542484
    29  H   -0.110068   0.253472
    30  H   -0.324947   0.497418
    31  H    0.169515  -0.032544
    32  H   -0.326102   0.461219
    33  H   -0.222468   0.346374
    34  H   -0.223874   0.353973
 Sum of Mulliken charges =  -1.00000   1.00000

 Dipole moment (field-independent basis, Debye):
    X=             -2.0246    Y=              0.3645    Z=              3.2244  Tot=              3.8247
 Quadrupole moment (field-independent basis, Debye-Ang):
   XX=           -160.2674   YY=           -150.0211   ZZ=           -128.6752
   XY=             -2.3240   XZ=              7.5674   YZ=              1.2197

 Summary of Natural Population Analysis:

                                       Natural Population
                Natural  -----------------------------------------------
    Atom  No    Charge         Core      Valence    Rydberg      Total
 -----------------------------------------------------------------------
      C    1   -0.17691      0.99966     2.16814    0.00910     3.17691
      N    2   -0.24824      0.99975     2.73478    0.01371     3.74824
      N    3   -0.18942      0.99971     2.67534    0.01437     3.68942
      C    4   -0.08929      0.99960     2.07894    0.01075     3.08929
      C    5   -0.09413      0.99961     2.08394    0.01058     3.09413
      N    6   -0.28514      0.99971     2.77284    0.01259     3.78514
      C    7   -0.09727      0.99960     2.08405    0.01362     3.09727
      C    8   -0.02441      0.99953     2.00922    0.01567     3.02441
      C    9   -0.01527      0.99948     2.00449    0.01129     3.01527
      C   10   -0.10078      0.99950     2.09162    0.00966     3.10078
      C   11   -0.10208      0.99956     2.09238    0.01013     3.10208
      C   12   -0.10581      0.99956     2.09685    0.00940     3.10581
      C   13   -0.10413      0.99956     2.09464    0.00993     3.10413
      C   14   -0.09246      0.99951     2.08331    0.00965     3.09246
      C   15   -0.17436      0.99965     2.16607    0.00865     3.17436
      H   16    0.09316      0.00000     0.40541    0.00143     0.40684
      H   17    0.08032      0.00000     0.41790    0.00177     0.41968
      H   18    0.09470      0.00000     0.40410    0.00120     0.40530
      H   19    0.16568      0.00000     0.32997    0.00435     0.33432
      H   20    0.09925      0.00000     0.39948    0.00128     0.40075
      H   21    0.10204      0.00000     0.39699    0.00097     0.39796
      H   22    0.09703      0.00000     0.40176    0.00121     0.40297
      H   23    0.08201      0.00000     0.41645    0.00153     0.41799
      H   24    0.08610      0.00000     0.41145    0.00245     0.41390
      H   25    0.10420      0.00000     0.39408    0.00172     0.39580
      H   26    0.10775      0.00000     0.39005    0.00220     0.39225
      H   27    0.11119      0.00000     0.38668    0.00214     0.38881
      H   28    0.09970      0.00000     0.39933    0.00097     0.40030
      H   29    0.09903      0.00000     0.40006    0.00091     0.40097
      H   30    0.09938      0.00000     0.39973    0.00089     0.40062
      H   31    0.10405      0.00000     0.39426    0.00169     0.39595
      H   32    0.09673      0.00000     0.40184    0.00143     0.40327
      H   33    0.08237      0.00000     0.41593    0.00170     0.41763
      H   34    0.09500      0.00000     0.40369    0.00131     0.40500
 =======================================================================
   * Total *    0.00000     14.99399    40.80577    0.20024    56.00000

 Normal termination of Gaussian 16 at Thu Dec 10 16:44:14 2020.
