 Gaussian 16, Revision A.03,

 -----------------------------------------------------------
 # opt freq B3LYP/6-31G(d) empiricaldispersion=gd3bj scf=xqc
 -----------------------------------------------------------

 ------------------------------
 CID_79412253_JID_6526_neutraal
 ------------------------------
 Symbolic Z-matrix:
 Charge =  0 Multiplicity = 1

 SCF Done:  E(RB3LYP) =  -1030.03888186     A.U. after   15 cycles
 SCF Done:  E(RB3LYP) =  -1030.04599009     A.U. after   13 cycles
 SCF Done:  E(RB3LYP) =  -1030.04707093     A.U. after   12 cycles
 SCF Done:  E(RB3LYP) =  -1030.04751646     A.U. after   12 cycles
 SCF Done:  E(RB3LYP) =  -1030.04781551     A.U. after   12 cycles
 SCF Done:  E(RB3LYP) =  -1030.04815493     A.U. after   12 cycles
 SCF Done:  E(RB3LYP) =  -1030.04793403     A.U. after   14 cycles
 SCF Done:  E(RB3LYP) =  -1030.04940739     A.U. after   12 cycles
 SCF Done:  E(RB3LYP) =  -1030.04888576     A.U. after   12 cycles
 SCF Done:  E(RB3LYP) =  -1030.04961860     A.U. after   12 cycles
 SCF Done:  E(RB3LYP) =  -1030.05002467     A.U. after   10 cycles
 SCF Done:  E(RB3LYP) =  -1030.05003054     A.U. after   10 cycles
 SCF Done:  E(RB3LYP) =  -1030.05003223     A.U. after    9 cycles
 SCF Done:  E(RB3LYP) =  -1030.05003266     A.U. after    8 cycles
 SCF Done:  E(RB3LYP) =  -1030.05003270     A.U. after    7 cycles
 Optimization completed.
    -- Stationary point found.
 Normal termination of Gaussian 16 at Thu Dec 10 23:28:35 2020.

 --------------------------------------------------------------------
 #N Geom=AllCheck Guess=TCheck SCRF=Check GenChk RB3LYP/6-31G(d) Freq
 --------------------------------------------------------------------

 Structure from the checkpoint file:  "JID_6526.chk"
 ------------------------------
 CID_79412253_JID_6526_neutraal
 ------------------------------
 Charge =  0 Multiplicity = 1

 SCF Done:  E(RB3LYP) =  -1030.05003270     A.U. after    1 cycles

  Exact polarizability: 197.042   4.290 188.632  20.367  -0.691 104.175
 Approx polarizability: 281.158  11.075 316.719  47.198  -2.819 161.807

                      1                      2                      3
                      A                      A                      A
 Frequencies --     18.0204                40.2882                52.1854
 Red. masses --      3.7860                 3.7811                 3.9208
 Frc consts  --      0.0007                 0.0036                 0.0063
 IR Inten    --      0.2021                 0.9872                 0.2171

                      4                      5                      6
                      A                      A                      A
 Frequencies --     74.1470               100.2132               140.6464
 Red. masses --      3.0354                 3.0066                 3.8090
 Frc consts  --      0.0098                 0.0178                 0.0444
 IR Inten    --      0.9339                 0.3428                 0.5750

                      7                      8                      9
                      A                      A                      A
 Frequencies --    150.0592               177.9813               206.8844
 Red. masses --      2.4391                 4.2802                 1.2555
 Frc consts  --      0.0324                 0.0799                 0.0317
 IR Inten    --      0.5609                 1.4764                 0.1206

                     10                     11                     12
                      A                      A                      A
 Frequencies --    221.8973               253.5766               266.0291
 Red. masses --      3.6874                 1.8226                 1.9378
 Frc consts  --      0.1070                 0.0691                 0.0808
 IR Inten    --      0.7194                 0.5015                 1.4279

                     13                     14                     15
                      A                      A                      A
 Frequencies --    302.5479               314.8205               337.2861
 Red. masses --      3.1214                 2.2597                 2.6468
 Frc consts  --      0.1683                 0.1320                 0.1774
 IR Inten    --      0.7766                 1.2065                 0.4226

                     16                     17                     18
                      A                      A                      A
 Frequencies --    360.1127               428.1916               451.2943
 Red. masses --      2.7360                 5.2106                 2.7532
 Frc consts  --      0.2090                 0.5629                 0.3304
 IR Inten    --      0.5971                 1.0920                 0.5864

                     19                     20                     21
                      A                      A                      A
 Frequencies --    460.5103               491.5685               511.6320
 Red. masses --      3.6857                 3.5659                 3.1359
 Frc consts  --      0.4605                 0.5077                 0.4837
 IR Inten    --     14.5041                 5.9268                11.2915

                     22                     23                     24
                      A                      A                      A
 Frequencies --    557.0215               566.6862               630.4020
 Red. masses --      1.5996                 4.1326                 3.4494
 Frc consts  --      0.2924                 0.7819                 0.8076
 IR Inten    --     50.9264                 0.7158                 5.2629

                     25                     26                     27
                      A                      A                      A
 Frequencies --    637.6087               684.3837               698.1270
 Red. masses --      4.7964                 3.6742                 1.8865
 Frc consts  --      1.1489                 1.0139                 0.5417
 IR Inten    --      5.5229                 5.1122                64.1478

                     28                     29                     30
                      A                      A                      A
 Frequencies --    724.5637               760.3906               789.4519
 Red. masses --      2.6758                 1.5023                 5.1308
 Frc consts  --      0.8277                 0.5118                 1.8840
 IR Inten    --      5.6562                15.0393                19.8978

                     31                     32                     33
                      A                      A                      A
 Frequencies --    805.1251               812.7432               829.8182
 Red. masses --      3.4956                 1.3056                 3.1911
 Frc consts  --      1.3351                 0.5081                 1.2947
 IR Inten    --      5.3172                11.4412                 1.7754

                     34                     35                     36
                      A                      A                      A
 Frequencies --    848.1462               883.7848               895.1609
 Red. masses --      2.9330                 1.2809                 2.2093
 Frc consts  --      1.2431                 0.5895                 1.0431
 IR Inten    --      1.6097                 0.0418                13.3683

                     37                     38                     39
                      A                      A                      A
 Frequencies --    907.6715               932.7854               969.4519
 Red. masses --      2.2448                 2.8931                 2.3234
 Frc consts  --      1.0896                 1.4831                 1.2865
 IR Inten    --      8.6113                30.5530                 4.8487

                     40                     41                     42
                      A                      A                      A
 Frequencies --    982.0283              1011.1319              1086.3231
 Red. masses --      1.6757                 2.9913                 1.9700
 Frc consts  --      0.9521                 1.8019                 1.3697
 IR Inten    --      8.2960                 6.7176                 0.8501

                     43                     44                     45
                      A                      A                      A
 Frequencies --   1098.4496              1115.4292              1124.1852
 Red. masses --      1.9909                 1.6121                 1.6228
 Frc consts  --      1.4153                 1.1818                 1.2083
 IR Inten    --      4.3387                 1.6489                19.0897

                     46                     47                     48
                      A                      A                      A
 Frequencies --   1136.4222              1152.1424              1197.6631
 Red. masses --      1.8210                 1.3539                 2.3335
 Frc consts  --      1.3856                 1.0589                 1.9721
 IR Inten    --      7.0041                10.9584                29.2670

                     49                     50                     51
                      A                      A                      A
 Frequencies --   1216.5943              1237.1568              1273.4455
 Red. masses --      1.7241                 1.8980                 1.3507
 Frc consts  --      1.5035                 1.7116                 1.2905
 IR Inten    --      1.4347                20.4399                 2.7742

                     52                     53                     54
                      A                      A                      A
 Frequencies --   1293.5755              1315.3107              1331.4562
 Red. masses --      2.9465                 3.9407                 1.2114
 Frc consts  --      2.9049                 4.0168                 1.2653
 IR Inten    --     12.1086                19.6483                 8.9103

                     55                     56                     57
                      A                      A                      A
 Frequencies --   1343.5499              1355.9257              1388.1629
 Red. masses --      1.5760                 1.5935                 1.7861
 Frc consts  --      1.6761                 1.7262                 2.0279
 IR Inten    --     21.2206                 7.4178                64.5553

                     58                     59                     60
                      A                      A                      A
 Frequencies --   1392.9518              1399.9638              1406.2265
 Red. masses --      1.4685                 1.5819                 1.5580
 Frc consts  --      1.6788                 1.8267                 1.8152
 IR Inten    --     29.8595                13.7447                30.2102

                     61                     62                     63
                      A                      A                      A
 Frequencies --   1429.6382              1440.0288              1440.8930
 Red. masses --      1.6625                 1.3369                 1.2674
 Frc consts  --      2.0020                 1.6334                 1.5503
 IR Inten    --      6.8364                36.3224                11.1213

                     64                     65                     66
                      A                      A                      A
 Frequencies --   1456.6650              1505.2575              1516.8169
 Red. masses --      3.5341                 1.0986                 1.1223
 Frc consts  --      4.4182                 1.4666                 1.5214
 IR Inten    --     75.4708                 2.2427                26.7082

                     67                     68                     69
                      A                      A                      A
 Frequencies --   1520.0329              1521.8381              1526.2605
 Red. masses --      1.1026                 1.0640                 1.0613
 Frc consts  --      1.5009                 1.4519                 1.4566
 IR Inten    --      9.6622                 2.2250                 1.1644

                     70                     71                     72
                      A                      A                      A
 Frequencies --   1532.9357              1537.2423              1544.1375
 Red. masses --      1.0653                 1.2531                 3.6976
 Frc consts  --      1.4750                 1.7447                 5.1944
 IR Inten    --      5.2922                56.3816                73.0708

                     73                     74                     75
                      A                      A                      A
 Frequencies --   1549.2955              1566.8742              1605.2983
 Red. masses --      1.0570                 3.5278                 4.1344
 Frc consts  --      1.4949                 5.1030                 6.2774
 IR Inten    --      2.2610                65.0800               509.3273

                     76                     77                     78
                      A                      A                      A
 Frequencies --   1611.8498              3035.1282              3038.0844
 Red. masses --      5.0548                 1.0631                 1.0631
 Frc consts  --      7.7376                 5.7699                 5.7813
 IR Inten    --    210.8174                28.5584                28.2156

                     79                     80                     81
                      A                      A                      A
 Frequencies --   3041.8089              3056.5494              3069.3721
 Red. masses --      1.0398                 1.0360                 1.0947
 Frc consts  --      5.6683                 5.7025                 6.0765
 IR Inten    --     30.7300                22.3661                42.7087

                     82                     83                     84
                      A                      A                      A
 Frequencies --   3072.8715              3076.9818              3086.4818
 Red. masses --      1.0660                 1.0612                 1.1010
 Frc consts  --      5.9307                 5.9196                 6.1799
 IR Inten    --     31.6849                32.0617                30.2282

                     85                     86                     87
                      A                      A                      A
 Frequencies --   3103.5986              3108.2760              3126.4867
 Red. masses --      1.1010                 1.1043                 1.1016
 Frc consts  --      6.2483                 6.2859                 6.3444
 IR Inten    --     49.1613                 9.1554                43.3819

                     88                     89                     90
                      A                      A                      A
 Frequencies --   3126.7072              3133.2122              3141.5633
 Red. masses --      1.1019                 1.1001                 1.1034
 Frc consts  --      6.3468                 6.3629                 6.4160
 IR Inten    --     30.0925                19.2063                37.2947

                     91                     92                     93
                      A                      A                      A
 Frequencies --   3254.9557              3273.6704              3595.0089
 Red. masses --      1.0867                 1.0996                 1.0756
 Frc consts  --      6.7831                 6.9433                 8.1905
 IR Inten    --      4.2776                 5.0642                37.1236

 - Thermochemistry -
 -------------------
 Temperature   298.150 Kelvin.  Pressure   1.00000 Atm.
 Atom     1 has atomic number  6 and mass  12.00000

 Molecular mass:   235.11432 amu.
 Principal axes and moments of inertia in atomic units:
                           1         2         3
     Eigenvalues --  2975.429615065.518197244.63039
           X            0.99934  -0.03571  -0.00654
           Y            0.03571   0.99936  -0.00045
           Z            0.00656   0.00022   0.99998
 This molecule is an asymmetric top.
 Rotational symmetry number  1.
 Warning -- assumption of classical behavior for rotation
           may cause significant error
 Rotational temperatures (Kelvin)      0.02911     0.01710     0.01196
 Rotational constants (GHZ):           0.60655     0.35628     0.24911
 Zero-point vibrational energy     734490.0 (Joules/Mol)
                                  175.54731 (Kcal/Mol)
 Warning -- explicit consideration of  23 degrees of freedom as
           vibrations may cause significant error
 Vibrational temperatures:     25.93    57.97    75.08   106.68   144.18
          (Kelvin)            202.36   215.90   256.08   297.66   319.26
                              364.84   382.76   435.30   452.96   485.28
                              518.12   616.07   649.31   662.57   707.26
                              736.12   801.43   815.34   907.01   917.38
                              984.68  1004.45  1042.49  1094.03  1135.85
                             1158.40  1169.36  1193.92  1220.29  1271.57
                             1287.94  1305.94  1342.07  1394.83  1412.92
                             1454.79  1562.98  1580.42  1604.85  1617.45
                             1635.06  1657.68  1723.17  1750.41  1779.99
                             1832.20  1861.17  1892.44  1915.67  1933.07
                             1950.87  1997.26  2004.15  2014.24  2023.25
                             2056.93  2071.88  2073.12  2095.82  2165.73
                             2182.36  2186.99  2189.59  2195.95  2205.55
                             2211.75  2221.67  2229.09  2254.38  2309.67
                             2319.09  4366.87  4371.13  4376.48  4397.69
                             4416.14  4421.18  4427.09  4440.76  4465.39
                             4472.12  4498.32  4498.63  4507.99  4520.01
                             4683.16  4710.08  5172.42

 Zero-point correction=                           0.279752 (Hartree/Particle)
 Thermal correction to Energy=                    0.295534
 Thermal correction to Enthalpy=                  0.296478
 Thermal correction to Gibbs Free Energy=         0.235056
 Sum of electronic and zero-point Energies=          -1029.770280
 Sum of electronic and thermal Energies=             -1029.754499
 Sum of electronic and thermal Enthalpies=           -1029.753554
 Sum of electronic and thermal Free Energies=        -1029.814977

                     E (Thermal)             CV                S
                      KCal/Mol        Cal/Mol-Kelvin    Cal/Mol-Kelvin
 Total                  185.450             59.891            129.275
 Electronic               0.000              0.000              0.000
 Translational            0.889              2.981             42.266
 Rotational               0.889              2.981             33.057
 Vibrational            183.673             53.929             53.952
 Vibration     1          0.593              1.986              6.841
 Vibration     2          0.594              1.981              5.245
 Vibration     3          0.596              1.977              4.733
 Vibration     4          0.599              1.966              4.040
 Vibration     5          0.604              1.949              3.450
 Vibration     6          0.615              1.913              2.795
 Vibration     7          0.618              1.903              2.671
 Vibration     8          0.628              1.869              2.349
 Vibration     9          0.641              1.830              2.071
 Vibration    10          0.648              1.808              1.944
 Vibration    11          0.665              1.757              1.706
 Vibration    12          0.672              1.735              1.622
 Vibration    13          0.694              1.669              1.403
 Vibration    14          0.702              1.645              1.337
 Vibration    15          0.718              1.601              1.225
 Vibration    16          0.735              1.554              1.122
 Vibration    17          0.790              1.409              0.865
 Vibration    18          0.810              1.358              0.792
 Vibration    19          0.818              1.338              0.765
 Vibration    20          0.847              1.269              0.680
 Vibration    21          0.867              1.224              0.630
 Vibration    22          0.913              1.124              0.530
 Vibration    23          0.923              1.103              0.511

                           ! Non-Optimized Parameters !
 Normal termination of Gaussian 16 at Thu Dec 10 23:39:31 2020.

 ----------------------------------------------------------------------
 # B3LYP/6-311++G(d,p) empiricaldispersion=gd3bj scf=xqc pop=npa geom=c
 heck
 ----------------------------------------------------------------------

 --------------------------------------
 CID_79412253_JID_6526_Energie_neutraal
 --------------------------------------
 Structure from the checkpoint file:  "JID_6526.chk"
 Charge =  0 Multiplicity = 1

 SCF Done:  E(RB3LYP) =  -1030.24370652     A.U. after   16 cycles
 Normal termination of Gaussian 16 at Thu Dec 10 23:44:35 2020.

 ----------------------------------------------------------------------
 # B3LYP/6-311++G(d,p) empiricaldispersion=gd3bj scf=xqc pop=npa geom=c
 heck
 ----------------------------------------------------------------------

 ------------------------------------
 CID_79412253_JID_6526_Energie_kation
 ------------------------------------
 Structure from the checkpoint file:  "JID_6526.chk"
 Charge =  1 Multiplicity = 2

 SCF Done:  E(UB3LYP) =  -1029.96423479     A.U. after   24 cycles
 Normal termination of Gaussian 16 at Thu Dec 10 23:54:54 2020.
 Gaussian 16:  ES64L-G16RevA.03 25-Dec-2016

 ----------------------------------------------------------------------
 # B3LYP/6-311++G(d,p) empiricaldispersion=gd3bj scf=xqc pop=npa geom=c
 heck
 ----------------------------------------------------------------------

 -----------------------------------
 CID_79412253_JID_6526_Energie_anion
 -----------------------------------
 Structure from the checkpoint file:  "JID_6526.chk"
 Charge = -1 Multiplicity = 2

                         Standard orientation:
 ---------------------------------------------------------------------
 Center     Atomic      Atomic             Coordinates (Angstroms)
 Number     Number       Type             X           Y           Z
 ---------------------------------------------------------------------
      1          6           0        3.883086    1.589619   -0.928711
      2          6           0        3.614048    0.092677   -1.108401
      3          6           0        3.684900   -0.718157    0.193277
      4          6           0        2.713659   -0.245699    1.295578
      5          6           0        1.284841   -0.250114    0.820005
      6          7           0        0.720684    0.938185    0.562696
      7          6           0       -0.536344    0.984057    0.080888
      8          6           0       -1.261570   -0.219863   -0.143115
      9          6           0       -2.582229   -0.528896   -0.633658
     10          6           0       -2.832342   -1.864165   -0.670376
     11         16           0       -1.488087   -2.838661   -0.116694
     12          6           0       -0.536992   -1.390617    0.181791
     13          7           0        0.708099   -1.447612    0.652208
     14          7           0       -0.983231    2.246314   -0.179315
     15          6           0       -2.350372    2.677915   -0.420507
     16          6           0       -3.269836    2.555048    0.799052
     17          1           0        3.092304    2.060921   -0.336675
     18          1           0        3.924053    2.100146   -1.897774
     19          1           0        4.840600    1.762107   -0.420535
     20          1           0        2.625161   -0.043259   -1.565677
     21          1           0        4.338526   -0.329669   -1.817218
     22          1           0        3.468175   -1.770362   -0.025674
     23          1           0        4.706445   -0.677676    0.595385
     24          1           0        2.801377   -0.921789    2.153287
     25          1           0        2.967652    0.763654    1.628802
     26          1           0       -3.317309    0.200184   -0.944001
     27          1           0       -3.742973   -2.348610   -0.995493
     28          1           0       -0.323369    2.944638    0.139717
     29          1           0       -2.291887    3.723036   -0.739994
     30          1           0       -2.756425    2.126572   -1.274144
     31          1           0       -2.888679    3.158458    1.629603
     32          1           0       -4.279727    2.903903    0.554713
     33          1           0       -3.338488    1.517285    1.138733
 ---------------------------------------------------------------------

 SCF Done:  E(UB3LYP) =  -1030.23532396     A.U. after   33 cycles
 SCF Done:  E(UB3LYP) =  -1030.23532396     a.u. after    1 cycles

 The electronic state is 2-A.
 Alpha  occ. eigenvalues --  -88.76130 -14.22350 -14.18697 -14.18682 -10.13918
 Alpha  occ. eigenvalues --  -10.12590 -10.11541 -10.10226 -10.08188 -10.07348
 Alpha  occ. eigenvalues --  -10.07129 -10.06997 -10.06810 -10.06465 -10.06347
 Alpha  occ. eigenvalues --  -10.05375  -7.84791  -5.81082  -5.80745  -5.80352
 Alpha  occ. eigenvalues --   -0.87952  -0.83315  -0.77236  -0.74400  -0.70524
 Alpha  occ. eigenvalues --   -0.66163  -0.64184  -0.63505  -0.60640  -0.56230
 Alpha  occ. eigenvalues --   -0.54492  -0.50747  -0.50004  -0.46550  -0.45809
 Alpha  occ. eigenvalues --   -0.43893  -0.39939  -0.37557  -0.36613  -0.36086
 Alpha  occ. eigenvalues --   -0.34803  -0.34169  -0.33263  -0.32194  -0.31184
 Alpha  occ. eigenvalues --   -0.30484  -0.29522  -0.28853  -0.28704  -0.27217
 Alpha  occ. eigenvalues --   -0.26470  -0.25350  -0.24715  -0.24288  -0.23815
 Alpha  occ. eigenvalues --   -0.23361  -0.23095  -0.21696  -0.18649  -0.15459
 Alpha  occ. eigenvalues --   -0.14922  -0.14296  -0.10216   0.04535
 Alpha virt. eigenvalues --    0.06261   0.07176   0.07561   0.08314   0.08781
 Alpha virt. eigenvalues --    0.08954   0.09295   0.09328   0.10081   0.11171
 Alpha virt. eigenvalues --    0.11517   0.11756   0.12126   0.12295   0.12766

  Beta  occ. eigenvalues --  -88.76117 -14.22329 -14.18756 -14.18648 -10.13772
  Beta  occ. eigenvalues --  -10.12586 -10.11350 -10.10202 -10.07973 -10.07319
  Beta  occ. eigenvalues --  -10.07129 -10.06974 -10.06788 -10.06465 -10.06363
  Beta  occ. eigenvalues --  -10.05319  -7.84779  -5.81078  -5.80741  -5.80304
  Beta  occ. eigenvalues --   -0.87812  -0.83200  -0.77135  -0.74271  -0.70473
  Beta  occ. eigenvalues --   -0.66015  -0.64088  -0.63432  -0.60517  -0.56121
  Beta  occ. eigenvalues --   -0.54389  -0.50647  -0.49857  -0.46455  -0.45657
  Beta  occ. eigenvalues --   -0.43781  -0.39855  -0.37441  -0.36560  -0.36025
  Beta  occ. eigenvalues --   -0.34743  -0.34081  -0.33016  -0.32070  -0.31075
  Beta  occ. eigenvalues --   -0.30366  -0.29473  -0.28764  -0.28677  -0.27139
  Beta  occ. eigenvalues --   -0.26370  -0.25043  -0.24635  -0.24185  -0.23661
  Beta  occ. eigenvalues --   -0.23333  -0.23066  -0.21309  -0.18611  -0.15096
  Beta  occ. eigenvalues --   -0.14635  -0.14279  -0.09686
  Beta virt. eigenvalues --    0.06532   0.07357   0.07932   0.08270   0.08638
  Beta virt. eigenvalues --    0.08845   0.09201   0.09685   0.09848   0.10229
  Beta virt. eigenvalues --    0.11285   0.11487   0.11845   0.12129   0.12548

 Mulliken charges and spin densities:
               1          2
     1  C   -0.651838  -0.017055
     2  C   -0.045339   0.005645
     3  C   -0.177529  -0.115788
     4  C   -0.242125   0.067180
     5  C   -0.260250  -0.106724
     6  N    0.039022  -0.034028
     7  C    0.179162  -0.650024
     8  C    0.699810   0.194762
     9  C   -1.228677   0.417917
    10  C    0.880450  -0.959226
    11  S   -0.417788  -0.036614
    12  C   -0.118951   0.472874
    13  N    0.165571   0.014484
    14  N   -0.172368   0.022770
    15  C   -0.450611   0.266429
    16  C    1.298745  -1.732074
    17  H    0.150818   0.016387
    18  H    0.110130   0.005013
    19  H    0.108481   0.003308
    20  H    0.149219  -0.000300
    21  H    0.141682   0.007447
    22  H    0.151195  -0.004157
    23  H    0.038699   0.088373
    24  H    0.140702   0.041206
    25  H    0.145355  -0.002578
    26  H   -0.106183   0.212915
    27  H    0.011337   0.209306
    28  H    0.273063   0.034627
    29  H   -1.112026   1.305909
    30  H    0.045590   0.097768
    31  H   -0.142461   0.287239
    32  H   -0.546595   0.686101
    33  H   -0.056291   0.200910
 Sum of Mulliken charges =  -1.00000   1.00000

 Dipole moment (field-independent basis, Debye):
    X=              6.6289    Y=             -5.1711    Z=             -0.5773  Tot=              8.4271
 Quadrupole moment (field-independent basis, Debye-Ang):
   XX=           -166.6137   YY=           -167.7043   ZZ=           -125.5071
   XY=             26.3020   XZ=             -1.2569   YZ=              0.6276

 Summary of Natural Population Analysis:

                                       Natural Population
                Natural  -----------------------------------------------
    Atom  No    Charge         Core      Valence    Rydberg      Total
 -----------------------------------------------------------------------
      C    1   -0.29055      0.99967     2.28666    0.00422     3.29055
      C    2   -0.19325      0.99964     2.18588    0.00773     3.19325
      C    3   -0.18271      0.99963     2.17427    0.00881     3.18271
      C    4   -0.20828      0.99960     2.19961    0.00908     3.20828
      C    5    0.25148      0.99961     1.72858    0.02034     2.74852
      N    6   -0.29930      0.99965     2.79016    0.00950     3.79930
      C    7    0.25102      0.99950     1.73480    0.01468     2.74898
      C    8   -0.10176      0.99940     2.09397    0.00838     3.10176
      C    9   -0.12369      0.99951     2.11387    0.01031     3.12369
      C   10   -0.14899      0.99953     2.13750    0.01196     3.14899
      S   11    0.18126      4.99944     2.79857    0.02072     7.81874
      C   12    0.04544      0.99946     1.93865    0.01646     2.95456
      N   13   -0.28234      0.99962     2.77137    0.01134     3.78234
      N   14   -0.29761      0.99966     2.78739    0.01056     3.79761
      C   15   -0.08888      0.99963     2.07769    0.01156     3.08888
      C   16   -0.29293      0.99966     2.28792    0.00535     3.29293
      H   17    0.10842      0.00000     0.39048    0.00111     0.39158
      H   18    0.09488      0.00000     0.40436    0.00076     0.40512
      H   19    0.08933      0.00000     0.40978    0.00088     0.41067
      H   20    0.10023      0.00000     0.39885    0.00093     0.39977
      H   21    0.09004      0.00000     0.40906    0.00090     0.40996
      H   22    0.10161      0.00000     0.39731    0.00108     0.39839
      H   23    0.08843      0.00000     0.40993    0.00164     0.41157
      H   24    0.10444      0.00000     0.39448    0.00108     0.39556
      H   25    0.10248      0.00000     0.39672    0.00079     0.39752
      H   26    0.10776      0.00000     0.39101    0.00123     0.39224
      H   27    0.10337      0.00000     0.39573    0.00090     0.39663
      H   28    0.19393      0.00000     0.30339    0.00268     0.30607
      H   29    0.10074      0.00000     0.39633    0.00293     0.39926
      H   30    0.09203      0.00000     0.40625    0.00172     0.40797
      H   31    0.09923      0.00000     0.39928    0.00149     0.40077
      H   32    0.10329      0.00000     0.39342    0.00330     0.39671
      H   33    0.10088      0.00000     0.39790    0.00122     0.39912
 =======================================================================
   * Total *   -0.00000     19.99322    42.80115    0.20562    63.00000

 Normal termination of Gaussian 16 at Fri Dec 11 00:08:55 2020.
