 Gaussian 16, Revision A.03,

 -----------------------------------------------------------
 # opt freq B3LYP/6-31G(d) empiricaldispersion=gd3bj scf=xqc
 -----------------------------------------------------------

 -------------------------------
 CID_103528898_JID_5899_neutraal
 -------------------------------
 Symbolic Z-matrix:
 Charge =  0 Multiplicity = 1

 SCF Done:  E(RB3LYP) =  -688.741239868     A.U. after   16 cycles
 SCF Done:  E(RB3LYP) =  -688.764215229     A.U. after   13 cycles
 SCF Done:  E(RB3LYP) =  -688.763339264     A.U. after   13 cycles
 SCF Done:  E(RB3LYP) =  -688.764913472     A.U. after   14 cycles
 SCF Done:  E(RB3LYP) =  -688.766319825     A.U. after   14 cycles
 SCF Done:  E(RB3LYP) =  -688.765770403     A.U. after   12 cycles
 SCF Done:  E(RB3LYP) =  -688.766076330     A.U. after   13 cycles
 SCF Done:  E(RB3LYP) =  -688.767097590     A.U. after   11 cycles
 SCF Done:  E(RB3LYP) =  -688.766968080     A.U. after   12 cycles
 SCF Done:  E(RB3LYP) =  -688.767326375     A.U. after   12 cycles
 SCF Done:  E(RB3LYP) =  -688.767805390     A.U. after    9 cycles
 SCF Done:  E(RB3LYP) =  -688.767805430     A.U. after    8 cycles
 SCF Done:  E(RB3LYP) =  -688.767805594     A.U. after    8 cycles
 SCF Done:  E(RB3LYP) =  -688.767805640     A.U. after    8 cycles
 SCF Done:  E(RB3LYP) =  -688.767805639     A.U. after    6 cycles
 Optimization completed.
    -- Stationary point found.
 Normal termination of Gaussian 16 at Thu Dec 10 17:43:29 2020.

 --------------------------------------------------------------------
 #N Geom=AllCheck Guess=TCheck SCRF=Check GenChk RB3LYP/6-31G(d) Freq
 --------------------------------------------------------------------

 Structure from the checkpoint file:  "JID_5899.chk"
 -------------------------------
 CID_103528898_JID_5899_neutraal
 -------------------------------
 Charge =  0 Multiplicity = 1

 SCF Done:  E(RB3LYP) =  -688.767805639     A.U. after    2 cycles

  Exact polarizability: 126.912  -4.659 128.770  -5.173  -2.600 117.042
 Approx polarizability: 172.196 -11.683 190.381 -15.358  -6.926 182.651

                      1                      2                      3
                      A                      A                      A
 Frequencies --     20.3247                41.7175                47.1647
 Red. masses --      3.8293                 3.9001                 4.1309
 Frc consts  --      0.0009                 0.0040                 0.0054
 IR Inten    --      0.3612                 0.2895                 0.4695

                      4                      5                      6
                      A                      A                      A
 Frequencies --     59.3026                66.2459                92.6067
 Red. masses --      3.8825                 7.3229                 3.3743
 Frc consts  --      0.0080                 0.0189                 0.0170
 IR Inten    --      0.1637                 4.4471                 0.4375

                      7                      8                      9
                      A                      A                      A
 Frequencies --    126.0678               143.3415               169.1102
 Red. masses --      2.8540                 2.7692                 2.3609
 Frc consts  --      0.0267                 0.0335                 0.0398
 IR Inten    --      1.2100                 0.1380                 0.1035

                     10                     11                     12
                      A                      A                      A
 Frequencies --    221.6650               245.4034               258.7075
 Red. masses --      3.2745                 1.8022                 5.1934
 Frc consts  --      0.0948                 0.0639                 0.2048
 IR Inten    --      1.7320                 0.0838                 0.1633

                     13                     14                     15
                      A                      A                      A
 Frequencies --    292.8463               302.3410               335.7613
 Red. masses --      1.6771                 4.0604                 4.7318
 Frc consts  --      0.0847                 0.2187                 0.3143
 IR Inten    --      0.6467                 0.8868                 2.0270

                     16                     17                     18
                      A                      A                      A
 Frequencies --    415.3364               454.9404               473.0320
 Red. masses --      4.9969                 3.1928                 4.4189
 Frc consts  --      0.5079                 0.3893                 0.5826
 IR Inten    --     12.4756                 1.9684                15.6526

                     19                     20                     21
                      A                      A                      A
 Frequencies --    493.5977               516.0502               548.0612
 Red. masses --      1.2278                 4.9749                 3.5706
 Frc consts  --      0.1762                 0.7806                 0.6319
 IR Inten    --     90.6768                 5.4236                 8.7385

                     22                     23                     24
                      A                      A                      A
 Frequencies --    574.2475               616.5892               623.1541
 Red. masses --      2.4250                 2.2047                 1.2076
 Frc consts  --      0.4712                 0.4938                 0.2763
 IR Inten    --     60.6774                27.2083                47.2253

                     25                     26                     27
                      A                      A                      A
 Frequencies --    637.0887               650.0201               669.9539
 Red. masses --      1.3249                 2.4566                 2.5232
 Frc consts  --      0.3168                 0.6116                 0.6673
 IR Inten    --     30.2637                63.6442                39.4190

                     28                     29                     30
                      A                      A                      A
 Frequencies --    709.9014               758.1108               763.1283
 Red. masses --      3.1924                 4.0671                 1.3890
 Frc consts  --      0.9479                 1.3772                 0.4766
 IR Inten    --     14.6925                32.5960                16.4185

                     31                     32                     33
                      A                      A                      A
 Frequencies --    830.9885               854.1902               861.0360
 Red. masses --      2.4829                 1.7838                 2.2771
 Frc consts  --      1.0102                 0.7668                 0.9947
 IR Inten    --      8.5118                 3.2888                 4.3976

                     34                     35                     36
                      A                      A                      A
 Frequencies --    891.0138               913.5415               959.2966
 Red. masses --      2.6181                 2.9574                 1.7499
 Frc consts  --      1.2246                 1.4542                 0.9488
 IR Inten    --      1.8878                 5.5142                 2.2351

                     37                     38                     39
                      A                      A                      A
 Frequencies --    966.9358              1015.2656              1024.5159
 Red. masses --      2.4358                 2.1432                 1.7661
 Frc consts  --      1.3418                 1.3016                 1.0922
 IR Inten    --      5.8177                 3.9650                 2.7079

                     40                     41                     42
                      A                      A                      A
 Frequencies --   1066.1453              1080.9928              1115.9379
 Red. masses --      2.0863                 2.6611                 2.6483
 Frc consts  --      1.3972                 1.8321                 1.9431
 IR Inten    --      6.0014                 2.1476                 8.1111

                     43                     44                     45
                      A                      A                      A
 Frequencies --   1117.1837              1142.1458              1165.0222
 Red. masses --      2.9732                 1.9096                 2.4708
 Frc consts  --      2.1864                 1.4677                 1.9759
 IR Inten    --     32.8464                 1.6159                13.6358

                     46                     47                     48
                      A                      A                      A
 Frequencies --   1176.4998              1241.8069              1254.5550
 Red. masses --      1.3607                 1.3531                 1.3358
 Frc consts  --      1.1096                 1.2294                 1.2387
 IR Inten    --     18.6251                14.0641                 2.9236

                     49                     50                     51
                      A                      A                      A
 Frequencies --   1275.3089              1301.3424              1308.0865
 Red. masses --      2.0103                 1.2935                 1.4048
 Frc consts  --      1.9264                 1.2906                 1.4162
 IR Inten    --     92.8953                21.4263                 4.5603

                     52                     53                     54
                      A                      A                      A
 Frequencies --   1338.0225              1341.4708              1355.6793
 Red. masses --      1.2564                 1.5239                 1.2733
 Frc consts  --      1.3253                 1.6157                 1.3788
 IR Inten    --     13.4870                33.0865                16.7851

                     55                     56                     57
                      A                      A                      A
 Frequencies --   1365.4342              1382.9852              1392.4123
 Red. masses --      1.2321                 2.3292                 1.5140
 Frc consts  --      1.3535                 2.6247                 1.7294
 IR Inten    --      8.4938               125.4664                18.3317

                     58                     59                     60
                      A                      A                      A
 Frequencies --   1400.3983              1403.7876              1444.7131
 Red. masses --      1.3186                 1.7577                 2.0684
 Frc consts  --      1.5236                 2.0408                 2.5436
 IR Inten    --      1.8237                44.9105                40.1033

                     61                     62                     63
                      A                      A                      A
 Frequencies --   1446.5927              1495.3100              1499.0296
 Red. masses --      1.2662                 1.5366                 1.0875
 Frc consts  --      1.5612                 2.0243                 1.4397
 IR Inten    --      7.2949                31.4547                 4.3796

                     64                     65                     66
                      A                      A                      A
 Frequencies --   1512.4432              1518.7385              1531.3821
 Red. masses --      1.0936                 1.0604                 1.0711
 Frc consts  --      1.4739                 1.4411                 1.4799
 IR Inten    --      0.6663                 1.6524                13.0190

                     67                     68                     69
                      A                      A                      A
 Frequencies --   1541.5078              1543.7942              1788.0507
 Red. masses --      1.0545                 1.0893                 8.1758
 Frc consts  --      1.4764                 1.5296                15.4006
 IR Inten    --     11.5024                 6.7011               375.0089

                     70                     71                     72
                      A                      A                      A
 Frequencies --   1834.6688              2235.1479              3043.8018
 Red. masses --     10.3360                 5.9482                 1.0598
 Frc consts  --     20.4983                17.5085                 5.7852
 IR Inten    --    405.9613                 0.2964                22.1605

                     73                     74                     75
                      A                      A                      A
 Frequencies --   3052.2464              3052.6778              3067.0482
 Red. masses --      1.0534                 1.0441                 1.0861
 Frc consts  --      5.7823                 5.7325                 6.0195
 IR Inten    --      7.8125                36.7298                26.6726

                     76                     77                     78
                      A                      A                      A
 Frequencies --   3074.0187              3079.5844              3093.1710
 Red. masses --      1.0673                 1.1031                 1.1033
 Frc consts  --      5.9425                 6.1638                 6.2193
 IR Inten    --     12.5207                13.1249                27.3699

                     79                     80                     81
                      A                      A                      A
 Frequencies --   3095.5660              3117.5421              3122.6830
 Red. masses --      1.0645                 1.1022                 1.1022
 Frc consts  --      6.0099                 6.3113                 6.3323
 IR Inten    --      9.8578                53.4866                35.4274

                     82                     83                     84
                      A                      A                      A
 Frequencies --   3133.2389              3147.9701              3184.4198
 Red. masses --      1.0969                 1.1040                 1.0810
 Frc consts  --      6.3448                 6.4456                 6.4589
 IR Inten    --      4.9387                16.4497                 4.9015

                     85                     86                     87
                      A                      A                      A
 Frequencies --   3493.9462              3564.7806              3624.1991
 Red. masses --      1.1605                 1.0752                 1.0776
 Frc consts  --      8.3468                 8.0504                 8.3392
 IR Inten    --     60.6992                19.0685                28.6893

 - Thermochemistry -
 -------------------
 Temperature   298.150 Kelvin.  Pressure   1.00000 Atm.
 Atom     1 has atomic number  6 and mass  12.00000

 Molecular mass:   208.12118 amu.
 Principal axes and moments of inertia in atomic units:
                           1         2         3
     Eigenvalues --  2781.580813326.208624602.55876
           X            0.99843  -0.04946   0.02643
           Y            0.04952   0.99877  -0.00170
           Z           -0.02631   0.00301   0.99965
 This molecule is an asymmetric top.
 Rotational symmetry number  1.
 Warning -- assumption of classical behavior for rotation
           may cause significant error
 Rotational temperatures (Kelvin)      0.03114     0.02604     0.01882
 Rotational constants (GHZ):           0.64882     0.54258     0.39212
 Zero-point vibrational energy     689085.5 (Joules/Mol)
                                  164.69538 (Kcal/Mol)
 Warning -- explicit consideration of  23 degrees of freedom as
           vibrations may cause significant error
 Vibrational temperatures:     29.24    60.02    67.86    85.32    95.31
          (Kelvin)            133.24   181.38   206.24   243.31   318.93
                              353.08   372.22   421.34   435.00   483.09
                              597.58   654.56   680.59   710.18   742.48
                              788.54   826.21   887.13   896.58   916.63
                              935.23   963.91  1021.39  1090.75  1097.97
                             1195.61  1228.99  1238.84  1281.97  1314.38
                             1380.21  1391.20  1460.74  1474.05  1533.95
                             1555.31  1605.59  1607.38  1643.29  1676.21
                             1692.72  1786.68  1805.02  1834.89  1872.34
                             1882.04  1925.12  1930.08  1950.52  1964.56
                             1989.81  2003.37  2014.86  2019.74  2078.62
                             2081.32  2151.42  2156.77  2176.07  2185.13
                             2203.32  2217.89  2221.18  2572.61  2639.68
                             3215.88  4379.35  4391.50  4392.12  4412.80
                             4422.83  4430.84  4450.38  4453.83  4485.45
                             4492.84  4508.03  4529.23  4581.67  5027.01
                             5128.92  5214.41

 Zero-point correction=                           0.262459 (Hartree/Particle)
 Thermal correction to Energy=                    0.278308
 Thermal correction to Enthalpy=                  0.279252
 Thermal correction to Gibbs Free Energy=         0.217369
 Sum of electronic and zero-point Energies=           -688.505347
 Sum of electronic and thermal Energies=              -688.489498
 Sum of electronic and thermal Enthalpies=            -688.488554
 Sum of electronic and thermal Free Energies=         -688.550437

                     E (Thermal)             CV                S
                      KCal/Mol        Cal/Mol-Kelvin    Cal/Mol-Kelvin
 Total                  174.641             58.174            130.244
 Electronic               0.000              0.000              0.000
 Translational            0.889              2.981             41.903
 Rotational               0.889              2.981             32.121
 Vibrational            172.863             52.212             56.220
 Vibration     1          0.593              1.986              6.602
 Vibration     2          0.594              1.981              5.176
 Vibration     3          0.595              1.979              4.933
 Vibration     4          0.597              1.974              4.480
 Vibration     5          0.598              1.970              4.262
 Vibration     6          0.602              1.954              3.604
 Vibration     7          0.611              1.927              3.005
 Vibration     8          0.616              1.910              2.759
 Vibration     9          0.625              1.880              2.445
 Vibration    10          0.648              1.808              1.945
 Vibration    11          0.660              1.770              1.763
 Vibration    12          0.668              1.748              1.670
 Vibration    13          0.688              1.687              1.457
 Vibration    14          0.694              1.669              1.404
 Vibration    15          0.717              1.604              1.232
 Vibration    16          0.779              1.437              0.908
 Vibration    17          0.813              1.350              0.781
 Vibration    18          0.830              1.310              0.729
 Vibration    19          0.849              1.264              0.674
 Vibration    20          0.871              1.214              0.619
 Vibration    21          0.903              1.144              0.548
 Vibration    22          0.931              1.087              0.496
 Vibration    23          0.976              0.997              0.422

 Optimization completed.
    -- Stationary point found.
 Normal termination of Gaussian 16 at Thu Dec 10 17:54:16 2020.

 ----------------------------------------------------------------------
 # B3LYP/6-311++G(d,p) empiricaldispersion=gd3bj scf=xqc pop=npa geom=c
 heck
 ----------------------------------------------------------------------

 ---------------------------------------
 CID_103528898_JID_5899_Energie_neutraal
 ---------------------------------------
 Structure from the checkpoint file:  "JID_5899.chk"
 Charge =  0 Multiplicity = 1

 SCF Done:  E(RB3LYP) =  -688.974626409     A.U. after   15 cycles
 Normal termination of Gaussian 16 at Thu Dec 10 17:58:18 2020.

 ----------------------------------------------------------------------
 # B3LYP/6-311++G(d,p) empiricaldispersion=gd3bj scf=xqc pop=npa geom=c
 heck
 ----------------------------------------------------------------------

 -------------------------------------
 CID_103528898_JID_5899_Energie_kation
 -------------------------------------
 Structure from the checkpoint file:  "JID_5899.chk"
 Charge =  1 Multiplicity = 2

 SCF Done:  E(UB3LYP) =  -688.648293761     A.U. after   27 cycles
 Normal termination of Gaussian 16 at Thu Dec 10 18:08:24 2020.
 Gaussian 16:  ES64L-G16RevA.03 25-Dec-2016

 ----------------------------------------------------------------------
 # B3LYP/6-311++G(d,p) empiricaldispersion=gd3bj scf=xqc pop=npa geom=c
 heck
 ----------------------------------------------------------------------

 ------------------------------------
 CID_103528898_JID_5899_Energie_anion
 ------------------------------------
 Structure from the checkpoint file:  "JID_5899.chk"
 Charge = -1 Multiplicity = 2

                         Standard orientation:
 ---------------------------------------------------------------------
 Center     Atomic      Atomic             Coordinates (Angstroms)
 Number     Number       Type             X           Y           Z
 ---------------------------------------------------------------------
      1          6           0       -2.433875    2.023959   -0.122306
      2          6           0       -3.144929    0.736940   -0.557546
      3          6           0       -2.194768   -0.339521   -1.097305
      4          6           0       -1.071730   -0.716457   -0.112873
      5          6           0       -1.588614   -1.215271    1.169343
      6          6           0       -2.013477   -1.629996    2.220920
      7          7           0       -0.153457   -1.681865   -0.725244
      8          6           0        1.217176   -1.725934   -0.645482
      9          8           0        1.834652   -2.747100   -0.915020
     10          6           0        1.987211   -0.458097   -0.254894
     11          6           0        1.928146   -0.130927    1.268898
     12          6           0        1.933775    1.405763    1.337145
     13          6           0        1.475093    1.873474   -0.046302
     14          8           0        1.151644    2.997460   -0.383281
     15          7           0        1.495830    0.768117   -0.863116
     16          1           0       -1.835330    1.869168    0.782395
     17          1           0       -3.159537    2.812073    0.103973
     18          1           0       -1.758207    2.402186   -0.898382
     19          1           0       -3.713421    0.327497    0.286425
     20          1           0       -3.875606    0.966539   -1.342822
     21          1           0       -2.757938   -1.243060   -1.363649
     22          1           0       -1.701066    0.016719   -2.009743
     23          1           0       -0.498751    0.187900    0.073880
     24          1           0       -2.384306   -2.003127    3.148611
     25          1           0       -0.548677   -2.594378   -0.928975
     26          1           0        3.018640   -0.666135   -0.560657
     27          1           0        2.767093   -0.594169    1.791226
     28          1           0        1.010375   -0.532357    1.708095
     29          1           0        2.938504    1.810207    1.507666
     30          1           0        1.281127    1.818741    2.109973
     31          1           0        1.366068    0.871960   -1.860678
 ---------------------------------------------------------------------

 SCF Done:  E(UB3LYP) =  -688.964340388     A.U. after   33 cycles
 SCF Done:  E(UB3LYP) =  -688.964340388     a.u. after    1 cycles

 The electronic state is 2-A.
 Alpha  occ. eigenvalues --  -19.00829 -19.00489 -14.25600 -14.25383 -10.19290
 Alpha  occ. eigenvalues --  -10.18704 -10.15283 -10.13977 -10.09748 -10.09322
 Alpha  occ. eigenvalues --  -10.09171 -10.08885 -10.08388 -10.08021 -10.06719
 Alpha  occ. eigenvalues --   -0.96059  -0.95362  -0.86194  -0.84457  -0.72479
 Alpha  occ. eigenvalues --   -0.70142  -0.67697  -0.65336  -0.63349  -0.57686
 Alpha  occ. eigenvalues --   -0.54228  -0.51067  -0.50732  -0.49850  -0.46223
 Alpha  occ. eigenvalues --   -0.44435  -0.42400  -0.40501  -0.39020  -0.37266
 Alpha  occ. eigenvalues --   -0.36711  -0.34855  -0.34486  -0.33351  -0.32746
 Alpha  occ. eigenvalues --   -0.32265  -0.31882  -0.31655  -0.30731  -0.29866
 Alpha  occ. eigenvalues --   -0.27547  -0.25698  -0.25614  -0.25165  -0.24536
 Alpha  occ. eigenvalues --   -0.20999  -0.19555  -0.18569  -0.17937  -0.17371
 Alpha  occ. eigenvalues --   -0.16241   0.03956
 Alpha virt. eigenvalues --    0.05992   0.06264   0.07430   0.07668   0.08162
 Alpha virt. eigenvalues --    0.08571   0.09116   0.09467   0.10024   0.10281
 Alpha virt. eigenvalues --    0.10770   0.11109   0.11791   0.11997   0.12363

  Beta  occ. eigenvalues --  -19.00826 -19.00485 -14.25584 -14.25352 -10.19289
  Beta  occ. eigenvalues --  -10.18705 -10.15275 -10.13963 -10.09728 -10.09291
  Beta  occ. eigenvalues --  -10.09172 -10.08861 -10.08355 -10.08006 -10.06705
  Beta  occ. eigenvalues --   -0.96051  -0.95354  -0.86165  -0.84432  -0.72450
  Beta  occ. eigenvalues --   -0.70090  -0.67669  -0.65300  -0.63315  -0.57639
  Beta  occ. eigenvalues --   -0.54172  -0.51029  -0.50662  -0.49796  -0.46171
  Beta  occ. eigenvalues --   -0.44398  -0.42347  -0.40471  -0.38985  -0.37241
  Beta  occ. eigenvalues --   -0.36688  -0.34833  -0.34456  -0.33320  -0.32712
  Beta  occ. eigenvalues --   -0.32234  -0.31861  -0.31630  -0.30690  -0.29838
  Beta  occ. eigenvalues --   -0.27519  -0.25668  -0.25582  -0.25136  -0.24510
  Beta  occ. eigenvalues --   -0.20973  -0.19519  -0.18548  -0.17918  -0.17346
  Beta  occ. eigenvalues --   -0.16223
  Beta virt. eigenvalues --    0.06161   0.06955   0.07324   0.07710   0.08083
  Beta virt. eigenvalues --    0.08754   0.08982   0.09336   0.09744   0.10244
  Beta virt. eigenvalues --    0.10520   0.11009   0.11431   0.11979   0.12215

 Mulliken charges and spin densities:
               1          2
     1  C   -0.795957   0.343077
     2  C    0.787094  -1.246661
     3  C   -0.139109  -0.063974
     4  C   -1.719171   1.736916
     5  C    2.622203  -2.662636
     6  C   -1.033027   0.813489
     7  N   -0.038991   0.032189
     8  C   -0.675573   0.494911
     9  O   -0.312539   0.004019
    10  C    0.477128  -0.144673
    11  C    0.181343  -0.714667
    12  C    0.330079  -0.637812
    13  C   -0.079947   0.011268
    14  O   -0.335139   0.024249
    15  N   -0.059411  -0.105974
    16  H   -0.014852   0.174245
    17  H   -0.112325   0.261963
    18  H    0.119340   0.037088
    19  H    0.074178   0.086326
    20  H   -0.024850   0.169427
    21  H   -0.191243   0.348071
    22  H   -0.254162   0.434346
    23  H    2.283831  -2.380034
    24  H   -1.288327   1.500189
    25  H    0.103221   0.214982
    26  H   -0.142700   0.431083
    27  H   -0.406789   0.606735
    28  H    0.203564  -0.047649
    29  H   -0.411078   0.610039
    30  H   -0.041361   0.245132
    31  H   -0.105428   0.424335
 Sum of Mulliken charges =  -1.00000   1.00000

 Dipole moment (field-independent basis, Debye):
    X=             -0.9371    Y=              0.5097    Z=             -2.2797  Tot=              2.5170
 Quadrupole moment (field-independent basis, Debye-Ang):
   XX=           -151.0601   YY=           -147.6816   ZZ=           -139.3822
   XY=             -2.7210   XZ=              4.4070   YZ=              4.5272

 Summary of Natural Population Analysis:

                                       Natural Population
                Natural  -----------------------------------------------
    Atom  No    Charge         Core      Valence    Rydberg      Total
 -----------------------------------------------------------------------
      C    1   -0.28940      0.99966     2.28506    0.00467     3.28940
      C    2   -0.19374      0.99964     2.18677    0.00733     3.19374
      C    3   -0.17982      0.99961     2.17027    0.00994     3.17982
      C    4   -0.06144      0.99949     2.04820    0.01375     3.06144
      C    5   -0.01553      0.99935     2.00680    0.00937     3.01553
      C    6   -0.09845      0.99926     2.09512    0.00407     3.09845
      N    7   -0.31133      0.99966     2.80074    0.01093     3.81133
      C    8    0.34456      0.99963     1.63377    0.02203     2.65544
      O    9   -0.31479      0.99988     3.30914    0.00577     4.31479
      C   10   -0.04359      0.99956     2.03103    0.01300     3.04359
      C   11   -0.19292      0.99962     2.18476    0.00854     3.19292
      C   12   -0.23426      0.99959     2.22670    0.00797     3.23426
      C   13    0.34428      0.99967     1.63165    0.02441     2.65572
      O   14   -0.31296      0.99987     3.30737    0.00572     4.31296
      N   15   -0.32721      0.99967     2.81714    0.01041     3.82721
      H   16    0.09757      0.00000     0.40113    0.00129     0.40243
      H   17    0.09943      0.00000     0.39981    0.00075     0.40057
      H   18    0.10286      0.00000     0.39604    0.00111     0.39714
      H   19    0.10008      0.00000     0.39872    0.00120     0.39992
      H   20    0.09725      0.00000     0.40173    0.00102     0.40275
      H   21    0.10040      0.00000     0.39820    0.00140     0.39960
      H   22    0.10173      0.00000     0.39665    0.00162     0.39827
      H   23    0.12103      0.00000     0.37318    0.00579     0.37897
      H   24    0.11477      0.00000     0.38275    0.00247     0.38523
      H   25    0.19543      0.00000     0.30209    0.00247     0.30457
      H   26    0.10702      0.00000     0.39147    0.00151     0.39298
      H   27    0.11017      0.00000     0.38838    0.00145     0.38983
      H   28    0.10705      0.00000     0.39074    0.00221     0.39295
      H   29    0.11490      0.00000     0.38337    0.00173     0.38510
      H   30    0.11407      0.00000     0.38473    0.00120     0.38593
      H   31    0.20281      0.00000     0.29392    0.00328     0.29719
 =======================================================================
   * Total *   -0.00000     14.99418    40.81744    0.18839    56.00000

 Normal termination of Gaussian 16 at Thu Dec 10 18:21:33 2020.
