 Gaussian 16, Revision A.03,

 -----------------------------------------------------------
 # opt freq B3LYP/6-31G(d) empiricaldispersion=gd3bj scf=xqc
 -----------------------------------------------------------

 ------------------------------
 CID_84796754_JID_7532_neutraal
 ------------------------------
 Symbolic Z-matrix:
 Charge =  0 Multiplicity = 1

 SCF Done:  E(RB3LYP) =  -866.515909148     A.U. after   15 cycles
 SCF Done:  E(RB3LYP) =  -866.523558641     A.U. after   12 cycles
 SCF Done:  E(RB3LYP) =  -866.524423323     A.U. after   11 cycles
 SCF Done:  E(RB3LYP) =  -866.524469112     A.U. after    9 cycles
 SCF Done:  E(RB3LYP) =  -866.524474680     A.U. after    9 cycles
 SCF Done:  E(RB3LYP) =  -866.524472938     A.U. after    9 cycles
 SCF Done:  E(RB3LYP) =  -866.524475951     A.U. after    9 cycles
 SCF Done:  E(RB3LYP) =  -866.524476884     A.U. after    8 cycles
 Optimization completed.
    -- Stationary point found.
 Normal termination of Gaussian 16 at Fri Dec 11 12:19:00 2020.

 --------------------------------------------------------------------
 #N Geom=AllCheck Guess=TCheck SCRF=Check GenChk RB3LYP/6-31G(d) Freq
 --------------------------------------------------------------------

 Structure from the checkpoint file:  "JID_7532.chk"
 ------------------------------
 CID_84796754_JID_7532_neutraal
 ------------------------------
 Charge =  0 Multiplicity = 1

 SCF Done:  E(RB3LYP) =  -866.524476884     A.U. after    1 cycles

  Exact polarizability: 247.545  -7.163 123.550  -0.001   0.002  48.243
 Approx polarizability: 335.877 -20.534 234.335  -0.003   0.004  77.144

                      1                      2                      3
                      A                      A                      A
 Frequencies --     35.3323                43.7177                74.8809
 Red. masses --      8.2834                 9.3708                 8.8856
 Frc consts  --      0.0061                 0.0106                 0.0294
 IR Inten    --      0.8479                 2.4552                 0.2458

                      4                      5                      6
                      A                      A                      A
 Frequencies --     75.5331                81.6128               135.2717
 Red. masses --      9.0729                 7.9682                 5.2510
 Frc consts  --      0.0305                 0.0313                 0.0566
 IR Inten    --      1.1412                 0.0924                 0.0582

                      7                      8                      9
                      A                      A                      A
 Frequencies --    157.8992               215.8931               237.1368
 Red. masses --      7.6160                 7.3270                 6.9380
 Frc consts  --      0.1119                 0.2012                 0.2299
 IR Inten    --      0.3162                 1.1427                 2.9373

                     10                     11                     12
                      A                      A                      A
 Frequencies --    252.9256               290.4588               399.3338
 Red. masses --     11.4072                 7.7285                 8.8362
 Frc consts  --      0.4299                 0.3842                 0.8302
 IR Inten    --      0.4753                 0.0496                17.7860

                     13                     14                     15
                      A                      A                      A
 Frequencies --    411.6852               447.1366               502.3292
 Red. masses --      4.0325                 8.9505                 7.7061
 Frc consts  --      0.4027                 1.0543                 1.1457
 IR Inten    --      0.1463                 2.7244                24.8117

                     16                     17                     18
                      A                      A                      A
 Frequencies --    509.3189               516.1551               573.6272
 Red. masses --      2.6944                 6.6333                 1.6234
 Frc consts  --      0.4118                 1.0412                 0.3147
 IR Inten    --     19.8874                20.6785                51.6512

                     19                     20                     21
                      A                      A                      A
 Frequencies --    584.7610               616.7008               640.6419
 Red. masses --      5.7221                 1.2518                 1.9906
 Frc consts  --      1.1528                 0.2805                 0.4813
 IR Inten    --      0.9987               121.2343                12.4934

                     22                     23                     24
                      A                      A                      A
 Frequencies --    662.1842               666.7356               681.6393
 Red. masses --      9.1822                 5.0945                 4.2513
 Frc consts  --      2.3722                 1.3343                 1.1638
 IR Inten    --      5.0579                 4.3826               105.9968

                     25                     26                     27
                      A                      A                      A
 Frequencies --    709.1593               761.8306               773.0912
 Red. masses --      4.0197                 6.7560                 4.9879
 Frc consts  --      1.1911                 2.3103                 1.7564
 IR Inten    --     27.7252                24.9210                65.7139

                     28                     29                     30
                      A                      A                      A
 Frequencies --    820.3889               831.5403               867.9661
 Red. masses --      8.3691                 8.2164                 1.4084
 Frc consts  --      3.3187                 3.3473                 0.6251
 IR Inten    --     29.1002                23.7271                 3.0798

                     31                     32                     33
                      A                      A                      A
 Frequencies --    915.5650               967.7706               987.4072
 Red. masses --      1.4185                 6.4168                 1.5753
 Frc consts  --      0.7006                 3.5409                 0.9049
 IR Inten    --     10.2186               142.1419                 5.4633

                     34                     35                     36
                      A                      A                      A
 Frequencies --   1011.8033              1021.0964              1051.4589
 Red. masses --      1.3855                 4.7632                 4.7571
 Frc consts  --      0.8357                 2.9261                 3.0987
 IR Inten    --      0.2933                67.5748                 3.2251

                     37                     38                     39
                      A                      A                      A
 Frequencies --   1074.5243              1139.5564              1154.2834
 Red. masses --      2.6052                 4.0538                 2.9621
 Frc consts  --      1.7722                 3.1016                 2.3253
 IR Inten    --      7.2952               427.2191                16.6527

                     40                     41                     42
                      A                      A                      A
 Frequencies --   1212.4906              1226.1735              1233.1671
 Red. masses --      1.9230                 1.7939                 1.6007
 Frc consts  --      1.6656                 1.5891                 1.4342
 IR Inten    --    162.8892               304.2663                57.9813

                     43                     44                     45
                      A                      A                      A
 Frequencies --   1289.6923              1297.5698              1335.2870
 Red. masses --      2.4918                 9.2778                 2.0640
 Frc consts  --      2.4420                 9.2035                 2.1683
 IR Inten    --      3.6659                 7.2439                 4.1259

                     46                     47                     48
                      A                      A                      A
 Frequencies --   1356.9576              1396.5555              1432.8384
 Red. masses --      2.2773                 2.1466                 3.7942
 Frc consts  --      2.4706                 2.4667                 4.5895
 IR Inten    --     60.5868               377.9274               250.5966

                     49                     50                     51
                      A                      A                      A
 Frequencies --   1444.0710              1460.1110              1477.9104
 Red. masses --      6.1604                 3.6535                 6.7400
 Frc consts  --      7.5690                 4.5891                 8.6738
 IR Inten    --     35.3022                67.3388               201.6700

                     52                     53                     54
                      A                      A                      A
 Frequencies --   1523.6388              1601.3618              1623.4309
 Red. masses --      9.3102                 7.4177                 6.0932
 Frc consts  --     12.7342                11.2073                 9.4616
 IR Inten    --    414.4237               181.6806               102.6114

                     55                     56                     57
                      A                      A                      A
 Frequencies --   1655.3710              1828.8671              1830.8974
 Red. masses --      5.7085                10.0462                 9.8780
 Frc consts  --      9.2164                19.7979                19.5095
 IR Inten    --    329.8164               568.1905               180.0259

                     58                     59                     60
                      A                      A                      A
 Frequencies --   3212.4883              3214.2549              3278.5493
 Red. masses --      1.0924                 1.0927                 1.0971
 Frc consts  --      6.6424                 6.6513                 6.9479
 IR Inten    --      2.1497                 6.0050                 0.4234

                     61                     62                     63
                      A                      A                      A
 Frequencies --   3330.9546              3697.1296              3697.2838
 Red. masses --      1.0985                 1.0642                 1.0642
 Frc consts  --      7.1809                 8.5702                 8.5708
 IR Inten    --      9.2092               171.7933                12.4685

 - Thermochemistry -
 -------------------
 Temperature   298.150 Kelvin.  Pressure   1.00000 Atm.
 Atom     1 has atomic number  6 and mass  12.00000

 Molecular mass:   234.03890 amu.
 Principal axes and moments of inertia in atomic units:
                           1         2         3
     Eigenvalues --   987.188269989.35750**********
           X            0.99999   0.00362   0.00000
           Y           -0.00362   0.99999   0.00000
           Z           -0.00000  -0.00000   1.00000
 This molecule is an asymmetric top.
 Rotational symmetry number  1.
 Warning -- assumption of classical behavior for rotation
           may cause significant error
 Rotational temperatures (Kelvin)      0.08774     0.00867     0.00789
 Rotational constants (GHZ):           1.82816     0.18067     0.16442
 Zero-point vibrational energy     416045.7 (Joules/Mol)
                                   99.43730 (Kcal/Mol)
 Warning -- explicit consideration of  20 degrees of freedom as
           vibrations may cause significant error
 Vibrational temperatures:     50.84    62.90   107.74   108.68   117.42
          (Kelvin)            194.63   227.18   310.62   341.19   363.90
                              417.91   574.55   592.32   643.33   722.74
                              732.80   742.63   825.32   841.34   887.29
                              921.74   952.74   959.28   980.73  1020.32
                             1096.10  1112.31  1180.36  1196.40  1248.81
                             1317.29  1392.41  1420.66  1455.76  1469.13
                             1512.81  1546.00  1639.57  1660.76  1744.50
                             1764.19  1774.25  1855.58  1866.91  1921.18
                             1952.36  2009.33  2061.53  2077.70  2100.77
                             2126.38  2192.18  2304.00  2335.75  2381.71
                             2631.33  2634.25  4622.05  4624.60  4717.10
                             4792.50  5319.34  5319.57

 Zero-point correction=                           0.158463 (Hartree/Particle)
 Thermal correction to Energy=                    0.172060
 Thermal correction to Enthalpy=                  0.173005
 Thermal correction to Gibbs Free Energy=         0.115988
 Sum of electronic and zero-point Energies=           -866.366013
 Sum of electronic and thermal Energies=              -866.352416
 Sum of electronic and thermal Enthalpies=            -866.351472
 Sum of electronic and thermal Free Energies=         -866.408489

                     E (Thermal)             CV                S
                      KCal/Mol        Cal/Mol-Kelvin    Cal/Mol-Kelvin
 Total                  107.970             50.354            120.002
 Electronic               0.000              0.000              0.000
 Translational            0.889              2.981             42.253
 Rotational               0.889              2.981             33.048
 Vibrational            106.192             44.392             44.701
 Vibration     1          0.594              1.982              5.505
 Vibration     2          0.595              1.980              5.083
 Vibration     3          0.599              1.966              4.021
 Vibration     4          0.599              1.965              4.004
 Vibration     5          0.600              1.962              3.852
 Vibration     6          0.613              1.918              2.870
 Vibration     7          0.621              1.894              2.575
 Vibration     8          0.645              1.817              1.993
 Vibration     9          0.656              1.784              1.824
 Vibration    10          0.664              1.758              1.710
 Vibration    11          0.686              1.691              1.471
 Vibration    12          0.765              1.472              0.965
 Vibration    13          0.776              1.445              0.921
 Vibration    14          0.806              1.367              0.804
 Vibration    15          0.858              1.245              0.652
 Vibration    16          0.864              1.229              0.635
 Vibration    17          0.871              1.214              0.619
 Vibration    18          0.930              1.088              0.497
 Vibration    19          0.942              1.064              0.477
 Vibration    20          0.976              0.997              0.422

 Optimization completed.
    -- Stationary point found.
 Normal termination of Gaussian 16 at Fri Dec 11 12:25:27 2020.

 ----------------------------------------------------------------------
 # B3LYP/6-311++G(d,p) empiricaldispersion=gd3bj scf=xqc pop=npa geom=c
 heck
 ----------------------------------------------------------------------

 --------------------------------------
 CID_84796754_JID_7532_Energie_neutraal
 --------------------------------------
 Structure from the checkpoint file:  "JID_7532.chk"
 Charge =  0 Multiplicity = 1

 SCF Done:  E(RB3LYP) =  -866.777516510     A.U. after   15 cycles
 Normal termination of Gaussian 16 at Fri Dec 11 12:27:55 2020.

 ----------------------------------------------------------------------
 # B3LYP/6-311++G(d,p) empiricaldispersion=gd3bj scf=xqc pop=npa geom=c
 heck
 ----------------------------------------------------------------------

 ------------------------------------
 CID_84796754_JID_7532_Energie_kation
 ------------------------------------
 Structure from the checkpoint file:  "JID_7532.chk"
 Charge =  1 Multiplicity = 2

 SCF Done:  E(UB3LYP) =  -866.436612929     A.U. after   33 cycles
 SCF Done:  E(UB3LYP) =  -866.436612929     a.u. after    1 cycles
 Normal termination of Gaussian 16 at Fri Dec 11 12:34:49 2020.
 Gaussian 16:  ES64L-G16RevA.03 25-Dec-2016

 ----------------------------------------------------------------------
 # B3LYP/6-311++G(d,p) empiricaldispersion=gd3bj scf=xqc pop=npa geom=c
 heck
 ----------------------------------------------------------------------

 -----------------------------------
 CID_84796754_JID_7532_Energie_anion
 -----------------------------------
 Structure from the checkpoint file:  "JID_7532.chk"
 Charge = -1 Multiplicity = 2

                         Standard orientation:
 ---------------------------------------------------------------------
 Center     Atomic      Atomic             Coordinates (Angstroms)
 Number     Number       Type             X           Y           Z
 ---------------------------------------------------------------------
      1          6           0       -2.487623   -1.165731    0.000034
      2          6           0       -3.035626    0.122050   -0.000015
      3          6           0       -2.121409    1.181893    0.000012
      4          7           0       -0.805946    0.987023    0.000101
      5          6           0       -0.408315   -0.293675    0.000183
      6          7           0       -1.173082   -1.385773    0.000120
      7          7           0        0.982984   -0.479283    0.000114
      8          6           0        1.925202    0.512622    0.000206
      9          6           0        3.147636   -0.121331   -0.000018
     10          6           0        2.837473   -1.515323   -0.000093
     11          7           0        1.538919   -1.735475   -0.000013
     12          6           0        4.488531    0.464052   -0.000122
     13          8           0        5.522429   -0.172932   -0.000277
     14          8           0        4.460174    1.822822    0.000136
     15          6           0       -4.486359    0.410036   -0.000120
     16          8           0       -4.964968    1.525106   -0.000251
     17          8           0       -5.237694   -0.716756    0.000039
     18          1           0       -3.127659   -2.043562    0.000023
     19          1           0       -2.476749    2.208905   -0.000019
     20          1           0        1.647486    1.553277    0.000342
     21          1           0        3.535284   -2.341288   -0.000244
     22          1           0        5.392868    2.107441    0.000094
     23          1           0       -6.167944   -0.423689   -0.000032
 ---------------------------------------------------------------------

 SCF Done:  E(UB3LYP) =  -866.824378202     A.U. after   22 cycles

 The electronic state is 2-A.
 Alpha  occ. eigenvalues --  -19.06878 -19.05457 -19.00071 -18.98095 -14.28017
 Alpha  occ. eigenvalues --  -14.21482 -14.18949 -14.18645 -10.19508 -10.17055
 Alpha  occ. eigenvalues --  -10.13021 -10.09569 -10.08911 -10.08632 -10.08413
 Alpha  occ. eigenvalues --  -10.06165 -10.05121  -1.00476  -0.99076  -0.94146
 Alpha  occ. eigenvalues --   -0.91281  -0.89730  -0.86234  -0.76838  -0.73339
 Alpha  occ. eigenvalues --   -0.68671  -0.66339  -0.58217  -0.55610  -0.53199
 Alpha  occ. eigenvalues --   -0.50854  -0.47783  -0.46522  -0.42690  -0.40477
 Alpha  occ. eigenvalues --   -0.39549  -0.38130  -0.36942  -0.36369  -0.35962
 Alpha  occ. eigenvalues --   -0.34372  -0.34135  -0.33518  -0.30965  -0.30063
 Alpha  occ. eigenvalues --   -0.29866  -0.28884  -0.28856  -0.28160  -0.22632
 Alpha  occ. eigenvalues --   -0.21557  -0.20342  -0.19770  -0.18920  -0.18261
 Alpha  occ. eigenvalues --   -0.17751  -0.15990  -0.15073  -0.13048  -0.12763
 Alpha  occ. eigenvalues --    0.01004
 Alpha virt. eigenvalues --    0.07370   0.07400   0.07788   0.08191   0.10319
 Alpha virt. eigenvalues --    0.10608   0.11049   0.11453   0.12877   0.13733
 Alpha virt. eigenvalues --    0.14479   0.14856   0.14889   0.16091   0.16568

  Beta  occ. eigenvalues --  -19.06871 -19.05407 -18.99972 -18.97851 -14.28138
  Beta  occ. eigenvalues --  -14.21397 -14.18955 -14.18724 -10.19446 -10.16882
  Beta  occ. eigenvalues --  -10.12522 -10.09498 -10.08722 -10.08416 -10.08328
  Beta  occ. eigenvalues --  -10.06151 -10.04932  -1.00402  -0.98852  -0.94025
  Beta  occ. eigenvalues --   -0.91149  -0.89373  -0.85942  -0.76684  -0.73082
  Beta  occ. eigenvalues --   -0.68307  -0.65953  -0.57717  -0.55379  -0.52933
  Beta  occ. eigenvalues --   -0.50635  -0.47576  -0.46343  -0.42482  -0.40237
  Beta  occ. eigenvalues --   -0.39389  -0.38006  -0.36790  -0.36095  -0.35388
  Beta  occ. eigenvalues --   -0.34025  -0.33747  -0.32658  -0.30862  -0.29974
  Beta  occ. eigenvalues --   -0.29702  -0.28726  -0.28128  -0.28015  -0.22304
  Beta  occ. eigenvalues --   -0.20613  -0.20264  -0.19079  -0.18151  -0.17872
  Beta  occ. eigenvalues --   -0.17648  -0.15766  -0.13995  -0.12746  -0.12220
  Beta virt. eigenvalues --    0.06449   0.07365   0.07789   0.08103   0.09355
  Beta virt. eigenvalues --    0.10314   0.10591   0.11441   0.12180   0.12858
  Beta virt. eigenvalues --    0.13768   0.14479   0.14875   0.14920   0.16086

 Mulliken charges and spin densities:
               1          2
     1  C    0.345245   0.152564
     2  C   -0.137394   0.081984
     3  C   -0.202381   0.082621
     4  N   -0.169311  -0.005935
     5  C   -0.823821   0.259761
     6  N   -0.076172  -0.047768
     7  N    0.053059  -0.056140
     8  C    0.100063   0.200060
     9  C    0.016846   0.016783
    10  C   -0.032491   0.004399
    11  N    0.043899   0.043000
    12  C   -0.407278   0.041137
    13  O   -0.365823   0.031511
    14  O   -0.205168   0.000567
    15  C    0.069149   0.131020
    16  O   -0.402848   0.085667
    17  O   -0.199782   0.010838
    18  H    0.217225  -0.010039
    19  H    0.215864  -0.004399
    20  H    0.271070  -0.016014
    21  H    0.157917  -0.000841
    22  H    0.269469  -0.000248
    23  H    0.262663  -0.000527
 Sum of Mulliken charges =  -1.00000   1.00000

 Dipole moment (field-independent basis, Debye):
    X=              0.3689    Y=              1.2107    Z=              0.0005  Tot=              1.2657
 Quadrupole moment (field-independent basis, Debye-Ang):
   XX=           -159.7493   YY=           -113.1304   ZZ=           -100.7701
   XY=             18.9757   XZ=              0.0008   YZ=              0.0011

 Summary of Natural Population Analysis:

                                       Natural Population
                Natural  -----------------------------------------------
    Atom  No    Charge         Core      Valence    Rydberg      Total
 -----------------------------------------------------------------------
      C    1    0.09847      0.99958     1.88825    0.01371     2.90153
      C    2   -0.10461      0.99945     2.09667    0.00849     3.10461
      C    3    0.08314      0.99958     1.90353    0.01374     2.91686
      N    4   -0.26564      0.99968     2.75677    0.00918     3.76564
      C    5    0.37602      0.99958     1.60786    0.01654     2.62398
      N    6   -0.25444      0.99968     2.74613    0.00863     3.75444
      N    7   -0.13019      0.99962     2.61550    0.01507     3.63019
      C    8    0.08958      0.99954     1.90072    0.01015     2.91042
      C    9   -0.14257      0.99946     2.13313    0.00998     3.14257
      C   10    0.01018      0.99963     1.97528    0.01491     2.98982
      N   11   -0.12329      0.99973     2.61273    0.01083     3.62329
      C   12    0.39996      0.99965     1.57632    0.02408     2.60004
      O   13   -0.31398      0.99987     3.30697    0.00714     4.31398
      O   14   -0.34916      0.99988     3.34342    0.00586     4.34916
      C   15    0.41489      0.99968     1.56072    0.02472     2.58511
      O   16   -0.30336      0.99987     3.29590    0.00759     4.30336
      O   17   -0.35039      0.99988     3.34453    0.00599     4.35039
      H   18    0.08989      0.00000     0.40892    0.00120     0.41011
      H   19    0.09451      0.00000     0.40433    0.00117     0.40549
      H   20    0.11581      0.00000     0.38306    0.00113     0.38419
      H   21    0.09857      0.00000     0.40044    0.00099     0.40143
      H   22    0.23376      0.00000     0.26331    0.00292     0.26624
      H   23    0.23286      0.00000     0.26404    0.00310     0.26714
 =======================================================================
   * Total *    0.00000     16.99435    42.78853    0.21712    60.00000

 Normal termination of Gaussian 16 at Fri Dec 11 12:41:26 2020.
