 Gaussian 16, Revision A.03,

 -----------------------------------------------------------
 # opt freq B3LYP/6-31G(d) empiricaldispersion=gd3bj scf=xqc
 -----------------------------------------------------------

 ------------------------------
 CID_83136993_JID_6449_neutraal
 ------------------------------
 Symbolic Z-matrix:
 Charge =  0 Multiplicity = 1

 SCF Done:  E(RB3LYP) =  -1391.29737739     A.U. after   15 cycles
 SCF Done:  E(RB3LYP) =  -1391.30216226     A.U. after   13 cycles
 SCF Done:  E(RB3LYP) =  -1391.30289054     A.U. after   12 cycles
 SCF Done:  E(RB3LYP) =  -1391.30340678     A.U. after   12 cycles
 SCF Done:  E(RB3LYP) =  -1391.30389408     A.U. after   12 cycles
 SCF Done:  E(RB3LYP) =  -1391.30434542     A.U. after   13 cycles
 SCF Done:  E(RB3LYP) =  -1391.30451130     A.U. after   12 cycles
 SCF Done:  E(RB3LYP) =  -1391.30487246     A.U. after   14 cycles
 SCF Done:  E(RB3LYP) =  -1391.30323104     A.U. after   15 cycles
 SCF Done:  E(RB3LYP) =  -1391.30503134     A.U. after   12 cycles
 SCF Done:  E(RB3LYP) =  -1391.30523027     A.U. after    7 cycles
 SCF Done:  E(RB3LYP) =  -1391.30523029     A.U. after    7 cycles
 SCF Done:  E(RB3LYP) =  -1391.30523030     A.U. after    7 cycles
 SCF Done:  E(RB3LYP) =  -1391.30523031     A.U. after    7 cycles
 SCF Done:  E(RB3LYP) =  -1391.30523032     A.U. after    7 cycles
 SCF Done:  E(RB3LYP) =  -1391.30523032     A.U. after    7 cycles
 Optimization completed.
    -- Stationary point found.
 Normal termination of Gaussian 16 at Thu Dec 10 23:06:00 2020.

 --------------------------------------------------------------------
 #N Geom=AllCheck Guess=TCheck SCRF=Check GenChk RB3LYP/6-31G(d) Freq
 --------------------------------------------------------------------

 Structure from the checkpoint file:  "JID_6449.chk"
 ------------------------------
 CID_83136993_JID_6449_neutraal
 ------------------------------
 Charge =  0 Multiplicity = 1

 SCF Done:  E(RB3LYP) =  -1391.30523032     A.U. after    1 cycles

  Exact polarizability: 187.824  -7.607 148.565  -4.718  -4.053 149.775
 Approx polarizability: 248.470 -20.656 222.144 -12.084 -17.112 277.561

                      1                      2                      3
                      A                      A                      A
 Frequencies --     11.4882                26.0952                35.0940
 Red. masses --      3.8292                 5.0810                 5.1235
 Frc consts  --      0.0003                 0.0020                 0.0037
 IR Inten    --      0.6782                 0.6653                 0.9061

                      4                      5                      6
                      A                      A                      A
 Frequencies --     66.2547                73.4354               106.4653
 Red. masses --      4.5689                 4.8182                 2.3658
 Frc consts  --      0.0118                 0.0153                 0.0158
 IR Inten    --      1.3326                 0.9890                 0.1353

                      7                      8                      9
                      A                      A                      A
 Frequencies --    137.0892               160.3752               197.1724
 Red. masses --      3.2946                 4.8016                 3.6206
 Frc consts  --      0.0365                 0.0728                 0.0829
 IR Inten    --      0.9556                 0.6059                 1.7573

                     10                     11                     12
                      A                      A                      A
 Frequencies --    229.1404               243.1578               255.9041
 Red. masses --      2.2135                 1.3759                 2.3984
 Frc consts  --      0.0685                 0.0479                 0.0925
 IR Inten    --      2.0911                 1.5570                12.5685

                     13                     14                     15
                      A                      A                      A
 Frequencies --    271.1705               284.4602               303.9915
 Red. masses --      2.2751                 1.6365                 1.9664
 Frc consts  --      0.0986                 0.0780                 0.1071
 IR Inten    --      2.3218                17.6454                20.5465

                     16                     17                     18
                      A                      A                      A
 Frequencies --    327.8320               345.8794               364.2673
 Red. masses --      3.4049                 3.1909                 2.6306
 Frc consts  --      0.2156                 0.2249                 0.2057
 IR Inten    --      7.2243                 4.4706                 1.9133

                     19                     20                     21
                      A                      A                      A
 Frequencies --    428.0284               433.1924               469.9263
 Red. masses --      2.9238                 2.8748                 2.4576
 Frc consts  --      0.3156                 0.3178                 0.3198
 IR Inten    --      3.1578                 0.2730                 1.1459

                     22                     23                     24
                      A                      A                      A
 Frequencies --    487.1051               549.6285               578.3938
 Red. masses --      3.9976                 3.9495                 5.8270
 Frc consts  --      0.5588                 0.7030                 1.1485
 IR Inten    --      4.7824                 3.3496                 0.4385

                     25                     26                     27
                      A                      A                      A
 Frequencies --    628.9091               654.8734               657.9133
 Red. masses --      5.3758                 4.6605                 6.7167
 Frc consts  --      1.2528                 1.1776                 1.7129
 IR Inten    --      7.1350                 3.8845                 2.4745

                     28                     29                     30
                      A                      A                      A
 Frequencies --    690.0035               701.4116               718.5058
 Red. masses --      4.1106                 4.6564                 2.9819
 Frc consts  --      1.1531                 1.3497                 0.9070
 IR Inten    --      0.6409                 4.3515                 1.9907

                     31                     32                     33
                      A                      A                      A
 Frequencies --    769.3115               806.4348               823.2798
 Red. masses --      5.7736                 1.5982                 2.2352
 Frc consts  --      2.0133                 0.6124                 0.8926
 IR Inten    --      2.4621                 0.1499                 1.3574

                     34                     35                     36
                      A                      A                      A
 Frequencies --    834.1761               883.0567               903.0378
 Red. masses --      1.4206                 1.9878                 1.9678
 Frc consts  --      0.5824                 0.9133                 0.9455
 IR Inten    --      6.5834                 8.6750                 1.7216

                     37                     38                     39
                      A                      A                      A
 Frequencies --    928.0834               941.3807               954.7145
 Red. masses --      1.4249                 2.1212                 1.9397
 Frc consts  --      0.7231                 1.1075                 1.0417
 IR Inten    --      1.4680                 8.4111               285.4050

                     40                     41                     42
                      A                      A                      A
 Frequencies --   1015.9276              1022.2334              1042.0617
 Red. masses --      2.3172                 2.3118                 2.5138
 Frc consts  --      1.4091                 1.4233                 1.6083
 IR Inten    --      3.5425                 2.4588                 1.0223

                     43                     44                     45
                      A                      A                      A
 Frequencies --   1048.4888              1061.5018              1081.2036
 Red. masses --      2.1622                 1.3969                 2.2925
 Frc consts  --      1.4005                 0.9273                 1.5790
 IR Inten    --      5.6981                 6.6811                 9.7911

                     46                     47                     48
                      A                      A                      A
 Frequencies --   1088.6837              1105.9842              1109.7046
 Red. masses --      1.9359                 1.9127                 3.1979
 Frc consts  --      1.3519                 1.3784                 2.3203
 IR Inten    --      1.0276                23.0535                28.0437

                     49                     50                     51
                      A                      A                      A
 Frequencies --   1129.1608              1148.9607              1155.8060
 Red. masses --      1.4052                 2.4880                 2.4429
 Frc consts  --      1.0556                 1.9351                 1.9228
 IR Inten    --     12.1736                30.6538                 4.3356

                     52                     53                     54
                      A                      A                      A
 Frequencies --   1178.8722              1219.4170              1232.4199
 Red. masses --      1.9509                 1.2464                 1.5385
 Frc consts  --      1.5974                 1.0920                 1.3768
 IR Inten    --     15.9941                 3.6977                 7.7122

                     55                     56                     57
                      A                      A                      A
 Frequencies --   1256.6962              1289.0557              1292.8407
 Red. masses --      1.5630                 1.2910                 1.3183
 Frc consts  --      1.4544                 1.2639                 1.2982
 IR Inten    --      5.2556                 2.5818                 8.4645

                     58                     59                     60
                      A                      A                      A
 Frequencies --   1301.6371              1312.2745              1323.0482
 Red. masses --      1.2729                 1.3327                 1.2546
 Frc consts  --      1.2706                 1.3522                 1.2939
 IR Inten    --      1.8936                 3.3537                19.3935

                     61                     62                     63
                      A                      A                      A
 Frequencies --   1358.6068              1362.4214              1371.3844
 Red. masses --      1.2731                 1.2872                 1.4358
 Frc consts  --      1.3845                 1.4077                 1.5909
 IR Inten    --      7.9655                 5.4071                 8.5896

                     64                     65                     66
                      A                      A                      A
 Frequencies --   1383.6768              1386.2956              1416.8031
 Red. masses --      1.3767                 1.4050                 1.4625
 Frc consts  --      1.5529                 1.5909                 1.7297
 IR Inten    --      3.3539                 1.5845                 1.5671

                     67                     68                     69
                      A                      A                      A
 Frequencies --   1426.1562              1430.1692              1445.8197
 Red. masses --      1.3531                 1.4853                 1.2441
 Frc consts  --      1.6215                 1.7899                 1.5323
 IR Inten    --     18.5648                 1.5400                 2.4987

                     70                     71                     72
                      A                      A                      A
 Frequencies --   1495.7026              1499.6949              1503.1382
 Red. masses --      1.0936                 1.1120                 1.0998
 Frc consts  --      1.4414                 1.4735                 1.4641
 IR Inten    --      1.5340                 7.0036                 5.8435

                     73                     74                     75
                      A                      A                      A
 Frequencies --   1503.6692              1511.5969              1517.6077
 Red. masses --      1.1036                 1.6693                 1.1057
 Frc consts  --      1.4702                 2.2472                 1.5003
 IR Inten    --      8.9217                14.1589                 3.2540

                     76                     77                     78
                      A                      A                      A
 Frequencies --   1519.7793              1529.9414              1532.6884
 Red. masses --      2.1255                 1.1350                 3.1941
 Frc consts  --      2.8924                 1.5654                 4.4208
 IR Inten    --      4.7763                 4.3344                 4.4313

                     79                     80                     81
                      A                      A                      A
 Frequencies --   1536.5760              1707.4960              3005.3859
 Red. masses --      1.1404                 1.0871                 1.0828
 Frc consts  --      1.5864                 1.8674                 5.7623
 IR Inten    --      6.3642                26.1855                27.8614

                     82                     83                     84
                      A                      A                      A
 Frequencies --   3024.6636              3044.0793              3047.8933
 Red. masses --      1.0672                 1.0655                 1.0431
 Frc consts  --      5.7524                 5.8171                 5.7094
 IR Inten    --     32.2335                24.7601                 9.6999

                     85                     86                     87
                      A                      A                      A
 Frequencies --   3050.4441              3051.1153              3052.1195
 Red. masses --      1.0643                 1.0653                 1.0655
 Frc consts  --      5.8352                 5.8430                 5.8482
 IR Inten    --     16.8868                23.0256                29.8858

                     88                     89                     90
                      A                      A                      A
 Frequencies --   3061.9584              3062.6236              3093.6512
 Red. masses --      1.0617                 1.0774                 1.0942
 Frc consts  --      5.8650                 5.9539                 6.1698
 IR Inten    --     27.3952                26.8852                20.2805

                     91                     92                     93
                      A                      A                      A
 Frequencies --   3097.6938              3100.1711              3111.2417
 Red. masses --      1.1001                 1.0965                 1.1026
 Frc consts  --      6.2193                 6.2090                 6.2883
 IR Inten    --      4.1717                30.0155                10.2234

                     94                     95                     96
                      A                      A                      A
 Frequencies --   3116.6209              3118.3707              3119.7631
 Red. masses --      1.1015                 1.1011                 1.1005
 Frc consts  --      6.3037                 6.3084                 6.3106
 IR Inten    --     35.3397                18.4003                12.6273

                     97                     98                     99
                      A                      A                      A
 Frequencies --   3127.8528              3460.5592              3541.4906
 Red. masses --      1.1021                 1.0501                 1.0914
 Frc consts  --      6.3528                 7.4095                 8.0652
 IR Inten    --     49.9288                 0.8196                 1.1535

 - Thermochemistry -
 -------------------
 Temperature   298.150 Kelvin.  Pressure   1.00000 Atm.
 Atom     1 has atomic number  6 and mass  12.00000

 Molecular mass:   257.10204 amu.
 Principal axes and moments of inertia in atomic units:
                           1         2         3
     Eigenvalues --  2387.004938020.283688872.03041
           X            0.99969  -0.02494  -0.00274
           Y            0.02492   0.99966  -0.00705
           Z            0.00292   0.00697   0.99997
 This molecule is an asymmetric top.
 Rotational symmetry number  1.
 Warning -- assumption of classical behavior for rotation
           may cause significant error
 Rotational temperatures (Kelvin)      0.03629     0.01080     0.00976
 Rotational constants (GHZ):           0.75607     0.22502     0.20342
 Zero-point vibrational energy     786087.3 (Joules/Mol)
                                  187.87938 (Kcal/Mol)
 Warning -- explicit consideration of  24 degrees of freedom as
           vibrations may cause significant error
 Vibrational temperatures:     16.53    37.55    50.49    95.33   105.66
          (Kelvin)            153.18   197.24   230.74   283.69   329.68
                              349.85   368.19   390.15   409.27   437.38
                              471.68   497.64   524.10   615.84   623.27
                              676.12   700.84   790.79   832.18   904.86
                              942.22   946.59   992.76  1009.17  1033.77
                             1106.87  1160.28  1184.52  1200.19  1270.52
                             1299.27  1335.31  1354.44  1373.62  1461.69
                             1470.77  1499.29  1508.54  1527.26  1555.61
                             1566.37  1591.26  1596.62  1624.61  1653.10
                             1662.95  1696.13  1754.47  1773.18  1808.11
                             1854.66  1860.11  1872.77  1888.07  1903.57
                             1954.73  1960.22  1973.12  1990.80  1994.57
                             2038.46  2051.92  2057.69  2080.21  2151.98
                             2157.73  2162.68  2163.44  2174.85  2183.50
                             2186.62  2201.24  2205.20  2210.79  2456.71
                             4324.08  4351.82  4379.75  4385.24  4388.91
                             4389.87  4391.32  4405.48  4406.43  4451.07
                             4456.89  4460.45  4476.38  4484.12  4486.64
                             4488.64  4500.28  4978.97  5095.42

 Zero-point correction=                           0.299405 (Hartree/Particle)
 Thermal correction to Energy=                    0.316235
 Thermal correction to Enthalpy=                  0.317179
 Thermal correction to Gibbs Free Energy=         0.252071
 Sum of electronic and zero-point Energies=          -1391.005825
 Sum of electronic and thermal Energies=             -1390.988995
 Sum of electronic and thermal Enthalpies=           -1390.988051
 Sum of electronic and thermal Free Energies=        -1391.053159

                     E (Thermal)             CV                S
                      KCal/Mol        Cal/Mol-Kelvin    Cal/Mol-Kelvin
 Total                  198.440             63.182            137.032
 Electronic               0.000              0.000              0.000
 Translational            0.889              2.981             42.533
 Rotational               0.889              2.981             33.496
 Vibrational            196.663             57.220             61.003
 Vibration     1          0.593              1.987              7.735
 Vibration     2          0.593              1.985              6.106
 Vibration     3          0.594              1.982              5.518
 Vibration     4          0.598              1.970              4.262
 Vibration     5          0.599              1.967              4.059
 Vibration     6          0.605              1.944              3.332
 Vibration     7          0.614              1.916              2.844
 Vibration     8          0.622              1.891              2.545
 Vibration     9          0.637              1.844              2.159
 Vibration    10          0.652              1.797              1.886
 Vibration    11          0.659              1.774              1.780
 Vibration    12          0.666              1.753              1.690
 Vibration    13          0.675              1.726              1.589
 Vibration    14          0.683              1.702              1.507
 Vibration    15          0.695              1.666              1.395
 Vibration    16          0.711              1.620              1.271
 Vibration    17          0.724              1.584              1.185
 Vibration    18          0.738              1.546              1.104
 Vibration    19          0.790              1.409              0.865
 Vibration    20          0.794              1.398              0.848
 Vibration    21          0.827              1.317              0.738
 Vibration    22          0.843              1.279              0.691
 Vibration    23          0.905              1.140              0.545
 Vibration    24          0.935              1.078              0.488

 Optimization completed.
    -- Stationary point found.
 Normal termination of Gaussian 16 at Thu Dec 10 23:19:10 2020.

 ----------------------------------------------------------------------
 # B3LYP/6-311++G(d,p) empiricaldispersion=gd3bj scf=xqc pop=npa geom=c
 heck
 ----------------------------------------------------------------------

 --------------------------------------
 CID_83136993_JID_6449_Energie_neutraal
 --------------------------------------
 Structure from the checkpoint file:  "JID_6449.chk"
 Charge =  0 Multiplicity = 1

 SCF Done:  E(RB3LYP) =  -1391.52402540     A.U. after   17 cycles
 Normal termination of Gaussian 16 at Thu Dec 10 23:27:20 2020.

 ----------------------------------------------------------------------
 # B3LYP/6-311++G(d,p) empiricaldispersion=gd3bj scf=xqc pop=npa geom=c
 heck
 ----------------------------------------------------------------------

 ------------------------------------
 CID_83136993_JID_6449_Energie_kation
 ------------------------------------
 Structure from the checkpoint file:  "JID_6449.chk"
 Charge =  1 Multiplicity = 2

 SCF Done:  E(UB3LYP) =  -1391.22763910     A.U. after   28 cycles
 Normal termination of Gaussian 16 at Thu Dec 10 23:46:17 2020.
 Gaussian 16:  ES64L-G16RevA.03 25-Dec-2016

 ----------------------------------------------------------------------
 # B3LYP/6-311++G(d,p) empiricaldispersion=gd3bj scf=xqc pop=npa geom=c
 heck
 ----------------------------------------------------------------------

 -----------------------------------
 CID_83136993_JID_6449_Energie_anion
 -----------------------------------
 Structure from the checkpoint file:  "JID_6449.chk"
 Charge = -1 Multiplicity = 2

                         Standard orientation:
 ---------------------------------------------------------------------
 Center     Atomic      Atomic             Coordinates (Angstroms)
 Number     Number       Type             X           Y           Z
 ---------------------------------------------------------------------
      1          6           0       -2.348641    2.663018   -0.226055
      2          6           0       -3.496489    1.864988    0.394272
      3          6           0       -3.685945    0.456085   -0.199372
      4          6           0       -2.427153   -0.370997   -0.015431
      5          7           0       -2.110568   -0.922238    1.121297
      6          7           0       -0.920089   -1.598443    1.092028
      7          6           0       -0.328696   -1.559301   -0.069809
      8         16           0       -1.238429   -0.656299   -1.271656
      9          6           0        1.007091   -2.187251   -0.328869
     10          6           0        2.212678   -1.226392   -0.176861
     11          6           0        2.258643   -0.598981    1.225339
     12          6           0        3.528661    0.216730    1.469593
     13         16           0        3.697932    1.629695    0.312626
     14          6           0        3.535876    0.678476   -1.245650
     15          6           0        2.260405   -0.165116   -1.287746
     16          7           0       -4.865687   -0.163996    0.407605
     17          1           0       -1.376318    2.201270   -0.024483
     18          1           0       -2.322414    3.678990    0.181015
     19          1           0       -2.461103    2.743835   -1.314415
     20          1           0       -3.333681    1.756926    1.474347
     21          1           0       -4.447905    2.391476    0.262590
     22          1           0       -3.878464    0.557818   -1.274286
     23          1           0        1.110064   -3.002615    0.394479
     24          1           0        1.023132   -2.629672   -1.331784
     25          1           0        3.107135   -1.858307   -0.291012
     26          1           0        1.381898    0.041083    1.372651
     27          1           0        2.195286   -1.394579    1.979712
     28          1           0        3.523939    0.652828    2.472829
     29          1           0        4.419700   -0.418268    1.388974
     30          1           0        4.422399    0.044972   -1.373834
     31          1           0        3.540135    1.419551   -2.050388
     32          1           0        2.198053   -0.662129   -2.266888
     33          1           0        1.394185    0.501084   -1.207802
     34          1           0       -5.021349   -1.078001   -0.016737
     35          1           0       -4.650917   -0.355427    1.386534
 ---------------------------------------------------------------------

 SCF Done:  E(UB3LYP) =  -1391.52175214     A.U. after   32 cycles

 The electronic state is 2-A.
 Alpha  occ. eigenvalues --  -88.75215 -88.73634 -14.20703 -14.20320 -14.19875
 Alpha  occ. eigenvalues --  -10.11185 -10.09808 -10.09733 -10.09655 -10.09620
 Alpha  occ. eigenvalues --  -10.07294 -10.07055 -10.06764 -10.06572 -10.06509
 Alpha  occ. eigenvalues --  -10.06338  -7.83904  -7.82270  -5.80151  -5.79841
 Alpha  occ. eigenvalues --   -5.79534  -5.78645  -5.78317  -5.77642  -0.89462
 Alpha  occ. eigenvalues --   -0.79909  -0.74261  -0.70810  -0.68793  -0.66727
 Alpha  occ. eigenvalues --   -0.65813  -0.65601  -0.58749  -0.57447  -0.52166
 Alpha  occ. eigenvalues --   -0.50989  -0.50486  -0.47022  -0.45144  -0.41536
 Alpha  occ. eigenvalues --   -0.39555  -0.37349  -0.36348  -0.35547  -0.35461
 Alpha  occ. eigenvalues --   -0.34672  -0.33611  -0.33085  -0.32194  -0.30170
 Alpha  occ. eigenvalues --   -0.29690  -0.29567  -0.28788  -0.28200  -0.26626
 Alpha  occ. eigenvalues --   -0.26226  -0.25364  -0.24961  -0.24349  -0.24224
 Alpha  occ. eigenvalues --   -0.22234  -0.20751  -0.20187  -0.17614  -0.16683
 Alpha  occ. eigenvalues --   -0.16057  -0.14041  -0.13589  -0.12529   0.04377
 Alpha virt. eigenvalues --    0.06981   0.07261   0.07850   0.08270   0.08912
 Alpha virt. eigenvalues --    0.09128   0.09218   0.10161   0.10752   0.11318
 Alpha virt. eigenvalues --    0.11423   0.12018   0.12148   0.12467   0.12930

  Beta  occ. eigenvalues --  -88.75178 -88.73634 -14.20704 -14.20283 -14.19853
  Beta  occ. eigenvalues --  -10.11205 -10.09797 -10.09715 -10.09348 -10.09309
  Beta  occ. eigenvalues --  -10.07273 -10.07010 -10.06761 -10.06581 -10.06500
  Beta  occ. eigenvalues --  -10.06334  -7.83870  -7.82269  -5.80140  -5.79831
  Beta  occ. eigenvalues --   -5.79401  -5.78645  -5.78316  -5.77642  -0.89255
  Beta  occ. eigenvalues --   -0.79833  -0.74201  -0.70539  -0.68611  -0.66601
  Beta  occ. eigenvalues --   -0.65705  -0.65573  -0.58657  -0.57411  -0.52124
  Beta  occ. eigenvalues --   -0.50860  -0.50395  -0.46823  -0.45029  -0.41313
  Beta  occ. eigenvalues --   -0.39498  -0.37246  -0.36196  -0.35486  -0.35400
  Beta  occ. eigenvalues --   -0.34581  -0.33495  -0.32943  -0.32084  -0.30050
  Beta  occ. eigenvalues --   -0.29545  -0.29188  -0.28706  -0.28020  -0.26570
  Beta  occ. eigenvalues --   -0.26176  -0.25218  -0.24882  -0.24301  -0.24143
  Beta  occ. eigenvalues --   -0.22136  -0.20708  -0.20126  -0.17523  -0.16012
  Beta  occ. eigenvalues --   -0.15807  -0.13682  -0.12834  -0.12496
  Beta virt. eigenvalues --    0.06928   0.07390   0.07967   0.08207   0.08742
  Beta virt. eigenvalues --    0.09042   0.09581   0.10050   0.10559   0.10804
  Beta virt. eigenvalues --    0.11427   0.11523   0.12076   0.12226   0.12701

 Mulliken charges and spin densities:
               1          2
     1  C   -0.536025  -0.109857
     2  C   -0.102888   0.122633
     3  C   -0.174516  -0.185829
     4  C   -0.379154   0.265101
     5  N   -0.026345  -0.025830
     6  N    0.015301   0.036973
     7  C   -0.378165   0.116859
     8  S    0.020532   0.058411
     9  C    0.299382  -0.642073
    10  C    0.677408  -0.084194
    11  C   -0.309876   0.024826
    12  C   -0.500898  -0.401472
    13  S    0.083590   0.010770
    14  C   -0.124757  -0.638590
    15  C   -0.159403  -0.099527
    16  N   -0.201451   0.009034
    17  H    0.159101  -0.012752
    18  H    0.098386   0.036706
    19  H    0.104894   0.017197
    20  H    0.130585   0.003086
    21  H    0.131784   0.026811
    22  H    0.105882   0.093238
    23  H    0.025384   0.158527
    24  H   -0.372065   0.565537
    25  H   -0.515349   0.739118
    26  H    0.180640   0.004283
    27  H    0.126175   0.055180
    28  H    0.170949   0.022421
    29  H    0.007662   0.179512
    30  H   -0.040526   0.231318
    31  H    0.075648   0.124758
    32  H   -0.206545   0.383853
    33  H    0.152164  -0.089183
    34  H    0.218197   0.002751
    35  H    0.244301   0.000404
 Sum of Mulliken charges =  -1.00000   1.00000

 Dipole moment (field-independent basis, Debye):
    X=             -2.3320    Y=              4.1916    Z=              0.6339  Tot=              4.8383
 Quadrupole moment (field-independent basis, Debye-Ang):
   XX=           -184.1349   YY=           -149.4145   ZZ=           -138.4995
   XY=              7.3707   XZ=              9.3258   YZ=             -3.4531

 Summary of Natural Population Analysis:

                                       Natural Population
                Natural  -----------------------------------------------
    Atom  No    Charge         Core      Valence    Rydberg      Total
 -----------------------------------------------------------------------
      C    1   -0.28847      0.99967     2.28409    0.00471     3.28847
      C    2   -0.18424      0.99962     2.17637    0.00825     3.18424
      C    3   -0.03419      0.99954     2.02206    0.01259     3.03419
      C    4    0.06087      0.99959     1.91957    0.01998     2.93913
      N    5   -0.17145      0.99961     2.65703    0.01481     3.67145
      N    6   -0.15911      0.99962     2.64502    0.01447     3.65911
      C    7    0.07630      0.99960     1.90533    0.01876     2.92370
      S    8    0.17240      4.99939     2.81003    0.01817     7.82760
      C    9   -0.21212      0.99956     2.19955    0.01300     3.21212
      C   10   -0.10552      0.99958     2.09133    0.01462     3.10552
      C   11   -0.19865      0.99960     2.18857    0.01049     3.19865
      C   12   -0.24608      0.99959     2.23615    0.01034     3.24608
      S   13    0.07600      4.99963     2.90666    0.01770     7.92400
      C   14   -0.24623      0.99959     2.23564    0.01100     3.24623
      C   15   -0.20060      0.99959     2.19026    0.01075     3.20060
      N   16   -0.41427      0.99978     2.90602    0.00848     3.91427
      H   17    0.10511      0.00000     0.39377    0.00113     0.39489
      H   18    0.09545      0.00000     0.40349    0.00106     0.40455
      H   19    0.09439      0.00000     0.40458    0.00104     0.40561
      H   20    0.09799      0.00000     0.40086    0.00115     0.40201
      H   21    0.09585      0.00000     0.40233    0.00182     0.40415
      H   22    0.09211      0.00000     0.40613    0.00176     0.40789
      H   23    0.11349      0.00000     0.38491    0.00161     0.38651
      H   24    0.10985      0.00000     0.38797    0.00217     0.39015
      H   25    0.09818      0.00000     0.39686    0.00496     0.40182
      H   26    0.10594      0.00000     0.39263    0.00143     0.39406
      H   27    0.10404      0.00000     0.39490    0.00106     0.39596
      H   28    0.10328      0.00000     0.39599    0.00073     0.39672
      H   29    0.09818      0.00000     0.40042    0.00140     0.40182
      H   30    0.09961      0.00000     0.39876    0.00163     0.40039
      H   31    0.10392      0.00000     0.39531    0.00077     0.39608
      H   32    0.10318      0.00000     0.39531    0.00150     0.39682
      H   33    0.10317      0.00000     0.39491    0.00192     0.39683
      H   34    0.17320      0.00000     0.32509    0.00171     0.32680
      H   35    0.17842      0.00000     0.31972    0.00187     0.32158
 =======================================================================
   * Total *   -0.00000     23.99356    44.76761    0.23883    69.00000

 Normal termination of Gaussian 16 at Fri Dec 11 00:07:52 2020.
