 Gaussian 16, Revision A.03,

 -----------------------------------------------------------
 # opt freq B3LYP/6-31G(d) empiricaldispersion=gd3bj scf=xqc
 -----------------------------------------------------------

 ------------------------------
 CID_66379952_JID_6315_neutraal
 ------------------------------
 Symbolic Z-matrix:
 Charge =  0 Multiplicity = 1

 SCF Done:  E(RB3LYP) =  -1117.80000510     A.U. after   15 cycles
 SCF Done:  E(RB3LYP) =  -1117.80841433     A.U. after   12 cycles
 SCF Done:  E(RB3LYP) =  -1117.80921959     A.U. after   11 cycles
 SCF Done:  E(RB3LYP) =  -1117.80940333     A.U. after   11 cycles
 SCF Done:  E(RB3LYP) =  -1117.80956854     A.U. after   11 cycles
 SCF Done:  E(RB3LYP) =  -1117.80973042     A.U. after   11 cycles
 SCF Done:  E(RB3LYP) =  -1117.80993352     A.U. after   12 cycles
 SCF Done:  E(RB3LYP) =  -1117.80990072     A.U. after   11 cycles
 SCF Done:  E(RB3LYP) =  -1117.81032662     A.U. after   12 cycles
 SCF Done:  E(RB3LYP) =  -1117.81181286     A.U. after   15 cycles
 SCF Done:  E(RB3LYP) =  -1117.81318142     A.U. after   10 cycles
 SCF Done:  E(RB3LYP) =  -1117.81318532     A.U. after   10 cycles
 SCF Done:  E(RB3LYP) =  -1117.81318637     A.U. after    9 cycles
 SCF Done:  E(RB3LYP) =  -1117.81318699     A.U. after    9 cycles
 SCF Done:  E(RB3LYP) =  -1117.81318731     A.U. after    8 cycles
 SCF Done:  E(RB3LYP) =  -1117.81318736     A.U. after    7 cycles
 Optimization completed.
    -- Stationary point found.
 Normal termination of Gaussian 16 at Thu Dec 10 22:11:02 2020.

 --------------------------------------------------------------------
 #N Geom=AllCheck Guess=TCheck SCRF=Check GenChk RB3LYP/6-31G(d) Freq
 --------------------------------------------------------------------

 Structure from the checkpoint file:  "JID_6315.chk"
 ------------------------------
 CID_66379952_JID_6315_neutraal
 ------------------------------
 Charge =  0 Multiplicity = 1

 SCF Done:  E(RB3LYP) =  -1117.81318736     A.U. after    1 cycles

  Exact polarizability: 214.175   1.695 128.152  11.024  -9.971  94.815
 Approx polarizability: 283.295 -11.582 233.650  26.345 -30.711 146.307

                      1                      2                      3
                      A                      A                      A
 Frequencies --     19.6067                32.6807                47.5707
 Red. masses --      3.8626                 5.0567                 3.4430
 Frc consts  --      0.0009                 0.0032                 0.0046
 IR Inten    --      0.5457                 0.1088                 2.2512

                      4                      5                      6
                      A                      A                      A
 Frequencies --     61.0248                79.7789                88.3969
 Red. masses --      4.9713                 5.0648                 4.0270
 Frc consts  --      0.0109                 0.0190                 0.0185
 IR Inten    --      1.1207                 1.2514                 0.7016

                      7                      8                      9
                      A                      A                      A
 Frequencies --    124.5255               162.7921               184.3852
 Red. masses --      3.0964                 4.3786                 2.9942
 Frc consts  --      0.0283                 0.0684                 0.0600
 IR Inten    --      1.9497                 0.4267                 8.9471

                     10                     11                     12
                      A                      A                      A
 Frequencies --    232.5636               240.5542               279.0156
 Red. masses --      2.3401                 2.9412                 1.6650
 Frc consts  --      0.0746                 0.1003                 0.0764
 IR Inten    --     30.0344                 1.3625                12.7427

                     13                     14                     15
                      A                      A                      A
 Frequencies --    298.2202               319.8927               335.4185
 Red. masses --      3.2773                 1.8787                 2.4271
 Frc consts  --      0.1717                 0.1133                 0.1609
 IR Inten    --      8.5229                24.3151                 0.7444

                     16                     17                     18
                      A                      A                      A
 Frequencies --    349.3724               426.4110               443.3091
 Red. masses --      4.9479                 5.0079                 4.0285
 Frc consts  --      0.3558                 0.5365                 0.4665
 IR Inten    --     11.5544                 4.0277                 7.4096

                     19                     20                     21
                      A                      A                      A
 Frequencies --    495.3139               506.1340               534.9409
 Red. masses --      3.8262                 4.8604                 6.5574
 Frc consts  --      0.5531                 0.7336                 1.1056
 IR Inten    --      1.0106                 6.4172                 0.0805

                     22                     23                     24
                      A                      A                      A
 Frequencies --    607.7514               653.0993               668.5419
 Red. masses --      4.3259                 8.7191                 7.5921
 Frc consts  --      0.9414                 2.1912                 1.9992
 IR Inten    --      5.7958                 1.9007                 5.9744

                     25                     26                     27
                      A                      A                      A
 Frequencies --    689.5409               746.6590               796.2907
 Red. masses --      7.4349                 3.0191                 1.9306
 Frc consts  --      2.0828                 0.9917                 0.7212
 IR Inten    --     10.2412                19.3627                34.5878

                     28                     29                     30
                      A                      A                      A
 Frequencies --    809.2419               816.8539               851.3636
 Red. masses --      1.7163                 1.9831                 2.6859
 Frc consts  --      0.6622                 0.7796                 1.1470
 IR Inten    --     11.4423                 2.5412                15.6815

                     31                     32                     33
                      A                      A                      A
 Frequencies --    854.6666               865.2804               911.8339
 Red. masses --      2.4421                 1.7817                 6.2640
 Frc consts  --      1.0510                 0.7859                 3.0686
 IR Inten    --      1.8597               154.3972                 4.0093

                     34                     35                     36
                      A                      A                      A
 Frequencies --    925.3876               968.8627               998.7134
 Red. masses --     12.5862                 1.6180                 4.7244
 Frc consts  --      6.3503                 0.8949                 2.7764
 IR Inten    --     11.6757                52.1768                 4.2024

                     37                     38                     39
                      A                      A                      A
 Frequencies --   1002.3829              1030.6564              1059.8961
 Red. masses --      2.6016                 4.0778                 3.2866
 Frc consts  --      1.5401                 2.5521                 2.1753
 IR Inten    --      9.9077                 7.1166                 2.8074

                     40                     41                     42
                      A                      A                      A
 Frequencies --   1080.3930              1102.4249              1131.5274
 Red. masses --      3.4018                 2.4161                 2.4224
 Frc consts  --      2.3395                 1.7301                 1.8274
 IR Inten    --      8.0782                30.1978                27.6453

                     43                     44                     45
                      A                      A                      A
 Frequencies --   1160.0893              1177.3097              1207.7910
 Red. masses --      3.2393                 1.3140                 2.9541
 Frc consts  --      2.5685                 1.0731                 2.5390
 IR Inten    --    118.8212                11.3647                23.0267

                     46                     47                     48
                      A                      A                      A
 Frequencies --   1213.2940              1242.7199              1296.1542
 Red. masses --      1.8375                 3.0317                 1.2961
 Frc consts  --      1.5937                 2.7586                 1.2829
 IR Inten    --     36.5133                21.0957                14.8607

                     49                     50                     51
                      A                      A                      A
 Frequencies --   1328.1042              1345.4983              1376.7237
 Red. masses --      1.2681                 1.1334                 3.9205
 Frc consts  --      1.3179                 1.2089                 4.3781
 IR Inten    --     16.8850                 8.1041                71.7685

                     52                     53                     54
                      A                      A                      A
 Frequencies --   1400.1440              1416.2331              1421.6618
 Red. masses --      1.6587                 1.7554                 1.5525
 Frc consts  --      1.9158                 2.0745                 1.8487
 IR Inten    --     43.5163                52.6249                10.2137

                     55                     56                     57
                      A                      A                      A
 Frequencies --   1430.4952              1442.9956              1488.0849
 Red. masses --      1.8227                 1.3098                 7.5150
 Frc consts  --      2.1975                 1.6068                 9.8047
 IR Inten    --      5.4258                29.0396                16.1491

                     58                     59                     60
                      A                      A                      A
 Frequencies --   1511.3583              1517.7280              1521.5738
 Red. masses --      1.0731                 1.0830                 1.0517
 Frc consts  --      1.4442                 1.4699                 1.4346
 IR Inten    --      3.0961                 1.7630                 2.2085

                     61                     62                     63
                      A                      A                      A
 Frequencies --   1531.7068              1545.4263              1564.1655
 Red. masses --      1.0661                 1.0842                 7.5622
 Frc consts  --      1.4736                 1.5257                10.9009
 IR Inten    --      3.2771                 0.4644                11.6376

                     64                     65                     66
                      A                      A                      A
 Frequencies --   1590.2105              1649.4427              1699.4536
 Red. masses --     10.1769                10.8948                 1.0932
 Frc consts  --     15.1626                17.4641                 1.8602
 IR Inten    --      6.3763               169.7197                37.7798

                     67                     68                     69
                      A                      A                      A
 Frequencies --   3015.6060              3023.1286              3048.8044
 Red. masses --      1.0665                 1.0698                 1.0585
 Frc consts  --      5.7141                 5.7608                 5.7970
 IR Inten    --     31.9593                53.3340                15.8399

                     70                     71                     72
                      A                      A                      A
 Frequencies --   3057.3059              3070.7880              3105.0660
 Red. masses --      1.0423                 1.0959                 1.0953
 Frc consts  --      5.7401                 6.0886                 6.2222
 IR Inten    --     30.4334                13.3954                15.9873

                     73                     74                     75
                      A                      A                      A
 Frequencies --   3120.7353              3123.7071              3136.3906
 Red. masses --      1.0985                 1.1013                 1.1034
 Frc consts  --      6.3035                 6.3311                 6.3951
 IR Inten    --     23.9153                20.3576                44.9449

                     76                     77                     78
                      A                      A                      A
 Frequencies --   3285.9989              3492.4443              3581.8684
 Red. masses --      1.0946                 1.0504                 1.0933
 Frc consts  --      6.9637                 7.5483                 8.2644
 IR Inten    --      4.1476                 0.4726                 1.3095

 - Thermochemistry -
 -------------------
 Temperature   298.150 Kelvin.  Pressure   1.00000 Atm.
 Atom     1 has atomic number  6 and mass  12.00000

 Molecular mass:   240.06810 amu.
 Principal axes and moments of inertia in atomic units:
                           1         2         3
     Eigenvalues --  1457.612239602.88871**********
           X            0.99993   0.00923  -0.00769
           Y           -0.00919   0.99994   0.00569
           Z            0.00774  -0.00562   0.99995
 This molecule is an asymmetric top.
 Rotational symmetry number  1.
 Warning -- assumption of classical behavior for rotation
           may cause significant error
 Rotational temperatures (Kelvin)      0.05942     0.00902     0.00844
 Rotational constants (GHZ):           1.23815     0.18794     0.17584
 Zero-point vibrational energy     574048.9 (Joules/Mol)
                                  137.20098 (Kcal/Mol)
 Warning -- explicit consideration of  22 degrees of freedom as
           vibrations may cause significant error
 Vibrational temperatures:     28.21    47.02    68.44    87.80   114.78
          (Kelvin)            127.18   179.16   234.22   265.29   334.61
                              346.10   401.44   429.07   460.25   482.59
                              502.67   613.51   637.82   712.65   728.21
                              769.66   874.42   939.66   961.88   992.10
                             1074.28  1145.68  1164.32  1175.27  1224.92
                             1229.67  1244.95  1311.93  1331.43  1393.98
                             1436.93  1442.21  1482.88  1524.95  1554.44
                             1586.14  1628.02  1669.11  1693.89  1737.74
                             1745.66  1788.00  1864.88  1910.85  1935.87
                             1980.80  2014.49  2037.64  2045.45  2058.16
                             2076.15  2141.02  2174.51  2183.67  2189.21
                             2203.78  2223.52  2250.49  2287.96  2373.18
                             2445.13  4338.78  4349.61  4386.55  4398.78
                             4418.18  4467.50  4490.04  4494.32  4512.57
                             4727.82  5024.85  5153.51

 Zero-point correction=                           0.218644 (Hartree/Particle)
 Thermal correction to Energy=                    0.234138
 Thermal correction to Enthalpy=                  0.235082
 Thermal correction to Gibbs Free Energy=         0.172906
 Sum of electronic and zero-point Energies=          -1117.594544
 Sum of electronic and thermal Energies=             -1117.579050
 Sum of electronic and thermal Enthalpies=           -1117.578105
 Sum of electronic and thermal Free Energies=        -1117.640281

                     E (Thermal)             CV                S
                      KCal/Mol        Cal/Mol-Kelvin    Cal/Mol-Kelvin
 Total                  146.924             56.001            130.860
 Electronic               0.000              0.000              0.000
 Translational            0.889              2.981             42.328
 Rotational               0.889              2.981             33.329
 Vibrational            145.146             50.039             55.202
 Vibration     1          0.593              1.986              6.674
 Vibration     2          0.594              1.983              5.660
 Vibration     3          0.595              1.979              4.916
 Vibration     4          0.597              1.973              4.424
 Vibration     5          0.600              1.963              3.896
 Vibration     6          0.601              1.957              3.695
 Vibration     7          0.610              1.928              3.029
 Vibration     8          0.623              1.888              2.517
 Vibration     9          0.631              1.861              2.284
 Vibration    10          0.653              1.791              1.859
 Vibration    11          0.658              1.778              1.799
 Vibration    12          0.679              1.712              1.540
 Vibration    13          0.691              1.677              1.427
 Vibration    14          0.706              1.635              1.311
 Vibration    15          0.717              1.605              1.234
 Vibration    16          0.727              1.577              1.169
 Vibration    17          0.788              1.413              0.870
 Vibration    18          0.803              1.376              0.816
 Vibration    19          0.851              1.260              0.670
 Vibration    20          0.861              1.236              0.643
 Vibration    21          0.890              1.173              0.576
 Vibration    22          0.967              1.015              0.437

 Optimization completed.
    -- Stationary point found.
 Normal termination of Gaussian 16 at Thu Dec 10 22:18:03 2020.

 ----------------------------------------------------------------------
 # B3LYP/6-311++G(d,p) empiricaldispersion=gd3bj scf=xqc pop=npa geom=c
 heck
 ----------------------------------------------------------------------

 --------------------------------------
 CID_66379952_JID_6315_Energie_neutraal
 --------------------------------------
 Structure from the checkpoint file:  "JID_6315.chk"
 Charge =  0 Multiplicity = 1

 SCF Done:  E(RB3LYP) =  -1118.04238211     A.U. after   15 cycles
 Normal termination of Gaussian 16 at Thu Dec 10 22:20:50 2020.

 ----------------------------------------------------------------------
 # B3LYP/6-311++G(d,p) empiricaldispersion=gd3bj scf=xqc pop=npa geom=c
 heck
 ----------------------------------------------------------------------

 ------------------------------------
 CID_66379952_JID_6315_Energie_kation
 ------------------------------------
 Structure from the checkpoint file:  "JID_6315.chk"
 Charge =  1 Multiplicity = 2

 SCF Done:  E(UB3LYP) =  -1117.72846780     A.U. after   26 cycles
 Normal termination of Gaussian 16 at Thu Dec 10 22:27:27 2020.
 Gaussian 16:  ES64L-G16RevA.03 25-Dec-2016

 ----------------------------------------------------------------------
 # B3LYP/6-311++G(d,p) empiricaldispersion=gd3bj scf=xqc pop=npa geom=c
 heck
 ----------------------------------------------------------------------

 -----------------------------------
 CID_66379952_JID_6315_Energie_anion
 -----------------------------------
 Structure from the checkpoint file:  "JID_6315.chk"
 Charge = -1 Multiplicity = 2

                         Standard orientation:
 ---------------------------------------------------------------------
 Center     Atomic      Atomic             Coordinates (Angstroms)
 Number     Number       Type             X           Y           Z
 ---------------------------------------------------------------------
      1          6           0       -5.201068    0.049618    1.372475
      2          6           0       -4.105295    1.078651    1.111415
      3          8           0       -3.983703    1.467435   -0.256384
      4          6           0       -3.629364    0.430324   -1.150439
      5          6           0       -2.335568   -0.241853   -0.788250
      6          7           0       -2.297024   -1.502060   -0.426064
      7          8           0       -0.933445   -1.717077   -0.151220
      8          6           0       -0.308887   -0.538123   -0.375449
      9          7           0       -1.120202    0.405907   -0.767853
     10          6           0        1.126920   -0.487253   -0.160579
     11          6           0        1.889483   -1.547195    0.265375
     12         16           0        3.543422   -1.076078    0.412297
     13          6           0        3.076755    0.541328   -0.130136
     14          7           0        1.813369    0.692139   -0.376381
     15          6           0        4.126935    1.600881   -0.303015
     16          7           0        5.287344    1.293711    0.531302
     17          1           0       -6.152414    0.383864    0.944576
     18          1           0       -5.335053   -0.081390    2.452246
     19          1           0       -4.949629   -0.928889    0.951208
     20          1           0       -4.325868    2.013267    1.635263
     21          1           0       -3.139956    0.708526    1.487272
     22          1           0       -4.408332   -0.339505   -1.225122
     23          1           0       -3.521825    0.911667   -2.126309
     24          1           0        1.552060   -2.545442    0.504851
     25          1           0        4.454902    1.596611   -1.350198
     26          1           0        3.650008    2.576327   -0.122867
     27          1           0        6.093444    1.837510    0.235379
     28          1           0        5.101226    1.535694    1.502375
 ---------------------------------------------------------------------

 SCF Done:  E(UB3LYP) =  -1118.05503628     A.U. after   30 cycles

 The electronic state is 2-A.
 Alpha  occ. eigenvalues --  -88.73409 -19.06021 -19.02447 -14.21810 -14.20188
 Alpha  occ. eigenvalues --  -14.18021 -14.16512 -10.11983 -10.11889 -10.11528
 Alpha  occ. eigenvalues --  -10.09889 -10.09763 -10.09679 -10.07337 -10.06463
 Alpha  occ. eigenvalues --  -10.04038  -7.82046  -5.78318  -5.77967  -5.77698
 Alpha  occ. eigenvalues --   -1.01311  -0.93614  -0.83221  -0.79076  -0.78815
 Alpha  occ. eigenvalues --   -0.73170  -0.66779  -0.65826  -0.63102  -0.60452
 Alpha  occ. eigenvalues --   -0.56387  -0.52130  -0.49393  -0.46876  -0.43444
 Alpha  occ. eigenvalues --   -0.42058  -0.39654  -0.39427  -0.38824  -0.38173
 Alpha  occ. eigenvalues --   -0.35244  -0.34717  -0.33865  -0.32333  -0.31416
 Alpha  occ. eigenvalues --   -0.30686  -0.29694  -0.28592  -0.28324  -0.26365
 Alpha  occ. eigenvalues --   -0.26125  -0.25784  -0.23057  -0.21393  -0.20119
 Alpha  occ. eigenvalues --   -0.19022  -0.17376  -0.16408  -0.15723  -0.15400
 Alpha  occ. eigenvalues --   -0.14855  -0.14150  -0.10275   0.04050
 Alpha virt. eigenvalues --    0.06152   0.07137   0.09291   0.09396   0.09745
 Alpha virt. eigenvalues --    0.10204   0.10720   0.11026   0.11268   0.12181
 Alpha virt. eigenvalues --    0.12819   0.13498   0.13715   0.13945   0.14507

  Beta  occ. eigenvalues --  -88.73346 -19.05802 -19.02441 -14.21540 -14.20164
  Beta  occ. eigenvalues --  -14.18069 -14.16459 -10.11983 -10.11890 -10.11266
  Beta  occ. eigenvalues --  -10.09887 -10.09764 -10.09603 -10.07336 -10.06470
  Beta  occ. eigenvalues --  -10.03486  -7.81988  -5.78290  -5.77943  -5.77483
  Beta  occ. eigenvalues --   -1.00935  -0.93602  -0.83134  -0.78920  -0.78681
  Beta  occ. eigenvalues --   -0.72756  -0.66761  -0.65320  -0.62865  -0.60388
  Beta  occ. eigenvalues --   -0.56153  -0.52074  -0.48726  -0.46705  -0.43122
  Beta  occ. eigenvalues --   -0.41947  -0.39607  -0.39365  -0.38732  -0.38015
  Beta  occ. eigenvalues --   -0.35087  -0.33911  -0.33719  -0.32174  -0.31286
  Beta  occ. eigenvalues --   -0.30612  -0.29552  -0.28533  -0.28136  -0.26290
  Beta  occ. eigenvalues --   -0.25707  -0.25488  -0.22647  -0.21374  -0.19771
  Beta  occ. eigenvalues --   -0.18183  -0.16357  -0.16162  -0.15574  -0.15151
  Beta  occ. eigenvalues --   -0.14126  -0.13859  -0.08629
  Beta virt. eigenvalues --    0.06519   0.07124   0.09218   0.09474   0.09707
  Beta virt. eigenvalues --    0.10152   0.10260   0.10803   0.11077   0.11863
  Beta virt. eigenvalues --    0.12264   0.13054   0.13483   0.13781   0.14245

 Mulliken charges and spin densities:
               1          2
     1  C   -0.419298  -0.000247
     2  C   -0.257676  -0.002473
     3  O   -0.080922   0.006954
     4  C   -0.479616  -0.013691
     5  C    0.906945   0.018614
     6  N   -0.382649   0.127745
     7  O    0.179313   0.047426
     8  C   -0.880204   0.157443
     9  N   -0.021741   0.021117
    10  C   -1.686333  -0.009892
    11  C    0.747380   0.437466
    12  S   -0.594616   0.062657
    13  C    0.285152   0.233612
    14  N    0.082325  -0.010663
    15  C    0.355534  -0.532423
    16  N   -0.367553  -0.011254
    17  H    0.134590   0.000254
    18  H    0.111682  -0.000282
    19  H    0.167447   0.002101
    20  H    0.154930  -0.002226
    21  H    0.178451   0.001844
    22  H    0.157912   0.002551
    23  H    0.161220  -0.001371
    24  H    0.272203  -0.027063
    25  H   -0.032249   0.218779
    26  H    0.114614   0.033980
    27  H    0.027654   0.194160
    28  H    0.165504   0.044887
 Sum of Mulliken charges =  -1.00000   1.00000

 Dipole moment (field-independent basis, Debye):
    X=             -3.4228    Y=              0.9913    Z=              2.0115  Tot=              4.0920
 Quadrupole moment (field-independent basis, Debye-Ang):
   XX=           -158.1473   YY=           -122.4712   ZZ=           -107.3714
   XY=              2.4467   XZ=             -0.8455   YZ=              3.3223

 Summary of Natural Population Analysis:

                                       Natural Population
                Natural  -----------------------------------------------
    Atom  No    Charge         Core      Valence    Rydberg      Total
 -----------------------------------------------------------------------
      C    1   -0.30563      0.99967     2.30198    0.00398     3.30563
      C    2   -0.01244      0.99960     2.00179    0.01105     3.01244
      O    3   -0.29828      0.99989     3.28672    0.01167     4.29828
      C    4   -0.02754      0.99953     2.01573    0.01229     3.02754
      C    5    0.13701      0.99965     1.84327    0.02007     2.86299
      N    6   -0.07174      0.99966     2.55989    0.01219     3.57174
      O    7   -0.15915      0.99986     3.14880    0.01049     4.15915
      C    8    0.32025      0.99947     1.66168    0.01860     2.67975
      N    9   -0.26451      0.99967     2.75457    0.01028     3.76451
      C   10   -0.00387      0.99946     1.98687    0.01755     3.00387
      C   11   -0.07879      0.99951     2.06875    0.01052     3.07879
      S   12    0.19863      4.99945     2.77771    0.02420     7.80137
      C   13    0.07861      0.99962     1.90226    0.01951     2.92139
      N   14   -0.24900      0.99965     2.73306    0.01629     3.74900
      C   15   -0.12640      0.99961     2.10797    0.01881     3.12640
      N   16   -0.42070      0.99977     2.90919    0.01174     3.92070
      H   17    0.09422      0.00000     0.40464    0.00114     0.40578
      H   18    0.09750      0.00000     0.40161    0.00089     0.40250
      H   19    0.10562      0.00000     0.39312    0.00127     0.39438
      H   20    0.08392      0.00000     0.41487    0.00121     0.41608
      H   21    0.08720      0.00000     0.41132    0.00149     0.41280
      H   22    0.08333      0.00000     0.41509    0.00158     0.41667
      H   23    0.09681      0.00000     0.40197    0.00122     0.40319
      H   24    0.10477      0.00000     0.39427    0.00096     0.39523
      H   25    0.09859      0.00000     0.39959    0.00183     0.40141
      H   26    0.09094      0.00000     0.40683    0.00222     0.40906
      H   27    0.17412      0.00000     0.32363    0.00225     0.32588
      H   28    0.17354      0.00000     0.32493    0.00153     0.32646
 =======================================================================
   * Total *    0.00700     19.99406    42.75211    0.24683    62.99300

 Normal termination of Gaussian 16 at Thu Dec 10 22:34:47 2020.
