 Gaussian 16, Revision A.03,

 -----------------------------------------------------------
 # opt freq B3LYP/6-31G(d) empiricaldispersion=gd3bj scf=xqc
 -----------------------------------------------------------

 -------------------------------
 CID_106894608_JID_9242_neutraal
 -------------------------------
 Symbolic Z-matrix:
 Charge =  0 Multiplicity = 1

 SCF Done:  E(RB3LYP) =  -873.277009875     A.U. after   15 cycles
 SCF Done:  E(RB3LYP) =  -873.285198107     A.U. after   13 cycles
 SCF Done:  E(RB3LYP) =  -873.286182836     A.U. after   13 cycles
 SCF Done:  E(RB3LYP) =  -873.286896903     A.U. after   13 cycles
 SCF Done:  E(RB3LYP) =  -873.286681837     A.U. after   15 cycles
 SCF Done:  E(RB3LYP) =  -873.287521853     A.U. after   13 cycles
 SCF Done:  E(RB3LYP) =  -873.287648019     A.U. after   12 cycles
 SCF Done:  E(RB3LYP) =  -873.287716160     A.U. after   13 cycles
 SCF Done:  E(RB3LYP) =  -873.287748345     A.U. after   12 cycles
 SCF Done:  E(RB3LYP) =  -873.287789544     A.U. after   12 cycles
 SCF Done:  E(RB3LYP) =  -873.297024081     A.U. after   10 cycles
 SCF Done:  E(RB3LYP) =  -873.297025423     A.U. after    8 cycles
 SCF Done:  E(RB3LYP) =  -873.297026546     A.U. after    8 cycles
 SCF Done:  E(RB3LYP) =  -873.297027045     A.U. after    8 cycles
 SCF Done:  E(RB3LYP) =  -873.297027114     A.U. after    7 cycles
 Optimization completed.
    -- Stationary point found.
 Normal termination of Gaussian 16 at Sat Dec 12 10:22:53 2020.

 --------------------------------------------------------------------
 #N Geom=AllCheck Guess=TCheck SCRF=Check GenChk RB3LYP/6-31G(d) Freq
 --------------------------------------------------------------------

 Structure from the checkpoint file:  "JID_9242.chk"
 -------------------------------
 CID_106894608_JID_9242_neutraal
 -------------------------------
 Charge =  0 Multiplicity = 1

 SCF Done:  E(RB3LYP) =  -873.297027114     A.U. after    1 cycles

  Exact polarizability: 156.932 -22.776 157.263 -26.247 -15.218 141.098
 Approx polarizability: 240.103 -46.469 271.695 -61.000 -51.310 269.071

                      1                      2                      3
                      A                      A                      A
 Frequencies --     44.4111                52.8068                63.4531
 Red. masses --      5.5518                 5.4047                 4.7794
 Frc consts  --      0.0065                 0.0089                 0.0113
 IR Inten    --      2.4453                 8.0640                 2.7474

                      4                      5                      6
                      A                      A                      A
 Frequencies --     70.8600                83.6153                95.3323
 Red. masses --      6.1170                 3.8922                 2.9081
 Frc consts  --      0.0181                 0.0160                 0.0156
 IR Inten    --      0.1721                 2.8954                 7.3816

                      7                      8                      9
                      A                      A                      A
 Frequencies --    127.9481               143.1338               178.8277
 Red. masses --      1.3539                 3.2772                 4.4896
 Frc consts  --      0.0131                 0.0396                 0.0846
 IR Inten    --      0.7978                 3.2974                 2.2061

                     10                     11                     12
                      A                      A                      A
 Frequencies --    199.9797               224.9861               246.1686
 Red. masses --      4.0468                 3.7211                 4.6638
 Frc consts  --      0.0954                 0.1110                 0.1665
 IR Inten    --      2.5970                 1.1955                 7.3975

                     13                     14                     15
                      A                      A                      A
 Frequencies --    286.9307               311.3879               330.7835
 Red. masses --      5.4311                 2.0334                 1.7616
 Frc consts  --      0.2634                 0.1162                 0.1136
 IR Inten    --      5.8641                36.7294                48.6007

                     16                     17                     18
                      A                      A                      A
 Frequencies --    348.7924               368.7426               382.8570
 Red. masses --      2.6029                 3.7591                 3.8494
 Frc consts  --      0.1866                 0.3011                 0.3324
 IR Inten    --     33.7033                 2.4861                 3.7784

                     19                     20                     21
                      A                      A                      A
 Frequencies --    420.9191               454.5729               482.8621
 Red. masses --      3.6009                 4.8466                 4.5435
 Frc consts  --      0.3759                 0.5901                 0.6242
 IR Inten    --     11.8620                 1.1495                 4.1305

                     22                     23                     24
                      A                      A                      A
 Frequencies --    487.2981               522.8696               564.8121
 Red. masses --      3.5968                 4.0333                 3.6937
 Frc consts  --      0.5032                 0.6497                 0.6943
 IR Inten    --     17.3476                 3.6634                30.4276

                     25                     26                     27
                      A                      A                      A
 Frequencies --    581.2852               614.1075               627.4103
 Red. masses --      3.5482                 2.5228                 1.8824
 Frc consts  --      0.7064                 0.5605                 0.4366
 IR Inten    --     60.6772                81.7612               120.3585

                     28                     29                     30
                      A                      A                      A
 Frequencies --    645.1486               663.4447               672.3230
 Red. masses --      7.8195                 3.5786                 2.8374
 Frc consts  --      1.9176                 0.9281                 0.7556
 IR Inten    --      1.0051                18.6969                99.1819

                     31                     32                     33
                      A                      A                      A
 Frequencies --    708.8974               745.4829               763.0405
 Red. masses --      4.1959                 2.6463                 3.2192
 Frc consts  --      1.2423                 0.8665                 1.1043
 IR Inten    --      2.2902                36.4353                 6.2506

                     34                     35                     36
                      A                      A                      A
 Frequencies --    780.9990               792.9913               798.9745
 Red. masses --      1.8829                 2.1066                 3.1836
 Frc consts  --      0.6767                 0.7805                 1.1974
 IR Inten    --     12.0615                26.6793                 9.6940

                     37                     38                     39
                      A                      A                      A
 Frequencies --    821.0883               845.9539               864.9995
 Red. masses --      4.1586                 4.4781                 1.4540
 Frc consts  --      1.6519                 1.8882                 0.6410
 IR Inten    --     26.0768                13.5017                 0.9238

                     40                     41                     42
                      A                      A                      A
 Frequencies --    947.0566               959.6686               982.3141
 Red. masses --      1.3463                 1.2496                 2.4528
 Frc consts  --      0.7114                 0.6780                 1.3945
 IR Inten    --      0.9704                 0.4122                18.9585

                     43                     44                     45
                      A                      A                      A
 Frequencies --    994.2390               999.3482              1046.4131
 Red. masses --      2.6937                 1.4450                 7.1227
 Frc consts  --      1.5688                 0.8503                 4.5952
 IR Inten    --     12.1040                 3.4715                 3.9477

                     46                     47                     48
                      A                      A                      A
 Frequencies --   1071.8028              1077.4160              1084.7442
 Red. masses --      3.1444                 2.7517                 3.4320
 Frc consts  --      2.1282                 1.8820                 2.3793
 IR Inten    --     20.0567                 3.0524                79.5099

                     49                     50                     51
                      A                      A                      A
 Frequencies --   1106.2044              1135.5400              1167.4570
 Red. masses --      2.0594                 2.0605                 1.9971
 Frc consts  --      1.4848                 1.5654                 1.6037
 IR Inten    --      5.6548                 7.3094                45.5175

                     52                     53                     54
                      A                      A                      A
 Frequencies --   1176.6755              1188.1489              1196.4119
 Red. masses --      1.7826                 1.2780                 1.4485
 Frc consts  --      1.4542                 1.0629                 1.2216
 IR Inten    --     31.2688                 1.9993                 1.4182

                     55                     56                     57
                      A                      A                      A
 Frequencies --   1201.0005              1228.2729              1230.5923
 Red. masses --      1.3713                 2.8423                 1.5169
 Frc consts  --      1.1653                 2.5264                 1.3534
 IR Inten    --      0.6584                 1.9624                 8.7935

                     58                     59                     60
                      A                      A                      A
 Frequencies --   1262.9493              1283.0677              1293.5634
 Red. masses --      2.1616                 2.3130                 1.3620
 Frc consts  --      2.0314                 2.2435                 1.3428
 IR Inten    --     10.2595               103.5756                11.7046

                     61                     62                     63
                      A                      A                      A
 Frequencies --   1351.8415              1365.5672              1375.7767
 Red. masses --      2.9206                 2.9948                 3.7597
 Frc consts  --      3.1447                 3.2903                 4.1928
 IR Inten    --     33.5678                51.7426                33.8580

                     64                     65                     66
                      A                      A                      A
 Frequencies --   1416.9095              1458.0953              1471.4359
 Red. masses --      2.1400                 1.9335                 1.6536
 Frc consts  --      2.5314                 2.4220                 2.1095
 IR Inten    --     42.8032                38.8819                34.4949

                     67                     68                     69
                      A                      A                      A
 Frequencies --   1481.5437              1490.3613              1512.3821
 Red. masses --      2.1349                 1.5826                 1.9635
 Frc consts  --      2.7609                 2.0712                 2.6461
 IR Inten    --     14.9755                44.6744                 7.3830

                     70                     71                     72
                      A                      A                      A
 Frequencies --   1518.1239              1521.1860              1527.3719
 Red. masses --      1.5786                 1.1224                 1.2861
 Frc consts  --      2.1435                 1.5303                 1.7677
 IR Inten    --     61.4367                17.9926                28.2708

                     73                     74                     75
                      A                      A                      A
 Frequencies --   1535.9131              1612.7990              1623.3181
 Red. masses --      1.1550                 5.2566                 4.3121
 Frc consts  --      1.6054                 8.0560                 6.6950
 IR Inten    --      7.9691                 3.3057                48.4312

                     76                     77                     78
                      A                      A                      A
 Frequencies --   1637.5382              1658.4448              1682.7736
 Red. masses --      5.2199                 4.5926                 1.5142
 Frc consts  --      8.2470                 7.4423                 2.5264
 IR Inten    --     16.9189                42.6262               209.6071

                     79                     80                     81
                      A                      A                      A
 Frequencies --   1755.1691              3043.1324              3077.0998
 Red. masses --      5.2972                 1.0354                 1.0619
 Frc consts  --      9.6147                 5.6491                 5.9241
 IR Inten    --    284.2041                63.4526                26.0682

                     82                     83                     84
                      A                      A                      A
 Frequencies --   3116.6916              3123.0921              3159.0280
 Red. masses --      1.1015                 1.1031                 1.1044
 Frc consts  --      6.3043                 6.3394                 6.4934
 IR Inten    --     23.8769                 4.4477                27.8359

                     85                     86                     87
                      A                      A                      A
 Frequencies --   3183.8492              3194.3788              3200.1714
 Red. masses --      1.0863                 1.0883                 1.0934
 Frc consts  --      6.4881                 6.5427                 6.5975
 IR Inten    --      6.7086                 5.5105                18.1856

                     88                     89                     90
                      A                      A                      A
 Frequencies --   3208.0565              3222.0671              3222.8686
 Red. masses --      1.0908                 1.0985                 1.0939
 Frc consts  --      6.6142                 6.7189                 6.6943
 IR Inten    --     14.0183                 6.7879                 7.7473

                     91                     92                     93
                      A                      A                      A
 Frequencies --   3554.8128              3596.8894              3664.0221
 Red. masses --      1.0477                 1.0762                 1.0997
 Frc consts  --      7.8002                 8.2035                 8.6988
 IR Inten    --     42.0249                33.2222                30.0671

 - Thermochemistry -
 -------------------
 Temperature   298.150 Kelvin.  Pressure   1.00000 Atm.
 Atom     1 has atomic number  6 and mass  12.00000

 Molecular mass:   258.11168 amu.
 Principal axes and moments of inertia in atomic units:
                           1         2         3
     Eigenvalues --  3220.994114609.611425021.16740
           X            0.99937  -0.02755  -0.02231
           Y            0.02811   0.99930   0.02476
           Z            0.02161  -0.02537   0.99944
 This molecule is an asymmetric top.
 Rotational symmetry number  1.
 Warning -- assumption of classical behavior for rotation
           may cause significant error
 Rotational temperatures (Kelvin)      0.02689     0.01879     0.01725
 Rotational constants (GHZ):           0.56031     0.39152     0.35943
 Zero-point vibrational energy     691537.8 (Joules/Mol)
                                  165.28150 (Kcal/Mol)
 Warning -- explicit consideration of  26 degrees of freedom as
           vibrations may cause significant error
 Vibrational temperatures:     63.90    75.98    91.29   101.95   120.30
          (Kelvin)            137.16   184.09   205.94   257.29   287.73
                              323.70   354.18   412.83   448.02   475.92
                              501.83   530.54   550.85   605.61   654.03
                              694.73   701.11   752.29   812.64   836.34
                              883.56   902.70   928.23   954.55   967.32
                             1019.95  1072.58  1097.85  1123.68  1140.94
                             1149.55  1181.36  1217.14  1244.54  1362.60
                             1380.75  1413.33  1430.49  1437.84  1505.56
                             1542.09  1550.16  1560.70  1591.58  1633.79
                             1679.71  1692.97  1709.48  1721.37  1727.97
                             1767.21  1770.55  1817.10  1846.05  1861.15
                             1945.00  1964.75  1979.44  2038.62  2097.87
                             2117.07  2131.61  2144.30  2175.98  2184.24
                             2188.65  2197.55  2209.84  2320.46  2335.59
                             2356.05  2386.13  2421.14  2525.30  4378.39
                             4427.26  4484.22  4493.43  4545.14  4580.85
                             4596.00  4604.33  4615.68  4635.84  4636.99
                             5114.58  5175.12  5271.71

 Zero-point correction=                           0.263393 (Hartree/Particle)
 Thermal correction to Energy=                    0.280386
 Thermal correction to Enthalpy=                  0.281330
 Thermal correction to Gibbs Free Energy=         0.218550
 Sum of electronic and zero-point Energies=           -873.033634
 Sum of electronic and thermal Energies=              -873.016641
 Sum of electronic and thermal Enthalpies=            -873.015697
 Sum of electronic and thermal Free Energies=         -873.078477

                     E (Thermal)             CV                S
                      KCal/Mol        Cal/Mol-Kelvin    Cal/Mol-Kelvin
 Total                  175.945             64.983            132.130
 Electronic               0.000              0.000              0.000
 Translational            0.889              2.981             42.544
 Rotational               0.889              2.981             32.677
 Vibrational            174.167             59.021             56.909
 Vibration     1          0.595              1.980              5.052
 Vibration     2          0.596              1.976              4.709
 Vibration     3          0.597              1.972              4.347
 Vibration     4          0.598              1.968              4.129
 Vibration     5          0.601              1.960              3.804
 Vibration     6          0.603              1.953              3.548
 Vibration     7          0.611              1.925              2.977
 Vibration     8          0.616              1.910              2.762
 Vibration     9          0.629              1.868              2.341
 Vibration    10          0.638              1.840              2.133
 Vibration    11          0.650              1.803              1.919
 Vibration    12          0.661              1.769              1.758
 Vibration    13          0.684              1.698              1.492
 Vibration    14          0.700              1.652              1.355
 Vibration    15          0.713              1.614              1.256
 Vibration    16          0.726              1.578              1.172
 Vibration    17          0.741              1.536              1.085
 Vibration    18          0.752              1.507              1.028
 Vibration    19          0.783              1.425              0.889
 Vibration    20          0.813              1.351              0.782
 Vibration    21          0.839              1.288              0.702
 Vibration    22          0.843              1.278              0.691
 Vibration    23          0.878              1.199              0.603
 Vibration    24          0.921              1.107              0.514
 Vibration    25          0.938              1.072              0.483
 Vibration    26          0.974              1.002              0.426

 Optimization completed.
    -- Stationary point found.
 Normal termination of Gaussian 16 at Sat Dec 12 10:41:35 2020.

 ----------------------------------------------------------------------
 # B3LYP/6-311++G(d,p) empiricaldispersion=gd3bj scf=xqc pop=npa geom=c
 heck
 ----------------------------------------------------------------------

 ---------------------------------------
 CID_106894608_JID_9242_Energie_neutraal
 ---------------------------------------
 Structure from the checkpoint file:  "JID_9242.chk"
 Charge =  0 Multiplicity = 1

 SCF Done:  E(RB3LYP) =  -873.541912806     A.U. after   16 cycles
 Normal termination of Gaussian 16 at Sat Dec 12 10:49:13 2020.

 ----------------------------------------------------------------------
 # B3LYP/6-311++G(d,p) empiricaldispersion=gd3bj scf=xqc pop=npa geom=c
 heck
 ----------------------------------------------------------------------

 -------------------------------------
 CID_106894608_JID_9242_Energie_kation
 -------------------------------------
 Structure from the checkpoint file:  "JID_9242.chk"
 Charge =  1 Multiplicity = 2

 SCF Done:  E(UB3LYP) =  -873.258631702     A.U. after   33 cycles
 SCF Done:  E(UB3LYP) =  -873.258631702     a.u. after    1 cycles
 Normal termination of Gaussian 16 at Sat Dec 12 11:11:39 2020.
 Gaussian 16:  ES64L-G16RevA.03 25-Dec-2016

 ----------------------------------------------------------------------
 # B3LYP/6-311++G(d,p) empiricaldispersion=gd3bj scf=xqc pop=npa geom=c
 heck
 ----------------------------------------------------------------------

 ------------------------------------
 CID_106894608_JID_9242_Energie_anion
 ------------------------------------
 Structure from the checkpoint file:  "JID_9242.chk"
 Charge = -1 Multiplicity = 2

                         Standard orientation:
 ---------------------------------------------------------------------
 Center     Atomic      Atomic             Coordinates (Angstroms)
 Number     Number       Type             X           Y           Z
 ---------------------------------------------------------------------
      1          6           0        3.647322    0.136363   -0.703013
      2          8           0        2.380857    0.486354   -1.266707
      3          6           0        1.453263    0.988463   -0.376007
      4          6           0        1.009549    2.290878   -0.579081
      5          6           0        0.011718    2.800284    0.257111
      6          6           0       -0.496028    2.045371    1.303414
      7          6           0       -0.031723    0.735483    1.537810
      8          6           0        0.921987    0.181997    0.644049
      9          6           0        1.211706   -1.282100    0.760722
     10          8           0        1.554434   -1.806488    1.820780
     11          7           0        1.011017   -2.045536   -0.362797
     12          6           0        0.188351   -1.642539   -1.496581
     13          6           0       -1.121340   -0.981190   -1.098182
     14          7           0       -1.773235   -1.529808   -0.067728
     15          7           0       -2.903160   -0.978580    0.379812
     16          6           0       -3.377327    0.116182   -0.218857
     17          6           0       -2.756538    0.728505   -1.311877
     18          6           0       -1.586502    0.156797   -1.770301
     19          7           0       -0.520481    0.018741    2.610563
     20          1           0        4.245348   -0.261329   -1.525295
     21          1           0        3.553440   -0.624142    0.078523
     22          1           0        4.137865    1.024538   -0.285413
     23          1           0        1.450130    2.879213   -1.376224
     24          1           0       -0.353334    3.812085    0.102638
     25          1           0       -1.243691    2.461363    1.972712
     26          1           0        1.036093   -3.033810   -0.143953
     27          1           0        0.754900   -0.967962   -2.143863
     28          1           0       -0.021567   -2.549520   -2.073140
     29          1           0       -4.295297    0.513052    0.206707
     30          1           0       -3.172905    1.625318   -1.759778
     31          1           0       -1.017116    0.585154   -2.588768
     32          1           0       -0.196085   -0.938077    2.682569
     33          1           0       -1.505722    0.134507    2.806516
 ---------------------------------------------------------------------

 SCF Done:  E(UB3LYP) =  -873.550457368     A.U. after   32 cycles

 The electronic state is 2-A.
 Alpha  occ. eigenvalues --  -19.02990 -18.96113 -14.20547 -14.18618 -14.16902
 Alpha  occ. eigenvalues --  -14.16354 -10.14295 -10.11479 -10.10762 -10.09593
 Alpha  occ. eigenvalues --  -10.08315 -10.06334 -10.05622 -10.05349 -10.05028
 Alpha  occ. eigenvalues --  -10.04489 -10.04130 -10.02691 -10.02620  -0.94495
 Alpha  occ. eigenvalues --   -0.91211  -0.85095  -0.79528  -0.79453  -0.71657
 Alpha  occ. eigenvalues --   -0.67516  -0.65959  -0.63853  -0.62089  -0.58205
 Alpha  occ. eigenvalues --   -0.57601  -0.51704  -0.50311  -0.48257  -0.48005
 Alpha  occ. eigenvalues --   -0.45113  -0.41500  -0.39609  -0.38335  -0.37447
 Alpha  occ. eigenvalues --   -0.36629  -0.35789  -0.35336  -0.34854  -0.34671
 Alpha  occ. eigenvalues --   -0.33336  -0.31729  -0.30799  -0.29463  -0.29090
 Alpha  occ. eigenvalues --   -0.28643  -0.26540  -0.26436  -0.25527  -0.25265
 Alpha  occ. eigenvalues --   -0.24966  -0.24084  -0.23383  -0.18862  -0.17657
 Alpha  occ. eigenvalues --   -0.16042  -0.15211  -0.15036  -0.13138  -0.12933
 Alpha  occ. eigenvalues --   -0.11485  -0.08739  -0.07686   0.04809
 Alpha virt. eigenvalues --    0.07587   0.08384   0.08999   0.09238   0.09886
 Alpha virt. eigenvalues --    0.10325   0.10868   0.11131   0.11614   0.11877
 Alpha virt. eigenvalues --    0.12214   0.12832   0.13133   0.13740   0.14107

  Beta  occ. eigenvalues --  -19.02986 -18.96019 -14.20526 -14.18615 -14.16496
  Beta  occ. eigenvalues --  -14.15925 -10.14202 -10.11464 -10.10705 -10.09590
  Beta  occ. eigenvalues --  -10.08307 -10.06401 -10.05721 -10.05268 -10.04969
  Beta  occ. eigenvalues --  -10.04515 -10.04070 -10.02454 -10.02325  -0.94465
  Beta  occ. eigenvalues --   -0.91030  -0.84390  -0.79459  -0.79378  -0.71564
  Beta  occ. eigenvalues --   -0.67115  -0.65336  -0.63685  -0.61989  -0.58062
  Beta  occ. eigenvalues --   -0.57481  -0.51511  -0.49650  -0.48095  -0.47890
  Beta  occ. eigenvalues --   -0.44980  -0.41452  -0.39532  -0.38211  -0.37341
  Beta  occ. eigenvalues --   -0.36448  -0.35719  -0.35276  -0.34698  -0.34608
  Beta  occ. eigenvalues --   -0.33228  -0.31560  -0.30733  -0.29245  -0.28875
  Beta  occ. eigenvalues --   -0.28272  -0.26389  -0.25959  -0.25118  -0.25020
  Beta  occ. eigenvalues --   -0.24663  -0.23887  -0.23033  -0.18668  -0.17511
  Beta  occ. eigenvalues --   -0.15521  -0.14765  -0.12942  -0.12750  -0.12446
  Beta  occ. eigenvalues --   -0.10867  -0.08517  -0.07100
  Beta virt. eigenvalues --    0.07531   0.08375   0.09100   0.09387   0.09780
  Beta virt. eigenvalues --    0.10242   0.10698   0.11110   0.11515   0.11780
  Beta virt. eigenvalues --    0.12049   0.12238   0.12921   0.13251   0.13706

 Mulliken charges and spin densities:
               1          2
     1  C   -0.228993  -0.051918
     2  O   -0.072038   0.000339
     3  C   -0.607491   0.086173
     4  C   -0.322409  -0.067456
     5  C   -0.203521   0.063528
     6  C   -0.053181   0.052215
     7  C   -0.901310  -0.048175
     8  C    1.706918   0.084990
     9  C   -0.742855   0.046854
    10  O   -0.317729   0.031680
    11  N   -0.203984   0.003010
    12  C   -0.458297   0.020816
    13  C   -0.228877  -0.047244
    14  N    0.029793   0.189126
    15  N   -0.174717   0.200780
    16  C   -0.245997  -0.082984
    17  C   -0.504111   0.284815
    18  C    0.458809   0.130356
    19  N   -0.258448  -0.008253
    20  H    0.080411   0.040201
    21  H    0.205321   0.021017
    22  H    0.111405   0.012488
    23  H    0.133266   0.008899
    24  H    0.105815   0.027156
    25  H    0.143139  -0.004282
    26  H    0.304406   0.000061
    27  H    0.207629   0.006790
    28  H    0.159929   0.000337
    29  H    0.127140   0.001713
    30  H    0.109516  -0.014698
    31  H    0.133636  -0.001395
    32  H    0.279772   0.004106
    33  H    0.227052   0.008955
 Sum of Mulliken charges =  -1.00000   1.00000

 Dipole moment (field-independent basis, Debye):
    X=              2.9487    Y=              2.6553    Z=             -2.5181  Tot=              4.6996
 Quadrupole moment (field-independent basis, Debye-Ang):
   XX=           -141.2552   YY=           -128.7267   ZZ=           -131.9029
   XY=             -7.2009   XZ=             -7.7592   YZ=              6.1869

 Summary of Natural Population Analysis:

                                       Natural Population
                Natural  -----------------------------------------------
    Atom  No    Charge         Core      Valence    Rydberg      Total
 -----------------------------------------------------------------------
      C    1   -0.09382      0.99959     2.08616    0.00807     3.09382
      O    2   -0.29580      0.99986     3.28557    0.01037     4.29580
      C    3    0.17188      0.99934     1.81359    0.01519     2.82812
      C    4   -0.14875      0.99951     2.14030    0.00894     3.14875
      C    5   -0.07208      0.99958     2.06431    0.00819     3.07208
      C    6   -0.11571      0.99952     2.10819    0.00800     3.11571
      C    7    0.11156      0.99948     1.87562    0.01334     2.88844
      C    8   -0.10132      0.99936     2.09106    0.01090     3.10132
      C    9    0.35371      0.99962     1.62003    0.02665     2.64629
      O   10   -0.32868      0.99988     3.32327    0.00554     4.32868
      N   11   -0.31120      0.99967     2.80077    0.01076     3.81120
      C   12   -0.10181      0.99958     2.08891    0.01332     3.10181
      C   13    0.06947      0.99953     1.91554    0.01545     2.93053
      N   14   -0.09528      0.99966     2.57822    0.01740     3.59528
      N   15   -0.09020      0.99973     2.57137    0.01910     3.59020
      C   16   -0.02122      0.99961     2.00830    0.01331     3.02122
      C   17   -0.05364      0.99955     2.04596    0.00813     3.05364
      C   18   -0.07159      0.99950     2.06074    0.01135     3.07159
      N   19   -0.39571      0.99970     2.88728    0.00873     3.89571
      H   20    0.08451      0.00000     0.41433    0.00115     0.41549
      H   21    0.09083      0.00000     0.40783    0.00134     0.40917
      H   22    0.07818      0.00000     0.42042    0.00140     0.42182
      H   23    0.09952      0.00000     0.39901    0.00146     0.40048
      H   24    0.09239      0.00000     0.40614    0.00147     0.40761
      H   25    0.09423      0.00000     0.40443    0.00133     0.40577
      H   26    0.19074      0.00000     0.30777    0.00149     0.30926
      H   27    0.10339      0.00000     0.39514    0.00147     0.39661
      H   28    0.09835      0.00000     0.40069    0.00096     0.40165
      H   29    0.08297      0.00000     0.41588    0.00115     0.41703
      H   30    0.09071      0.00000     0.40826    0.00103     0.40929
      H   31    0.09381      0.00000     0.40446    0.00173     0.40619
      H   32    0.20191      0.00000     0.29664    0.00145     0.29809
      H   33    0.18862      0.00000     0.31000    0.00137     0.31138
 =======================================================================
   * Total *    0.00000     18.99226    48.75620    0.25154    68.00000

 Normal termination of Gaussian 16 at Sat Dec 12 11:32:45 2020.
