 Gaussian 16, Revision A.03,

 -----------------------------------------------------------
 # opt freq B3LYP/6-31G(d) empiricaldispersion=gd3bj scf=xqc
 -----------------------------------------------------------

 ------------------------------
 CID_79643793_JID_2672_neutraal
 ------------------------------
 Symbolic Z-matrix:
 Charge =  0 Multiplicity = 1

 SCF Done:  E(RB3LYP) =  -578.268160859     A.U. after   14 cycles
 SCF Done:  E(RB3LYP) =  -578.273861711     A.U. after   13 cycles
 SCF Done:  E(RB3LYP) =  -578.274717290     A.U. after   12 cycles
 SCF Done:  E(RB3LYP) =  -578.275374022     A.U. after   12 cycles
 SCF Done:  E(RB3LYP) =  -578.275739962     A.U. after   14 cycles
 SCF Done:  E(RB3LYP) =  -578.276381433     A.U. after   12 cycles
 SCF Done:  E(RB3LYP) =  -578.276456665     A.U. after   11 cycles
 SCF Done:  E(RB3LYP) =  -578.276603627     A.U. after   11 cycles
 SCF Done:  E(RB3LYP) =  -578.276636611     A.U. after   10 cycles
 SCF Done:  E(RB3LYP) =  -578.276638646     A.U. after    9 cycles
 SCF Done:  E(RB3LYP) =  -578.276638916     A.U. after    8 cycles
 SCF Done:  E(RB3LYP) =  -578.276638929     A.U. after    7 cycles
 Optimization completed.
    -- Stationary point found.

 1\1\GINC-NODE320\FOpt\RB3LYP\6-31G(d)\C9H16O3\VSC10255\09-Dec-2020\0\\
 # opt freq B3LYP/6-31G(d) empiricaldispersion=gd3bj scf=xqc\\CID_79643
 793_JID_2672_neutraal\\0,1\C,1.4135107054,0.6943014747,-0.3940593949\C
 ,1.2047092025,1.2364420457,1.0164574407\O,2.3234322905,0.9833437326,1.
 8606153314\C,2.3204611869,-0.2976717538,2.4693654107\C,1.6019286263,-0
 .2538753906,3.8212218303\O,1.5910923681,-1.5367155339,4.4319323095\C,0
 .4696704977,-2.3510987505,4.088527268\C,-0.7534976901,-1.9911599725,4.
 9631451861\C,-0.4220997834,-2.607913784,6.3298592246\C,0.4315382812,-3

 Normal termination of Gaussian 16 at Wed Dec  9 17:36:42 2020.

 --------------------------------------------------------------------
 #N Geom=AllCheck Guess=TCheck SCRF=Check GenChk RB3LYP/6-31G(d) Freq
 --------------------------------------------------------------------

 Structure from the checkpoint file:  "JID_2672.chk"
 ------------------------------
 CID_79643793_JID_2672_neutraal
 ------------------------------
 Charge =  0 Multiplicity = 1

 SCF Done:  E(RB3LYP) =  -578.276638929     A.U. after    1 cycles

  Exact polarizability: 122.976   3.513  92.077  -2.165   0.302  87.691
 Approx polarizability: 148.481   9.876 131.387  -1.885  -2.285 131.207

                      1                      2                      3
                      A                      A                      A
 Frequencies --     29.9773                33.2625                55.0706
 Red. masses --      3.8924                 4.2281                 4.2397
 Frc consts  --      0.0021                 0.0028                 0.0076
 IR Inten    --      0.4494                 1.1911                 2.8325

                      4                      5                      6
                      A                      A                      A
 Frequencies --     65.6402                93.1713               119.0918
 Red. masses --      3.2181                 2.8499                 2.1238
 Frc consts  --      0.0082                 0.0146                 0.0177
 IR Inten    --      0.3815                 0.3667                 1.4710

                      7                      8                      9
                      A                      A                      A
 Frequencies --    158.1447               241.1918               273.0442
 Red. masses --      2.7161                 1.1325                 3.1291
 Frc consts  --      0.0400                 0.0388                 0.1374
 IR Inten    --      2.9528                 0.0276                 4.4733

                     10                     11                     12
                      A                      A                      A
 Frequencies --    276.3219               314.9308               378.2740
 Red. masses --      2.6559                 2.4605                 2.5562
 Frc consts  --      0.1195                 0.1438                 0.2155
 IR Inten    --      0.9619                 9.3966                 5.8591

                     13                     14                     15
                      A                      A                      A
 Frequencies --    418.5146               458.0238               466.4193
 Red. masses --      3.1345                 2.4243                 2.2166
 Frc consts  --      0.3235                 0.2997                 0.2841
 IR Inten    --     10.2127                 5.5844                 4.1991

                     16                     17                     18
                      A                      A                      A
 Frequencies --    477.7867               527.7753               610.2254
 Red. masses --      3.7837                 4.2821                 3.1787
 Frc consts  --      0.5089                 0.7028                 0.6974
 IR Inten    --      2.0211                 2.8977                 5.1766

                     19                     20                     21
                      A                      A                      A
 Frequencies --    700.4164               765.6869               793.9178
 Red. masses --      2.2474                 3.4385                 1.3029
 Frc consts  --      0.6496                 1.1877                 0.4839
 IR Inten    --      0.8622                 2.4690                 2.5096

                     22                     23                     24
                      A                      A                      A
 Frequencies --    811.7270               815.3566               842.8159
 Red. masses --      1.1646                 2.2788                 2.5255
 Frc consts  --      0.4521                 0.8926                 1.0570
 IR Inten    --      2.8575                 1.4245                 3.1847

                     25                     26                     27
                      A                      A                      A
 Frequencies --    877.8873               909.2885               961.7047
 Red. masses --      2.3278                 2.2776                 1.6234
 Frc consts  --      1.0570                 1.1095                 0.8846
 IR Inten    --      6.3275                 2.6881                 2.3328

                     28                     29                     30
                      A                      A                      A
 Frequencies --    980.9814               997.1974              1008.4305
 Red. masses --      1.9710                 1.8255                 2.9348
 Frc consts  --      1.1175                 1.0695                 1.7584
 IR Inten    --     14.2807                 3.7543                14.4707

                     31                     32                     33
                      A                      A                      A
 Frequencies --   1056.9662              1072.8715              1105.0711
 Red. masses --      4.5058                 1.7064                 2.3700
 Frc consts  --      2.9658                 1.1573                 1.7052
 IR Inten    --      4.9547                 9.0254                68.5844

                     34                     35                     36
                      A                      A                      A
 Frequencies --   1123.0837              1132.8884              1163.0820
 Red. masses --      4.5863                 2.1550                 4.3730
 Frc consts  --      3.4083                 1.6295                 3.4854
 IR Inten    --    189.1382                39.3232                89.3253

                     37                     38                     39
                      A                      A                      A
 Frequencies --   1181.0360              1185.5314              1200.7029
 Red. masses --      1.3753                 1.7142                 1.9099
 Frc consts  --      1.1302                 1.4195                 1.6223
 IR Inten    --      9.6772                33.8885                79.1633

                     40                     41                     42
                      A                      A                      A
 Frequencies --   1218.2463              1237.8707              1287.1049
 Red. masses --      1.6389                 1.7525                 1.6041
 Frc consts  --      1.4331                 1.5822                 1.5657
 IR Inten    --     15.8055                 8.5007                 6.1893

                     43                     44                     45
                      A                      A                      A
 Frequencies --   1299.6829              1313.1948              1333.6805
 Red. masses --      1.3145                 1.2850                 1.1708
 Frc consts  --      1.3082                 1.3056                 1.2270
 IR Inten    --     13.2604                 7.5485                11.7093

                     46                     47                     48
                      A                      A                      A
 Frequencies --   1341.0533              1356.2497              1357.9655
 Red. masses --      1.5329                 1.1648                 1.1889
 Frc consts  --      1.6242                 1.2624                 1.2917
 IR Inten    --     10.1270                 8.0185                22.4523

                     49                     50                     51
                      A                      A                      A
 Frequencies --   1370.6566              1406.9340              1419.0441
 Red. masses --      1.4776                 1.2638                 1.2367
 Frc consts  --      1.6356                 1.4739                 1.4673
 IR Inten    --      7.3586                16.9617                11.8691

                     52                     53                     54
                      A                      A                      A
 Frequencies --   1441.2655              1450.7082              1463.1571
 Red. masses --      1.2837                 1.3423                 1.1103
 Frc consts  --      1.5710                 1.6644                 1.4005
 IR Inten    --     25.9600                 0.3771                14.1652

                     55                     56                     57
                      A                      A                      A
 Frequencies --   1477.4096              1516.3727              1518.7132
 Red. masses --      1.0854                 1.0686                 1.0483
 Frc consts  --      1.3959                 1.4477                 1.4246
 IR Inten    --      7.4215                 1.2117                 2.4634

                     58                     59                     60
                      A                      A                      A
 Frequencies --   1520.5646              1528.5389              1537.2510
 Red. masses --      1.0984                 1.0663                 1.0811
 Frc consts  --      1.4963                 1.4678                 1.5053
 IR Inten    --      5.5017                 0.5264                 2.8875

                     61                     62                     63
                      A                      A                      A
 Frequencies --   1543.2423              1853.3726              3002.5625
 Red. masses --      1.0873                12.6037                 1.0686
 Frc consts  --      1.5257                25.5079                 5.6762
 IR Inten    --      1.9042               236.8876                36.5662

                     64                     65                     66
                      A                      A                      A
 Frequencies --   3021.3357              3027.1495              3040.0712
 Red. masses --      1.0697                 1.0691                 1.0789
 Frc consts  --      5.7532                 5.7719                 5.8749
 IR Inten    --     28.3770                49.7213                25.1040

                     67                     68                     69
                      A                      A                      A
 Frequencies --   3053.0520              3057.3683              3065.6687
 Red. masses --      1.0362                 1.0682                 1.0718
 Frc consts  --      5.6909                 5.8828                 5.9352
 IR Inten    --     18.2672                14.1008                30.5003

                     70                     71                     72
                      A                      A                      A
 Frequencies --   3070.1138              3091.1903              3100.2343
 Red. masses --      1.0642                 1.0949                 1.0923
 Frc consts  --      5.9098                 6.1641                 6.1856
 IR Inten    --     12.2462                18.3691                14.5101

                     73                     74                     75
                      A                      A                      A
 Frequencies --   3117.2022              3118.6587              3120.0697
 Red. masses --      1.0984                 1.1003                 1.1018
 Frc consts  --      6.2883                 6.3053                 6.3192
 IR Inten    --     36.7614                64.6357                24.7031

                     76                     77                     78
                      A                      A                      A
 Frequencies --   3130.7396              3134.8503              3143.1207
 Red. masses --      1.1001                 1.1034                 1.0953
 Frc consts  --      6.3528                 6.3888                 6.3756
 IR Inten    --     17.0095                38.3993                 3.8249

 - Thermochemistry -
 -------------------
 Temperature   298.150 Kelvin.  Pressure   1.00000 Atm.
 Atom     1 has atomic number  6 and mass  12.00000

 Molecular mass:   172.10994 amu.
 Principal axes and moments of inertia in atomic units:
                           1         2         3
     Eigenvalues --   713.439145415.263615446.97401
           X            0.99994  -0.00516  -0.01009
           Y            0.00751   0.96846   0.24907
           Z            0.00848  -0.24913   0.96843
 This molecule is an asymmetric top.
 Rotational symmetry number  1.
 Warning -- assumption of classical behavior for rotation
           may cause significant error
 Rotational temperatures (Kelvin)      0.12140     0.01599     0.01590
 Rotational constants (GHZ):           2.52964     0.33327     0.33133
 Zero-point vibrational energy     644602.8 (Joules/Mol)
                                  154.06377 (Kcal/Mol)
 Warning -- explicit consideration of  18 degrees of freedom as
           vibrations may cause significant error
 Vibrational temperatures:     43.13    47.86    79.23    94.44   134.05
          (Kelvin)            171.35   227.53   347.02   392.85   397.57
                              453.12   544.25   602.15   658.99   671.07
                              687.43   759.35   877.98  1007.74  1101.65
                             1142.27  1167.89  1173.12  1212.62  1263.08
                             1308.26  1383.68  1411.41  1434.74  1450.91
                             1520.74  1543.62  1589.95  1615.87  1629.97
                             1673.42  1699.25  1705.72  1727.54  1752.78
                             1781.02  1851.86  1869.95  1889.39  1918.87
                             1929.48  1951.34  1953.81  1972.07  2024.26
                             2041.69  2073.66  2087.25  2105.16  2125.66
                             2181.72  2185.09  2187.75  2199.23  2211.76
                             2220.38  2666.59  4320.02  4347.03  4355.39
                             4373.98  4392.66  4398.87  4410.81  4417.21
                             4447.53  4460.55  4484.96  4487.05  4489.08
                             4504.44  4510.35  4522.25

 Zero-point correction=                           0.245516 (Hartree/Particle)
 Thermal correction to Energy=                    0.258472
 Thermal correction to Enthalpy=                  0.259416
 Thermal correction to Gibbs Free Energy=         0.203927
 Sum of electronic and zero-point Energies=           -578.031123
 Sum of electronic and thermal Energies=              -578.018167
 Sum of electronic and thermal Enthalpies=            -578.017223
 Sum of electronic and thermal Free Energies=         -578.072712

                     E (Thermal)             CV                S
                      KCal/Mol        Cal/Mol-Kelvin    Cal/Mol-Kelvin
 Total                  162.193             46.957            116.787
 Electronic               0.000              0.000              0.000
 Translational            0.889              2.981             41.336
 Rotational               0.889              2.981             31.421
 Vibrational            160.416             40.996             44.030
 Vibration     1          0.594              1.984              5.831
 Vibration     2          0.594              1.983              5.625
 Vibration     3          0.596              1.976              4.626
 Vibration     4          0.597              1.971              4.280
 Vibration     5          0.602              1.954              3.592
 Vibration     6          0.609              1.933              3.115
 Vibration     7          0.621              1.894              2.572
 Vibration     8          0.658              1.777              1.794
 Vibration     9          0.676              1.723              1.577
 Vibration    10          0.678              1.717              1.556
 Vibration    11          0.702              1.645              1.336
 Vibration    12          0.749              1.516              1.046
 Vibration    13          0.781              1.430              0.897
 Vibration    14          0.816              1.343              0.772
 Vibration    15          0.824              1.325              0.748
 Vibration    16          0.834              1.299              0.716
 Vibration    17          0.883              1.189              0.592
 Vibration    18          0.969              1.010              0.432

                           ! Non-Optimized Parameters !

 1\1\GINC-NODE320\Freq\RB3LYP\6-31G(d)\C9H16O3\VSC10255\09-Dec-2020\0\\
 #N Geom=AllCheck Guess=TCheck SCRF=Check GenChk RB3LYP/6-31G(d) Freq\\
 CID_79643793_JID_2672_neutraal\\0,1\C,1.4135107054,0.6943014747,-0.394
 0593949\C,1.2047092025,1.2364420457,1.0164574407\O,2.3234322905,0.9833
 437326,1.8606153314\C,2.3204611869,-0.2976717538,2.4693654107\C,1.6019
 286263,-0.2538753906,3.8212218303\O,1.5910923681,-1.5367155339,4.43193
 23095\C,0.4696704977,-2.3510987505,4.088527268\C,-0.7534976901,-1.9911
 599725,4.9631451861\C,-0.4220997834,-2.607913784,6.3298592246\C,0.4315

 Normal termination of Gaussian 16 at Wed Dec  9 17:43:06 2020.

 ----------------------------------------------------------------------
 # B3LYP/6-311++G(d,p) empiricaldispersion=gd3bj scf=xqc pop=npa geom=c
 heck
 ----------------------------------------------------------------------

 --------------------------------------
 CID_79643793_JID_2672_Energie_neutraal
 --------------------------------------
 Structure from the checkpoint file:  "JID_2672.chk"
 Charge =  0 Multiplicity = 1

 SCF Done:  E(RB3LYP) =  -578.448119995     A.U. after   13 cycles
 Normal termination of Gaussian 16 at Wed Dec  9 17:46:02 2020.

 ----------------------------------------------------------------------
 # B3LYP/6-311++G(d,p) empiricaldispersion=gd3bj scf=xqc pop=npa geom=c
 heck
 ----------------------------------------------------------------------

 ------------------------------------
 CID_79643793_JID_2672_Energie_kation
 ------------------------------------
 Structure from the checkpoint file:  "JID_2672.chk"
 Charge =  1 Multiplicity = 2

 SCF Done:  E(UB3LYP) =  -578.130827586     A.U. after   23 cycles
 Normal termination of Gaussian 16 at Wed Dec  9 17:51:19 2020.
 Gaussian 16:  ES64L-G16RevA.03 25-Dec-2016

 -----------------------------------
 CID_79643793_JID_2672_Energie_anion
 -----------------------------------
 Structure from the checkpoint file:  "JID_2672.chk"
 Charge = -1 Multiplicity = 2

                         Standard orientation:
 ---------------------------------------------------------------------
 Center     Atomic      Atomic             Coordinates (Angstroms)
 Number     Number       Type             X           Y           Z
 ---------------------------------------------------------------------
      1          6           0        4.493530   -0.340491   -1.164953
      2          6           0        3.762773    0.592718   -0.204647
      3          8           0        3.214163   -0.104625    0.909329
      4          6           0        1.940083   -0.680328    0.670854
      5          6           0        0.824007    0.304834    1.030790
      6          8           0       -0.454343   -0.265605    0.787510
      7          6           0       -0.962688   -0.049937   -0.529231
      8          6           0       -1.630165    1.340742   -0.634778
      9          6           0       -2.962643    1.166028    0.108252
     10          6           0       -3.336657   -0.304739   -0.107514
     11          8           0       -4.406955   -0.810789    0.141602
     12          6           0       -2.124436   -1.025489   -0.709220
     13          1           0        5.287084   -0.878614   -0.637158
     14          1           0        4.943423    0.228029   -1.987375
     15          1           0        3.812145   -1.080003   -1.600228
     16          1           0        4.459122    1.325525    0.216437
     17          1           0        2.978540    1.154839   -0.735594
     18          1           0        1.834794   -1.011030   -0.372954
     19          1           0        1.857172   -1.568775    1.304463
     20          1           0        0.877181    0.540095    2.097931
     21          1           0        0.954484    1.246639    0.478667
     22          1           0       -0.167489   -0.188535   -1.273671
     23          1           0       -1.805091    1.578333   -1.691710
     24          1           0       -0.998993    2.131852   -0.220286
     25          1           0       -3.769033    1.826619   -0.221249
     26          1           0       -2.831920    1.315121    1.187022
     27          1           0       -1.950329   -1.993771   -0.234462
     28          1           0       -2.326836   -1.198194   -1.774681
 ---------------------------------------------------------------------

 SCF Done:  E(UB3LYP) =  -578.438810675     A.U. after   31 cycles

 The electronic state is 2-A.
 Alpha  occ. eigenvalues --  -19.03020 -19.02829 -19.00406 -10.14654 -10.12487
 Alpha  occ. eigenvalues --  -10.12102 -10.11891 -10.11839 -10.07351 -10.07206
 Alpha  occ. eigenvalues --  -10.07023 -10.06083  -0.94720  -0.93850  -0.93576
 Alpha  occ. eigenvalues --   -0.73448  -0.67166  -0.63784  -0.61700  -0.58077
 Alpha  occ. eigenvalues --   -0.54790  -0.50135  -0.47121  -0.43474  -0.41912
 Alpha  occ. eigenvalues --   -0.40833  -0.38822  -0.37865  -0.36538  -0.35061
 Alpha  occ. eigenvalues --   -0.34364  -0.32024  -0.31442  -0.30698  -0.30135
 Alpha  occ. eigenvalues --   -0.28689  -0.28235  -0.27405  -0.26969  -0.26040
 Alpha  occ. eigenvalues --   -0.25690  -0.24144  -0.22297  -0.21478  -0.18406
 Alpha  occ. eigenvalues --   -0.15226  -0.14123   0.04421
 Alpha virt. eigenvalues --    0.06499   0.07322   0.08016   0.08525   0.09090
 Alpha virt. eigenvalues --    0.09755   0.10164   0.10741   0.10938   0.11436
 Alpha virt. eigenvalues --    0.12248   0.12753   0.13328   0.13776   0.14766

  Beta  occ. eigenvalues --  -19.03013 -19.02820 -19.00335 -10.14523 -10.12460
  Beta  occ. eigenvalues --  -10.12095 -10.11875 -10.11813 -10.07358 -10.07185
  Beta  occ. eigenvalues --  -10.07024 -10.06042  -0.94697  -0.93771  -0.93478
  Beta  occ. eigenvalues --   -0.73357  -0.67126  -0.63742  -0.61647  -0.57952
  Beta  occ. eigenvalues --   -0.54735  -0.50056  -0.47058  -0.43308  -0.41833
  Beta  occ. eigenvalues --   -0.40798  -0.38750  -0.37783  -0.36483  -0.34957
  Beta  occ. eigenvalues --   -0.34266  -0.31880  -0.31356  -0.30641  -0.30060
  Beta  occ. eigenvalues --   -0.28625  -0.28155  -0.27324  -0.26886  -0.25989
  Beta  occ. eigenvalues --   -0.25651  -0.23868  -0.22235  -0.21438  -0.18373
  Beta  occ. eigenvalues --   -0.15193  -0.14057
  Beta virt. eigenvalues --    0.07011   0.07679   0.07740   0.08516   0.09062
  Beta virt. eigenvalues --    0.09465   0.10215   0.10562   0.11032   0.11374
  Beta virt. eigenvalues --    0.11917   0.12584   0.13072   0.13424   0.14018

 Mulliken charges and spin densities:
               1          2
     1  C    1.073263  -1.512940
     2  C   -0.194801   0.069596
     3  O   -0.128203   0.028959
     4  C   -0.004214  -0.332925
     5  C   -0.228759  -0.006305
     6  O   -0.021045  -0.003939
     7  C   -0.362256   0.379571
     8  C    0.355208  -0.664644
     9  C   -0.168845  -0.180552
    10  C   -0.044784   0.188677
    11  O   -0.333640   0.038296
    12  C    0.536171  -0.998312
    13  H    0.036860   0.103782
    14  H   -0.469701   0.605333
    15  H   -0.507138   0.643034
    16  H   -0.302564   0.459130
    17  H   -0.187142   0.289364
    18  H    0.342383  -0.186933
    19  H    0.106625   0.053941
    20  H    0.127279   0.033083
    21  H    0.171335  -0.034371
    22  H   -0.523078   0.711336
    23  H   -0.320465   0.489075
    24  H   -0.128906   0.263685
    25  H    0.022718   0.161121
    26  H    0.192290  -0.016598
    27  H    0.189506  -0.003821
    28  H   -0.228097   0.423358
 Sum of Mulliken charges =  -1.00000   1.00000

 Dipole moment (field-independent basis, Debye):
    X=             -1.0284    Y=             -0.1727    Z=              5.9967  Tot=              6.0867
 Quadrupole moment (field-independent basis, Debye-Ang):
   XX=           -167.5510   YY=            -99.6012   ZZ=           -113.8821
   XY=             -8.2905   XZ=              7.7247   YZ=              4.0750

 Summary of Natural Population Analysis:

                                       Natural Population
                Natural  -----------------------------------------------
    Atom  No    Charge         Core      Valence    Rydberg      Total
 -----------------------------------------------------------------------
      C    1   -0.29956      0.99967     2.29434    0.00556     3.29956
      C    2   -0.01099      0.99960     1.99813    0.01326     3.01099
      O    3   -0.30411      0.99989     3.29475    0.00947     4.30411
      C    4   -0.02095      0.99958     2.00875    0.01262     3.02095
      C    5   -0.01995      0.99958     2.00805    0.01232     3.01995
      O    6   -0.30913      0.99988     3.30022    0.00903     4.30913
      C    7    0.06216      0.99955     1.92196    0.01632     2.93784
      C    8   -0.20328      0.99962     2.19454    0.00912     3.20328
      C    9   -0.24365      0.99960     2.23577    0.00828     3.24365
      C   10    0.31778      0.99968     1.66025    0.02229     2.68222
      O   11   -0.28630      0.99987     3.27986    0.00657     4.28630
      C   12   -0.24926      0.99957     2.23996    0.00973     3.24926
      H   13    0.09676      0.00000     0.40221    0.00104     0.40324
      H   14    0.10310      0.00000     0.39498    0.00192     0.39690
      H   15    0.09976      0.00000     0.39877    0.00147     0.40024
      H   16    0.08643      0.00000     0.41225    0.00133     0.41357
      H   17    0.08134      0.00000     0.41665    0.00202     0.41866
      H   18    0.08429      0.00000     0.41399    0.00172     0.41571
      H   19    0.08718      0.00000     0.41165    0.00116     0.41282
      H   20    0.08710      0.00000     0.41181    0.00109     0.41290
      H   21    0.08188      0.00000     0.41642    0.00170     0.41812
      H   22    0.09320      0.00000     0.40328    0.00352     0.40680
      H   23    0.10476      0.00000     0.39253    0.00272     0.39524
      H   24    0.10117      0.00000     0.39784    0.00099     0.39883
      H   25    0.11094      0.00000     0.38803    0.00103     0.38906
      H   26    0.11258      0.00000     0.38640    0.00103     0.38742
      H   27    0.11604      0.00000     0.38303    0.00094     0.38396
      H   28    0.12074      0.00000     0.37713    0.00213     0.37926
 =======================================================================
   * Total *   -0.00000     11.99607    34.84355    0.16039    47.00000

 Normal termination of Gaussian 16 at Wed Dec  9 17:57:56 2020.
