 Gaussian 16, Revision A.03,

 -----------------------------------------------------------
 # opt freq B3LYP/6-31G(d) empiricaldispersion=gd3bj scf=xqc
 -----------------------------------------------------------

 ------------------------------
 CID_61177862_JID_3367_neutraal
 ------------------------------
 Symbolic Z-matrix:
 Charge =  0 Multiplicity = 1

 SCF Done:  E(RB3LYP) =  -913.297956009     A.U. after   15 cycles
 SCF Done:  E(RB3LYP) =  -913.302687657     A.U. after   13 cycles
 SCF Done:  E(RB3LYP) =  -913.303661762     A.U. after   12 cycles
 SCF Done:  E(RB3LYP) =  -913.303962263     A.U. after   12 cycles
 SCF Done:  E(RB3LYP) =  -913.304124457     A.U. after   13 cycles
 SCF Done:  E(RB3LYP) =  -913.304348509     A.U. after   11 cycles
 SCF Done:  E(RB3LYP) =  -913.304498044     A.U. after   12 cycles
 SCF Done:  E(RB3LYP) =  -913.304562549     A.U. after   12 cycles
 SCF Done:  E(RB3LYP) =  -913.304616464     A.U. after   12 cycles
 SCF Done:  E(RB3LYP) =  -913.304656064     A.U. after   10 cycles
 SCF Done:  E(RB3LYP) =  -913.305224632     A.U. after   11 cycles
 SCF Done:  E(RB3LYP) =  -913.305230692     A.U. after    9 cycles
 SCF Done:  E(RB3LYP) =  -913.305233450     A.U. after    9 cycles
 SCF Done:  E(RB3LYP) =  -913.305234085     A.U. after    9 cycles
 SCF Done:  E(RB3LYP) =  -913.305234793     A.U. after    8 cycles
 SCF Done:  E(RB3LYP) =  -913.305234885     A.U. after    7 cycles
 Optimization completed.
    -- Stationary point found.
 Normal termination of Gaussian 16 at Wed Dec  9 23:11:56 2020.

 --------------------------------------------------------------------
 #N Geom=AllCheck Guess=TCheck SCRF=Check GenChk RB3LYP/6-31G(d) Freq
 --------------------------------------------------------------------

 Structure from the checkpoint file:  "JID_3367.chk"
 ------------------------------
 CID_61177862_JID_3367_neutraal
 ------------------------------
 Charge =  0 Multiplicity = 1

 SCF Done:  E(RB3LYP) =  -913.305234885     A.U. after    1 cycles

  Exact polarizability: 175.176  -8.252 152.612   4.076  -7.388  84.606
 Approx polarizability: 258.054 -23.915 243.036  13.074 -21.456 143.363

                      1                      2                      3
                      A                      A                      A
 Frequencies --     42.1504                63.9835                79.1276
 Red. masses --      5.9966                 2.6776                 1.1903
 Frc consts  --      0.0063                 0.0065                 0.0044
 IR Inten    --      5.5045                 0.9999                 0.6358

                      4                      5                      6
                      A                      A                      A
 Frequencies --    109.2515               141.8406               151.1417
 Red. masses --      3.0983                 1.1566                 1.0828
 Frc consts  --      0.0218                 0.0137                 0.0146
 IR Inten    --      5.9248                 0.8035                 1.9352

                      7                      8                      9
                      A                      A                      A
 Frequencies --    172.6197               195.3242               208.7128
 Red. masses --      3.5008                 2.9665                 3.6069
 Frc consts  --      0.0615                 0.0667                 0.0926
 IR Inten    --      3.0044                 0.6352                 3.0611

                     10                     11                     12
                      A                      A                      A
 Frequencies --    212.0659               231.0293               288.7842
 Red. masses --      3.9764                 3.9953                 3.6469
 Frc consts  --      0.1054                 0.1256                 0.1792
 IR Inten    --      2.3563                 2.2426                 0.5244

                     13                     14                     15
                      A                      A                      A
 Frequencies --    314.5665               374.9463               381.6230
 Red. masses --      3.1744                 1.2126                 2.8807
 Frc consts  --      0.1851                 0.1004                 0.2472
 IR Inten    --      1.0001               146.2896                29.4180

                     16                     17                     18
                      A                      A                      A
 Frequencies --    429.7925               489.2669               506.0744
 Red. masses --      4.0048                 4.6404                 2.0292
 Frc consts  --      0.4359                 0.6545                 0.3062
 IR Inten    --      1.6990                 8.0601                56.1694

                     19                     20                     21
                      A                      A                      A
 Frequencies --    528.6512               549.1230               585.3016
 Red. masses --      3.1485                 3.0353                 4.7628
 Frc consts  --      0.5184                 0.5393                 0.9613
 IR Inten    --     33.0394                26.2184                 6.2027

                     22                     23                     24
                      A                      A                      A
 Frequencies --    624.2813               643.9177               648.7398
 Red. masses --      2.2619                 1.6431                 2.3744
 Frc consts  --      0.5194                 0.4014                 0.5888
 IR Inten    --      7.6652                 1.2995                20.4856

                     25                     26                     27
                      A                      A                      A
 Frequencies --    672.8232               735.0649               790.2761
 Red. masses --      6.3140                 3.5958                 7.7611
 Frc consts  --      1.6840                 1.1447                 2.8558
 IR Inten    --      1.1683                11.8495                14.6462

                     28                     29                     30
                      A                      A                      A
 Frequencies --    836.0681               904.0203               964.8924
 Red. masses --      1.2350                 2.7693                 3.4152
 Frc consts  --      0.5086                 1.3335                 1.8734
 IR Inten    --      8.1201                45.7980                 1.6297

                     31                     32                     33
                      A                      A                      A
 Frequencies --   1001.5112              1047.3727              1054.8091
 Red. masses --      2.9829                 1.8163                 1.4602
 Frc consts  --      1.7628                 1.1739                 0.9572
 IR Inten    --      3.6050                 0.5116                 0.4269

                     34                     35                     36
                      A                      A                      A
 Frequencies --   1068.8725              1074.9813              1123.4692
 Red. masses --      1.5606                 1.5470                 3.1141
 Frc consts  --      1.0505                 1.0532                 2.3158
 IR Inten    --      5.8371                 2.0097                 4.4104

                     37                     38                     39
                      A                      A                      A
 Frequencies --   1156.5345              1177.0857              1185.2873
 Red. masses --      1.4003                 2.8167                 1.8542
 Frc consts  --      1.1036                 2.2994                 1.5348
 IR Inten    --      3.4289                25.2688                 5.7100

                     40                     41                     42
                      A                      A                      A
 Frequencies --   1238.8387              1308.5667              1335.5488
 Red. masses --      1.5275                 5.1649                 3.2834
 Frc consts  --      1.3813                 5.2108                 3.4506
 IR Inten    --     19.3935                14.0294               138.1993

                     43                     44                     45
                      A                      A                      A
 Frequencies --   1372.6328              1389.1570              1430.7518
 Red. masses --      4.0268                 2.9496                 2.7793
 Frc consts  --      4.4701                 3.3536                 3.3521
 IR Inten    --     64.1764                30.3551               153.9710

                     46                     47                     48
                      A                      A                      A
 Frequencies --   1436.7537              1445.8608              1466.7719
 Red. masses --      1.3772                 1.2555                 1.7088
 Frc consts  --      1.6750                 1.5464                 2.1660
 IR Inten    --     16.7879                 0.3143                18.4294

                     49                     50                     51
                      A                      A                      A
 Frequencies --   1503.0757              1505.1989              1507.8767
 Red. masses --      1.3633                 1.0475                 1.1022
 Frc consts  --      1.8147                 1.3983                 1.4765
 IR Inten    --      4.1711                 5.1062                31.8526

                     52                     53                     54
                      A                      A                      A
 Frequencies --   1515.0326              1524.8267              1528.0115
 Red. masses --      1.0954                 1.0668                 1.4207
 Frc consts  --      1.4814                 1.4614                 1.9544
 IR Inten    --     21.4185                 7.7527                17.2090

                     55                     56                     57
                      A                      A                      A
 Frequencies --   1540.3097              1583.8535              1624.6051
 Red. masses --      1.1671                 2.1071                 5.8906
 Frc consts  --      1.6314                 3.1143                 9.1602
 IR Inten    --      2.5459                81.3680               288.1897

                     58                     59                     60
                      A                      A                      A
 Frequencies --   1641.5339              1653.2289              3037.7495
 Red. masses --      3.8709                 1.3122                 1.0462
 Frc consts  --      6.1456                 2.1130                 5.6882
 IR Inten    --    298.2450               174.7635                68.8311

                     61                     62                     63
                      A                      A                      A
 Frequencies --   3048.4844              3055.5695              3111.8600
 Red. masses --      1.0449                 1.0361                 1.0909
 Frc consts  --      5.7211                 5.6994                 6.2243
 IR Inten    --     22.1565                21.7508                15.1636

                     64                     65                     66
                      A                      A                      A
 Frequencies --   3114.1255              3114.3446              3139.3236
 Red. masses --      1.0895                 1.0993                 1.1030
 Frc consts  --      6.2253                 6.2822                 6.4048
 IR Inten    --     23.6050                25.3480                18.5173

                     67                     68                     69
                      A                      A                      A
 Frequencies --   3146.1265              3152.6845              3200.0175
 Red. masses --      1.1032                 1.1054                 1.0910
 Frc consts  --      6.4335                 6.4731                 6.5824
 IR Inten    --     10.5143                18.1515                14.5390

                     70                     71                     72
                      A                      A                      A
 Frequencies --   3561.6518              3567.7232              3693.1301
 Red. masses --      1.0499                 1.0710                 1.1056
 Frc consts  --      7.8472                 8.0320                 8.8843
 IR Inten    --     79.6213                52.3264                30.2742

 - Thermochemistry -
 -------------------
 Temperature   298.150 Kelvin.  Pressure   1.00000 Atm.
 Atom     1 has atomic number  6 and mass  12.00000

 Molecular mass:   195.08302 amu.
 Principal axes and moments of inertia in atomic units:
                           1         2         3
     Eigenvalues --  1928.973733058.911604594.98010
           X            0.99959   0.02575  -0.01233
           Y           -0.02573   0.99967   0.00222
           Z            0.01238  -0.00190   0.99992
 This molecule is an asymmetric top.
 Rotational symmetry number  1.
 Warning -- assumption of classical behavior for rotation
           may cause significant error
 Rotational temperatures (Kelvin)      0.04490     0.02832     0.01885
 Rotational constants (GHZ):           0.93560     0.58999     0.39276
 Zero-point vibrational energy     563803.7 (Joules/Mol)
                                  134.75231 (Kcal/Mol)
 Warning -- explicit consideration of  21 degrees of freedom as
           vibrations may cause significant error
 Vibrational temperatures:     60.65    92.06   113.85   157.19   204.08
          (Kelvin)            217.46   248.36   281.03   300.29   305.12
                              332.40   415.50   452.59   539.46   549.07
                              618.38   703.95   728.13   760.61   790.07
                              842.12   898.20   926.45   933.39   968.04
                             1057.59  1137.03  1202.92  1300.68  1388.26
                             1440.95  1506.94  1517.64  1537.87  1546.66
                             1616.42  1664.00  1693.56  1705.36  1782.41
                             1882.74  1921.56  1974.91  1998.69  2058.53
                             2067.17  2080.27  2110.36  2162.59  2165.65
                             2169.50  2179.79  2193.89  2198.47  2216.16
                             2278.81  2337.44  2361.80  2378.63  4370.64
                             4386.09  4396.28  4477.27  4480.53  4480.85
                             4516.79  4526.57  4536.01  4604.11  5124.42
                             5133.16  5313.59

 Zero-point correction=                           0.214741 (Hartree/Particle)
 Thermal correction to Energy=                    0.228832
 Thermal correction to Enthalpy=                  0.229776
 Thermal correction to Gibbs Free Energy=         0.173699
 Sum of electronic and zero-point Energies=           -913.090493
 Sum of electronic and thermal Energies=              -913.076403
 Sum of electronic and thermal Enthalpies=            -913.075459
 Sum of electronic and thermal Free Energies=         -913.131536

                     E (Thermal)             CV                S
                      KCal/Mol        Cal/Mol-Kelvin    Cal/Mol-Kelvin
 Total                  143.594             51.444            118.024
 Electronic               0.000              0.000              0.000
 Translational            0.889              2.981             41.710
 Rotational               0.889              2.981             31.672
 Vibrational            141.817             45.483             44.642
 Vibration     1          0.595              1.980              5.155
 Vibration     2          0.597              1.971              4.330
 Vibration     3          0.600              1.963              3.912
 Vibration     4          0.606              1.942              3.282
 Vibration     5          0.615              1.911              2.779
 Vibration     6          0.619              1.901              2.658
 Vibration     7          0.626              1.876              2.407
 Vibration     8          0.636              1.846              2.177
 Vibration     9          0.642              1.827              2.055
 Vibration    10          0.643              1.822              2.026
 Vibration    11          0.653              1.794              1.871
 Vibration    12          0.685              1.695              1.481
 Vibration    13          0.702              1.646              1.338
 Vibration    14          0.746              1.523              1.059
 Vibration    15          0.751              1.509              1.033
 Vibration    16          0.791              1.405              0.859
 Vibration    17          0.845              1.274              0.686
 Vibration    18          0.861              1.237              0.643
 Vibration    19          0.884              1.187              0.590
 Vibration    20          0.904              1.142              0.546
 Vibration    21          0.942              1.063              0.476

                           ! Non-Optimized Parameters !
 Normal termination of Gaussian 16 at Wed Dec  9 23:19:10 2020.

 ----------------------------------------------------------------------
 # B3LYP/6-311++G(d,p) empiricaldispersion=gd3bj scf=xqc pop=npa geom=c
 heck
 ----------------------------------------------------------------------

 --------------------------------------
 CID_61177862_JID_3367_Energie_neutraal
 --------------------------------------
 Structure from the checkpoint file:  "JID_3367.chk"
 Charge =  0 Multiplicity = 1

 SCF Done:  E(RB3LYP) =  -913.477130413     A.U. after   17 cycles
 Normal termination of Gaussian 16 at Wed Dec  9 23:22:56 2020.

 ----------------------------------------------------------------------
 # B3LYP/6-311++G(d,p) empiricaldispersion=gd3bj scf=xqc pop=npa geom=c
 heck
 ----------------------------------------------------------------------

 ------------------------------------
 CID_61177862_JID_3367_Energie_kation
 ------------------------------------
 Structure from the checkpoint file:  "JID_3367.chk"
 Charge =  1 Multiplicity = 2

 SCF Done:  E(UB3LYP) =  -913.204664454     A.U. after   27 cycles
 Normal termination of Gaussian 16 at Wed Dec  9 23:31:33 2020.
 Gaussian 16:  ES64L-G16RevA.03 25-Dec-2016

 ----------------------------------------------------------------------
 # B3LYP/6-311++G(d,p) empiricaldispersion=gd3bj scf=xqc pop=npa geom=c
 heck
 ----------------------------------------------------------------------

 -----------------------------------
 CID_61177862_JID_3367_Energie_anion
 -----------------------------------
 Structure from the checkpoint file:  "JID_3367.chk"
 Charge = -1 Multiplicity = 2

                         Standard orientation:
 ---------------------------------------------------------------------
 Center     Atomic      Atomic             Coordinates (Angstroms)
 Number     Number       Type             X           Y           Z
 ---------------------------------------------------------------------
      1          6           0       -0.466020   -2.879448   -0.245446
      2          6           0        0.286820   -1.576677   -0.093609
      3          6           0        1.684868   -1.590962   -0.176294
      4          6           0        2.394616   -0.398165   -0.068578
      5          7           0        1.789096    0.788657    0.073484
      6          6           0        0.450422    0.835490    0.130238
      7          6           0       -0.359864   -0.345691    0.086788
      8          6           0       -1.837425   -0.272511    0.221155
      9         16           0       -2.842866    0.615406   -0.784185
     10          7           0       -2.344552   -1.014274    1.223141
     11          7           0       -0.109462    2.071138    0.285105
     12          6           0        0.696587    3.273378    0.172785
     13          6           0        3.899096   -0.365716   -0.129949
     14          1           0        0.131416   -3.588653   -0.825403
     15          1           0       -0.670776   -3.351445    0.723939
     16          1           0       -1.425056   -2.742178   -0.751758
     17          1           0        2.208656   -2.528238   -0.335311
     18          1           0       -1.740926   -1.483931    1.883810
     19          1           0       -3.345896   -1.034663    1.367166
     20          1           0       -1.079567    2.140126    0.003028
     21          1           0        1.179262    3.365572   -0.809580
     22          1           0        0.045168    4.135413    0.337024
     23          1           0        1.484863    3.270406    0.929274
     24          1           0        4.306624    0.059234    0.794416
     25          1           0        4.321186   -1.364437   -0.273310
     26          1           0        4.230725    0.279460   -0.950987
 ---------------------------------------------------------------------

 SCF Done:  E(UB3LYP) =  -913.485020201     A.U. after   29 cycles

 The electronic state is 2-A.
 Alpha  occ. eigenvalues --  -88.62928 -14.18640 -14.18391 -14.15087 -10.09897
 Alpha  occ. eigenvalues --  -10.07477 -10.06845 -10.06184 -10.04678 -10.04385
 Alpha  occ. eigenvalues --  -10.04203 -10.03029 -10.02506  -7.71682  -5.68027
 Alpha  occ. eigenvalues --   -5.67560  -5.67285  -0.82963  -0.78964  -0.76429
 Alpha  occ. eigenvalues --   -0.67672  -0.64117  -0.60319  -0.57047  -0.56772
 Alpha  occ. eigenvalues --   -0.54187  -0.48399  -0.44908  -0.43550  -0.39372
 Alpha  occ. eigenvalues --   -0.38062  -0.37071  -0.33746  -0.32622  -0.31360
 Alpha  occ. eigenvalues --   -0.30314  -0.29363  -0.29027  -0.28162  -0.27343
 Alpha  occ. eigenvalues --   -0.26139  -0.24688  -0.24472  -0.23211  -0.21535
 Alpha  occ. eigenvalues --   -0.19880  -0.16344  -0.13059  -0.12166  -0.08573
 Alpha  occ. eigenvalues --   -0.06979  -0.05541   0.04786
 Alpha virt. eigenvalues --    0.07984   0.08731   0.09179   0.10265   0.11243
 Alpha virt. eigenvalues --    0.11331   0.11677   0.12400   0.12934   0.13412
 Alpha virt. eigenvalues --    0.13474   0.14404   0.14599   0.15325   0.15910

  Beta  occ. eigenvalues --  -88.62883 -14.18459 -14.18393 -14.15074 -10.09840
  Beta  occ. eigenvalues --  -10.07476 -10.06151 -10.05938 -10.04698 -10.04217
  Beta  occ. eigenvalues --  -10.04134 -10.03027 -10.02585  -7.71642  -5.68027
  Beta  occ. eigenvalues --   -5.67422  -5.67236  -0.82842  -0.78313  -0.76304
  Beta  occ. eigenvalues --   -0.67336  -0.63899  -0.59916  -0.56803  -0.56607
  Beta  occ. eigenvalues --   -0.54050  -0.48211  -0.44480  -0.43191  -0.39161
  Beta  occ. eigenvalues --   -0.37886  -0.36923  -0.33488  -0.32516  -0.31220
  Beta  occ. eigenvalues --   -0.30085  -0.29137  -0.28745  -0.28052  -0.27207
  Beta  occ. eigenvalues --   -0.26060  -0.24520  -0.24067  -0.22961  -0.19742
  Beta  occ. eigenvalues --   -0.19294  -0.15969  -0.12361  -0.12053  -0.07527
  Beta  occ. eigenvalues --   -0.06661  -0.05173
  Beta virt. eigenvalues --    0.07935   0.08685   0.09092   0.10167   0.10708
  Beta virt. eigenvalues --    0.11325   0.11406   0.12253   0.12466   0.13298
  Beta virt. eigenvalues --    0.13518   0.13752   0.14465   0.14699   0.15672

 Mulliken charges and spin densities:
               1          2
     1  C   -0.377029  -0.211365
     2  C    0.620051   0.310054
     3  C   -0.421392  -0.142172
     4  C   -0.107611   0.211751
     5  N   -0.094341   0.004776
     6  C   -0.881042  -0.029513
     7  C    1.245674  -0.046197
     8  C   -0.487870   0.269993
     9  S   -1.046969   0.192007
    10  N   -0.289536   0.148249
    11  N    0.058009   0.011331
    12  C   -0.391811  -0.011184
    13  C   -0.575335  -0.026969
    14  H    0.091435   0.017942
    15  H   -0.013060   0.165813
    16  H    0.142319   0.062962
    17  H    0.098559   0.004691
    18  H    0.235023  -0.022087
    19  H    0.232905   0.015829
    20  H    0.211830   0.016282
    21  H    0.150777  -0.000476
    22  H    0.077456   0.016963
    23  H    0.154475   0.006167
    24  H    0.122053   0.014860
    25  H    0.122338   0.005325
    26  H    0.123093   0.014971
 Sum of Mulliken charges =  -1.00000   1.00000

 Dipole moment (field-independent basis, Debye):
    X=              4.3998    Y=             -1.2103    Z=              2.3876  Tot=              5.1501
 Quadrupole moment (field-independent basis, Debye-Ang):
   XX=           -127.6843   YY=           -100.9906   ZZ=            -96.6353
   XY=              2.5011   XZ=             -8.1934   YZ=             -0.3614

 Summary of Natural Population Analysis:

                                       Natural Population
                Natural  -----------------------------------------------
    Atom  No    Charge         Core      Valence    Rydberg      Total
 -----------------------------------------------------------------------
      C    1   -0.29874      0.99964     2.29316    0.00594     3.29874
      C    2    0.05108      0.99949     1.93832    0.01111     2.94892
      C    3   -0.16985      0.99947     2.16282    0.00756     3.16985
      C    4    0.15180      0.99956     1.83698    0.01166     2.84820
      N    5   -0.28722      0.99964     2.77683    0.01075     3.78722
      C    6    0.23305      0.99951     1.75294    0.01450     2.76695
      C    7   -0.08877      0.99939     2.07771    0.01167     3.08877
      C    8    0.17340      0.99961     1.80642    0.02057     2.82660
      S    9   -0.15828      4.99957     3.14464    0.01408     8.15828
      N   10   -0.36149      0.99967     2.85069    0.01113     3.86149
      N   11   -0.31999      0.99966     2.81116    0.00917     3.81999
      C   12   -0.17615      0.99967     2.16935    0.00713     3.17615
      C   13   -0.29564      0.99964     2.29121    0.00478     3.29564
      H   14    0.09488      0.00000     0.40432    0.00081     0.40512
      H   15    0.10006      0.00000     0.39837    0.00157     0.39994
      H   16    0.11253      0.00000     0.38660    0.00087     0.38747
      H   17    0.09172      0.00000     0.40730    0.00098     0.40828
      H   18    0.18580      0.00000     0.31261    0.00159     0.31420
      H   19    0.18988      0.00000     0.30799    0.00213     0.31012
      H   20    0.20686      0.00000     0.29084    0.00230     0.29314
      H   21    0.08629      0.00000     0.41209    0.00162     0.41371
      H   22    0.08772      0.00000     0.41150    0.00078     0.41228
      H   23    0.09600      0.00000     0.40274    0.00126     0.40400
      H   24    0.10112      0.00000     0.39778    0.00110     0.39888
      H   25    0.09193      0.00000     0.40732    0.00076     0.40807
      H   26    0.10202      0.00000     0.39688    0.00110     0.39798
 =======================================================================
   * Total *    0.00000     16.99451    34.84857    0.15691    52.00000

 Normal termination of Gaussian 16 at Wed Dec  9 23:40:36 2020.
