 Gaussian 16, Revision A.03,

 -----------------------------------------------------------
 # opt freq B3LYP/6-31G(d) empiricaldispersion=gd3bj scf=xqc
 -----------------------------------------------------------

 -------------------------------
 CID_151270530_JID_9630_neutraal
 -------------------------------
 Symbolic Z-matrix:
 Charge =  0 Multiplicity = 1

 SCF Done:  E(RB3LYP) =  -909.173885277     A.U. after   17 cycles
 SCF Done:  E(RB3LYP) =  -909.181224656     A.U. after   14 cycles
 SCF Done:  E(RB3LYP) =  -909.181670622     A.U. after   14 cycles
 SCF Done:  E(RB3LYP) =  -909.183295141     A.U. after   14 cycles
 SCF Done:  E(RB3LYP) =  -909.184765835     A.U. after   13 cycles
 SCF Done:  E(RB3LYP) =  -909.186397500     A.U. after   14 cycles
 SCF Done:  E(RB3LYP) =  -909.186905795     A.U. after   14 cycles
 SCF Done:  E(RB3LYP) =  -909.187170509     A.U. after   13 cycles
 SCF Done:  E(RB3LYP) =  -909.187559597     A.U. after   13 cycles
 SCF Done:  E(RB3LYP) =  -909.187685609     A.U. after   12 cycles
 SCF Done:  E(RB3LYP) =  -909.187732784     A.U. after    9 cycles
 SCF Done:  E(RB3LYP) =  -909.187733641     A.U. after    9 cycles
 SCF Done:  E(RB3LYP) =  -909.187734375     A.U. after    9 cycles
 SCF Done:  E(RB3LYP) =  -909.187734792     A.U. after    8 cycles
 SCF Done:  E(RB3LYP) =  -909.187734948     A.U. after    8 cycles
 SCF Done:  E(RB3LYP) =  -909.187734988     A.U. after    7 cycles
 Optimization completed.
    -- Stationary point found.
 Normal termination of Gaussian 16 at Sun Dec 13 12:42:26 2020.

 --------------------------------------------------------------------
 #N Geom=AllCheck Guess=TCheck SCRF=Check GenChk RB3LYP/6-31G(d) Freq
 --------------------------------------------------------------------

 Structure from the checkpoint file:  "JID_9630.chk"
 -------------------------------
 CID_151270530_JID_9630_neutraal
 -------------------------------
 Charge =  0 Multiplicity = 1

 SCF Done:  E(RB3LYP) =  -909.187734988     A.U. after    1 cycles

  Exact polarizability: 236.646   3.229 161.935 -20.621  13.017 111.103
 Approx polarizability: 325.134  18.852 288.141 -50.196  33.494 188.934

                      1                      2                      3
                      A                      A                      A
 Frequencies --     25.7729                31.8322                39.0860
 Red. masses --      4.5460                 5.2381                 5.8102
 Frc consts  --      0.0018                 0.0031                 0.0052
 IR Inten    --      0.8570                 0.6342                 0.5829

                      4                      5                      6
                      A                      A                      A
 Frequencies --     49.2009                57.4382                78.3874
 Red. masses --      5.2906                 4.3414                 6.7759
 Frc consts  --      0.0075                 0.0084                 0.0245
 IR Inten    --      0.4038                 0.1421                 2.6584

                      7                      8                      9
                      A                      A                      A
 Frequencies --     86.5742               118.2143               139.9999
 Red. masses --      4.7305                 6.3435                 4.7493
 Frc consts  --      0.0209                 0.0522                 0.0548
 IR Inten    --      1.1068                 0.1973                 1.6558

                     10                     11                     12
                      A                      A                      A
 Frequencies --    148.8440               154.5864               201.4862
 Red. masses --      9.0346                 6.0818                 7.9545
 Frc consts  --      0.1179                 0.0856                 0.1903
 IR Inten    --      0.3029                 0.9746                 1.5088

                     13                     14                     15
                      A                      A                      A
 Frequencies --    224.4649               250.4296               287.8416
 Red. masses --      1.4154                 4.4712                 5.6904
 Frc consts  --      0.0420                 0.1652                 0.2778
 IR Inten    --      2.6571                 0.6727                 1.7015

                     16                     17                     18
                      A                      A                      A
 Frequencies --    308.7555               344.0867               364.0196
 Red. masses --      2.9447                 4.3360                 5.8756
 Frc consts  --      0.1654                 0.3025                 0.4587
 IR Inten    --      1.7699                16.2852                 0.6470

                     19                     20                     21
                      A                      A                      A
 Frequencies --    420.4991               435.6353               483.7479
 Red. masses --      3.0643                 3.7250                 1.1441
 Frc consts  --      0.3192                 0.4165                 0.1577
 IR Inten    --      0.6566                 8.9023               100.6348

                     22                     23                     24
                      A                      A                      A
 Frequencies --    495.3581               509.9376               522.2570
 Red. masses --      4.3570                 4.5498                 5.4904
 Frc consts  --      0.6299                 0.6971                 0.8823
 IR Inten    --      3.4189                 5.4002                 6.5587

                     25                     26                     27
                      A                      A                      A
 Frequencies --    582.2405               585.8770               633.4122
 Red. masses --      6.9176                12.1632                 6.3987
 Frc consts  --      1.3817                 2.4599                 1.5126
 IR Inten    --     25.9501                 8.0856                 2.5779

                     28                     29                     30
                      A                      A                      A
 Frequencies --    645.1173               676.5005               704.3463
 Red. masses --      6.3653                 7.0291                 4.3238
 Frc consts  --      1.5608                 1.8953                 1.2638
 IR Inten    --     38.2500                17.1144                 8.5356

                     31                     32                     33
                      A                      A                      A
 Frequencies --    713.4633               756.4707               766.8937
 Red. masses --      1.9509                11.6284                 1.8583
 Frc consts  --      0.5851                 3.9206                 0.6439
 IR Inten    --     25.1871                30.0915                 7.2517

                     34                     35                     36
                      A                      A                      A
 Frequencies --    800.8050               810.5889               861.2086
 Red. masses --      1.9938                 2.1437                 1.4329
 Frc consts  --      0.7533                 0.8299                 0.6262
 IR Inten    --     24.1495                14.2613                 3.0934

                     37                     38                     39
                      A                      A                      A
 Frequencies --    865.8714               875.1035               894.4773
 Red. masses --      3.3803                 3.6863                 1.5890
 Frc consts  --      1.4932                 1.6632                 0.7491
 IR Inten    --     10.2260                 9.0381                13.3607

                     40                     41                     42
                      A                      A                      A
 Frequencies --    899.3746               939.8212               973.0683
 Red. masses --      4.0367                 1.4780                 1.4196
 Frc consts  --      1.9238                 0.7691                 0.7919
 IR Inten    --      1.2588                10.7039                 0.2971

                     43                     44                     45
                      A                      A                      A
 Frequencies --    974.7342               999.9972              1020.1819
 Red. masses --      2.3132                 1.2589                 5.9816
 Frc consts  --      1.2949                 0.7417                 3.6679
 IR Inten    --      0.7434                 0.8654                 1.1722

                     46                     47                     48
                      A                      A                      A
 Frequencies --   1061.4805              1085.6912              1106.9248
 Red. masses --      2.2072                 6.5140                 3.9922
 Frc consts  --      1.4653                 4.5239                 2.8821
 IR Inten    --      3.5972               120.5853               168.5713

                     49                     50                     51
                      A                      A                      A
 Frequencies --   1119.1475              1137.2534              1195.4558
 Red. masses --      1.6279                 2.2563                 1.0967
 Frc consts  --      1.2013                 1.7193                 0.9234
 IR Inten    --     10.7650               112.2034                 0.1229

                     52                     53                     54
                      A                      A                      A
 Frequencies --   1211.7324              1220.3333              1237.7822
 Red. masses --      1.7626                 1.1360                 1.7822
 Frc consts  --      1.5248                 0.9968                 1.6088
 IR Inten    --     25.7312                 1.8200                11.3181

                     55                     56                     57
                      A                      A                      A
 Frequencies --   1279.3164              1293.0138              1343.7553
 Red. masses --      3.2957                 9.5679                 1.1537
 Frc consts  --      3.1780                 9.4248                 1.2273
 IR Inten    --     13.4831               380.2068                50.8978

                     58                     59                     60
                      A                      A                      A
 Frequencies --   1354.4341              1357.7459              1372.9982
 Red. masses --      3.4571                 2.7505                 1.6419
 Frc consts  --      3.7366                 2.9875                 1.8237
 IR Inten    --     85.7320               752.5457                 2.3091

                     61                     62                     63
                      A                      A                      A
 Frequencies --   1403.6426              1425.3475              1448.3400
 Red. masses --      2.5535                 1.3781                 1.3912
 Frc consts  --      2.9642                 1.6496                 1.7194
 IR Inten    --     63.1508                74.3009                16.7536

                     64                     65                     66
                      A                      A                      A
 Frequencies --   1471.9454              1499.3739              1515.1855
 Red. masses --      1.7702                 2.1790                 1.0494
 Frc consts  --      2.2597                 2.8863                 1.4195
 IR Inten    --     47.9625                12.3062                18.8674

                     67                     68                     69
                      A                      A                      A
 Frequencies --   1519.9363              1539.0230              1547.9022
 Red. masses --      1.0882                 1.0612                 2.2559
 Frc consts  --      1.4812                 1.4810                 3.1847
 IR Inten    --     17.2336                13.4577                 1.4459

                     70                     71                     72
                      A                      A                      A
 Frequencies --   1634.6662              1663.6274              1691.6971
 Red. masses --      5.2561                 5.5226                 7.7046
 Frc consts  --      8.2750                 9.0055                12.9911
 IR Inten    --      2.9578                 1.3180                63.6556

                     73                     74                     75
                      A                      A                      A
 Frequencies --   1785.6923              1833.3291              2293.3087
 Red. masses --     13.0632                 9.0198                13.9919
 Frc consts  --     24.5422                17.8620                43.3563
 IR Inten    --    249.1813               626.9861               470.3189

                     76                     77                     78
                      A                      A                      A
 Frequencies --   3062.1413              3099.1942              3128.9046
 Red. masses --      1.0362                 1.0595                 1.1013
 Frc consts  --      5.7247                 5.9959                 6.3523
 IR Inten    --     16.7887                19.8723                26.4818

                     79                     80                     81
                      A                      A                      A
 Frequencies --   3143.5883              3153.3395              3163.3071
 Red. masses --      1.1038                 1.0881                 1.1083
 Frc consts  --      6.4268                 6.3745                 6.5344
 IR Inten    --      6.3791                20.9408                22.2361

                     82                     83                     84
                      A                      A                      A
 Frequencies --   3183.0424              3189.8909              3199.3709
 Red. masses --      1.0860                 1.0872                 1.0911
 Frc consts  --      6.4830                 6.5177                 6.5801
 IR Inten    --      5.7240                 0.4475                16.7924

                     85                     86                     87
                      A                      A                      A
 Frequencies --   3207.7197              3215.6394              3639.4386
 Red. masses --      1.0938                 1.0979                 1.0771
 Frc consts  --      6.6313                 6.6890                 8.4056
 IR Inten    --     28.8830                16.8922                50.0865

 - Thermochemistry -
 -------------------
 Temperature   298.150 Kelvin.  Pressure   1.00000 Atm.
 Atom     1 has atomic number  6 and mass  12.00000

 Molecular mass:   260.09094 amu.
 Principal axes and moments of inertia in atomic units:
                           1         2         3
     Eigenvalues --  2672.684528192.278789515.36629
           X            0.99992  -0.00732   0.01032
           Y            0.00715   0.99984   0.01615
           Z           -0.01044  -0.01607   0.99982
 This molecule is an asymmetric top.
 Rotational symmetry number  1.
 Warning -- assumption of classical behavior for rotation
           may cause significant error
 Rotational temperatures (Kelvin)      0.03241     0.01057     0.00910
 Rotational constants (GHZ):           0.67525     0.22030     0.18967
 Zero-point vibrational energy     620824.0 (Joules/Mol)
                                  148.38050 (Kcal/Mol)
 Warning -- explicit consideration of  26 degrees of freedom as
           vibrations may cause significant error
 Vibrational temperatures:     37.08    45.80    56.24    70.79    82.64
          (Kelvin)            112.78   124.56   170.08   201.43   214.15
                              222.42   289.89   322.95   360.31   414.14
                              444.23   495.06   523.74   605.00   626.78
                              696.01   712.71   733.69   751.41   837.71
                              842.95   911.34   928.18   973.33  1013.40
                             1026.51  1088.39  1103.39  1152.18  1166.26
                             1239.09  1245.80  1259.08  1286.95  1294.00
                             1352.19  1400.03  1402.43  1438.77  1467.81
                             1527.23  1562.07  1592.62  1610.20  1636.25
                             1719.99  1743.41  1755.79  1780.89  1840.65
                             1860.36  1933.36  1948.73  1953.49  1975.44
                             2019.53  2050.76  2083.84  2117.80  2157.26
                             2180.01  2186.85  2214.31  2227.09  2351.92
                             2393.59  2433.97  2569.21  2637.75  3299.56
                             4405.74  4459.05  4501.80  4522.92  4536.95
                             4551.29  4579.69  4589.54  4603.18  4615.19
                             4626.59  5236.34

 Zero-point correction=                           0.236459 (Hartree/Particle)
 Thermal correction to Energy=                    0.254415
 Thermal correction to Enthalpy=                  0.255359
 Thermal correction to Gibbs Free Energy=         0.187639
 Sum of electronic and zero-point Energies=           -908.951276
 Sum of electronic and thermal Energies=              -908.933320
 Sum of electronic and thermal Enthalpies=            -908.932376
 Sum of electronic and thermal Free Energies=         -909.000096

                     E (Thermal)             CV                S
                      KCal/Mol        Cal/Mol-Kelvin    Cal/Mol-Kelvin
 Total                  159.648             64.876            142.529
 Electronic               0.000              0.000              0.000
 Translational            0.889              2.981             42.567
 Rotational               0.889              2.981             33.699
 Vibrational            157.870             58.915             66.264
 Vibration     1          0.593              1.985              6.131
 Vibration     2          0.594              1.983              5.712
 Vibration     3          0.594              1.981              5.305
 Vibration     4          0.595              1.978              4.849
 Vibration     5          0.596              1.975              4.543
 Vibration     6          0.600              1.964              3.931
 Vibration     7          0.601              1.959              3.736
 Vibration     8          0.608              1.934              3.129
 Vibration     9          0.615              1.913              2.804
 Vibration    10          0.618              1.904              2.687
 Vibration    11          0.620              1.898              2.615
 Vibration    12          0.638              1.838              2.119
 Vibration    13          0.649              1.804              1.923
 Vibration    14          0.663              1.762              1.728
 Vibration    15          0.685              1.696              1.487
 Vibration    16          0.698              1.657              1.369
 Vibration    17          0.723              1.587              1.193
 Vibration    18          0.738              1.546              1.105
 Vibration    19          0.783              1.426              0.890
 Vibration    20          0.796              1.393              0.840
 Vibration    21          0.840              1.286              0.700
 Vibration    22          0.851              1.260              0.670
 Vibration    23          0.865              1.228              0.634
 Vibration    24          0.877              1.201              0.605
 Vibration    25          0.939              1.070              0.481
 Vibration    26          0.943              1.062              0.475

 Optimization completed.
    -- Stationary point found.
 Normal termination of Gaussian 16 at Sun Dec 13 12:57:11 2020.

 ----------------------------------------------------------------------
 # B3LYP/6-311++G(d,p) empiricaldispersion=gd3bj scf=xqc pop=npa geom=c
 heck
 ----------------------------------------------------------------------

 ---------------------------------------
 CID_151270530_JID_9630_Energie_neutraal
 ---------------------------------------
 Structure from the checkpoint file:  "JID_9630.chk"
 Charge =  0 Multiplicity = 1

 SCF Done:  E(RB3LYP) =  -909.445520336     A.U. after   17 cycles
 Normal termination of Gaussian 16 at Sun Dec 13 13:03:48 2020.

 ----------------------------------------------------------------------
 # B3LYP/6-311++G(d,p) empiricaldispersion=gd3bj scf=xqc pop=npa geom=c
 heck
 ----------------------------------------------------------------------

 -------------------------------------
 CID_151270530_JID_9630_Energie_kation
 -------------------------------------
 Structure from the checkpoint file:  "JID_9630.chk"
 Charge =  1 Multiplicity = 2

 SCF Done:  E(UB3LYP) =  -909.149327243     A.U. after   27 cycles
 Normal termination of Gaussian 16 at Sun Dec 13 13:18:56 2020.
 Gaussian 16:  ES64L-G16RevA.03 25-Dec-2016

 ----------------------------------------------------------------------
 # B3LYP/6-311++G(d,p) empiricaldispersion=gd3bj scf=xqc pop=npa geom=c
 heck
 ----------------------------------------------------------------------

 ------------------------------------
 CID_151270530_JID_9630_Energie_anion
 ------------------------------------
 Structure from the checkpoint file:  "JID_9630.chk"
 Charge = -1 Multiplicity = 2

                         Standard orientation:
 ---------------------------------------------------------------------
 Center     Atomic      Atomic             Coordinates (Angstroms)
 Number     Number       Type             X           Y           Z
 ---------------------------------------------------------------------
      1          6           0       -4.627435   -0.024696   -1.738577
      2          6           0       -4.002668    0.611948   -0.509230
      3          8           0       -2.704809    0.037718   -0.228821
      4          6           0       -2.708756   -1.103174    0.490106
      5          8           0       -3.694683   -1.713775    0.851872
      6          7           0       -1.421045   -1.513891    0.765386
      7          6           0       -0.232432   -0.842014    0.442451
      8          6           0        0.871054   -1.528103    0.077843
      9          6           0        2.238473   -1.016748   -0.045215
     10          6           0        3.090531   -1.570132   -1.016307
     11          6           0        4.392027   -1.102682   -1.173346
     12          6           0        4.874794   -0.083825   -0.349279
     13          6           0        4.049496    0.453511    0.640304
     14          6           0        2.747550   -0.013207    0.797877
     15          6           0       -0.260968    0.641367    0.669170
     16          8           0       -0.696247    1.169364    1.669320
     17          7           0        0.271171    1.349797   -0.447373
     18          7           0        0.336949    2.584429   -0.288053
     19          7           0        0.442295    3.712024   -0.252242
     20          1           0       -3.961226    0.065879   -2.602541
     21          1           0       -5.573000    0.475463   -1.976585
     22          1           0       -4.832325   -1.082535   -1.554663
     23          1           0       -3.795383    1.673450   -0.661104
     24          1           0       -4.636318    0.487683    0.371574
     25          1           0       -1.368026   -2.422429    1.203186
     26          1           0        0.741618   -2.593084   -0.113243
     27          1           0        2.715857   -2.360296   -1.661816
     28          1           0        5.031635   -1.534748   -1.937640
     29          1           0        5.892221    0.277525   -0.467135
     30          1           0        4.425937    1.227763    1.302731
     31          1           0        2.129350    0.378896    1.599456
 ---------------------------------------------------------------------

 SCF Done:  E(UB3LYP) =  -909.477219577     A.U. after   26 cycles

 The electronic state is 2-A.
 Alpha  occ. eigenvalues --  -19.05388 -18.98867 -18.95026 -14.34336 -14.25026
 Alpha  occ. eigenvalues --  -14.22841 -14.22527 -10.20900 -10.13235 -10.12364
 Alpha  occ. eigenvalues --  -10.07839 -10.07447 -10.05796 -10.05759 -10.05386
 Alpha  occ. eigenvalues --  -10.05034 -10.04856 -10.04669 -10.03228  -1.01209
 Alpha  occ. eigenvalues --   -1.00211  -0.91144  -0.90708  -0.83581  -0.82062
 Alpha  occ. eigenvalues --   -0.73723  -0.67972  -0.66411  -0.62733  -0.61466
 Alpha  occ. eigenvalues --   -0.56993  -0.55214  -0.50966  -0.48634  -0.47373
 Alpha  occ. eigenvalues --   -0.45829  -0.43112  -0.39982  -0.39549  -0.38405
 Alpha  occ. eigenvalues --   -0.37437  -0.36961  -0.36024  -0.35054  -0.34546
 Alpha  occ. eigenvalues --   -0.33799  -0.32548  -0.31931  -0.31371  -0.30426
 Alpha  occ. eigenvalues --   -0.30161  -0.29522  -0.28712  -0.27472  -0.26303
 Alpha  occ. eigenvalues --   -0.25031  -0.24377  -0.22905  -0.22513  -0.20218
 Alpha  occ. eigenvalues --   -0.19840  -0.19592  -0.17710  -0.15662  -0.14465
 Alpha  occ. eigenvalues --   -0.13508  -0.12591  -0.09302   0.02496
 Alpha virt. eigenvalues --    0.07195   0.07895   0.08947   0.09288   0.09648
 Alpha virt. eigenvalues --    0.09800   0.09946   0.10501   0.10699   0.11241
 Alpha virt. eigenvalues --    0.11620   0.12042   0.13393   0.13711   0.14184

  Beta  occ. eigenvalues --  -19.05371 -18.98853 -18.94627 -14.34148 -14.24702
  Beta  occ. eigenvalues --  -14.22822 -14.22682 -10.20885 -10.13231 -10.12053
  Beta  occ. eigenvalues --  -10.07838 -10.07289 -10.05847 -10.05760 -10.05405
  Beta  occ. eigenvalues --  -10.04880 -10.04734 -10.04596 -10.02995  -1.00831
  Beta  occ. eigenvalues --   -1.00178  -0.91105  -0.90085  -0.83350  -0.81894
  Beta  occ. eigenvalues --   -0.73556  -0.67881  -0.66071  -0.62577  -0.61114
  Beta  occ. eigenvalues --   -0.56800  -0.54733  -0.50631  -0.48550  -0.47282
  Beta  occ. eigenvalues --   -0.45622  -0.43016  -0.39761  -0.39349  -0.37640
  Beta  occ. eigenvalues --   -0.37216  -0.36707  -0.35872  -0.34953  -0.34314
  Beta  occ. eigenvalues --   -0.33564  -0.32008  -0.31803  -0.31113  -0.30357
  Beta  occ. eigenvalues --   -0.29986  -0.29405  -0.28553  -0.27204  -0.25433
  Beta  occ. eigenvalues --   -0.24645  -0.23701  -0.22666  -0.22333  -0.19912
  Beta  occ. eigenvalues --   -0.19646  -0.19323  -0.17631  -0.14966  -0.13738
  Beta  occ. eigenvalues --   -0.12941  -0.12178  -0.08274
  Beta virt. eigenvalues --    0.07165   0.07758   0.08061   0.09008   0.09673
  Beta virt. eigenvalues --    0.09904   0.09915   0.10341   0.10711   0.11193
  Beta virt. eigenvalues --    0.11373   0.11852   0.12149   0.13535   0.13918

 Mulliken charges and spin densities:
               1          2
     1  C   -0.400030  -0.006976
     2  C   -0.177608   0.008419
     3  O    0.007256   0.001126
     4  C    0.153259   0.017101
     5  O   -0.343314   0.004694
     6  N   -0.258407  -0.015026
     7  C    0.410421   0.078453
     8  C   -0.822219   0.167236
     9  C    1.168246  -0.070950
    10  C   -0.219904   0.155460
    11  C   -0.333601  -0.029016
    12  C   -0.267100   0.117600
    13  C   -0.526975  -0.009581
    14  C   -0.382111   0.016913
    15  C   -0.685393   0.232730
    16  O   -0.277429   0.142449
    17  N    0.826325  -0.098824
    18  N   -0.205179   0.074615
    19  N   -0.496710   0.177905
    20  H    0.150864  -0.000049
    21  H    0.115531   0.000596
    22  H    0.167504   0.001649
    23  H    0.152742   0.000948
    24  H    0.171859   0.001377
    25  H    0.283956   0.025754
    26  H    0.122566   0.003108
    27  H    0.120154   0.008514
    28  H    0.119786   0.002094
    29  H    0.107541  -0.008467
    30  H    0.135672   0.004018
    31  H    0.182297  -0.003870
 Sum of Mulliken charges =  -1.00000   1.00000

 Dipole moment (field-independent basis, Debye):
    X=             -1.4999    Y=             -1.9492    Z=             -2.8108  Tot=              3.7349
 Quadrupole moment (field-independent basis, Debye-Ang):
   XX=           -147.9250   YY=           -136.1940   ZZ=           -123.4989
   XY=             -6.3851   XZ=              8.9746   YZ=             -0.0932

 Summary of Natural Population Analysis:

                                       Natural Population
                Natural  -----------------------------------------------
    Atom  No    Charge         Core      Valence    Rydberg      Total
 -----------------------------------------------------------------------
      C    1   -0.29988      0.99967     2.29638    0.00384     3.29988
      C    2   -0.01255      0.99959     2.00290    0.01005     3.01255
      O    3   -0.27783      0.99986     3.26818    0.00979     4.27783
      C    4    0.46809      0.99972     1.50807    0.02412     2.53191
      O    5   -0.34140      0.99987     3.33598    0.00555     4.34140
      N    6   -0.30935      0.99964     2.79916    0.01056     3.80935
      C    7    0.07697      0.99940     1.91131    0.01232     2.92303
      C    8   -0.06579      0.99948     2.05743    0.00887     3.06579
      C    9   -0.02687      0.99951     2.01854    0.00882     3.02687
      C   10   -0.07312      0.99953     2.06504    0.00855     3.07312
      C   11   -0.12104      0.99957     2.11221    0.00926     3.12104
      C   12   -0.08478      0.99957     2.07550    0.00971     3.08478
      C   13   -0.11226      0.99957     2.10347    0.00921     3.11226
      C   14   -0.07644      0.99952     2.06857    0.00835     3.07644
      C   15    0.35464      0.99962     1.61983    0.02591     2.64536
      O   16   -0.26667      0.99987     3.26020    0.00660     4.26667
      N   17   -0.22874      0.99966     2.71380    0.01527     3.72874
      N   18    0.14857      0.99971     2.33503    0.01670     3.35143
      N   19    0.00341      0.99981     2.48358    0.01319     3.49659
      H   20    0.10014      0.00000     0.39889    0.00097     0.39986
      H   21    0.09523      0.00000     0.40392    0.00085     0.40477
      H   22    0.10626      0.00000     0.39267    0.00107     0.39374
      H   23    0.08999      0.00000     0.40892    0.00109     0.41001
      H   24    0.09324      0.00000     0.40547    0.00129     0.40676
      H   25    0.19679      0.00000     0.30168    0.00153     0.30321
      H   26    0.08884      0.00000     0.40954    0.00162     0.41116
      H   27    0.09268      0.00000     0.40580    0.00151     0.40732
      H   28    0.09224      0.00000     0.40670    0.00106     0.40776
      H   29    0.09035      0.00000     0.40863    0.00102     0.40965
      H   30    0.09453      0.00000     0.40445    0.00102     0.40547
      H   31    0.10474      0.00000     0.39390    0.00136     0.39526
 =======================================================================
   * Total *    0.00000     18.99318    48.77580    0.23102    68.00000

 Normal termination of Gaussian 16 at Sun Dec 13 13:33:48 2020.
