 Gaussian 16, Revision A.03,

 -----------------------------------------------------------
 # opt freq B3LYP/6-31G(d) empiricaldispersion=gd3bj scf=xqc
 -----------------------------------------------------------

 ------------------------------
 CID_62150862_JID_4061_neutraal
 ------------------------------
 Symbolic Z-matrix:
 Charge =  0 Multiplicity = 1

 SCF Done:  E(RB3LYP) =  -1025.55443517     A.U. after   15 cycles
 SCF Done:  E(RB3LYP) =  -1025.55983502     A.U. after   12 cycles
 SCF Done:  E(RB3LYP) =  -1025.56179144     A.U. after   12 cycles
 SCF Done:  E(RB3LYP) =  -1025.56274085     A.U. after   12 cycles
 SCF Done:  E(RB3LYP) =  -1025.56310870     A.U. after   12 cycles
 SCF Done:  E(RB3LYP) =  -1025.56330845     A.U. after   12 cycles
 SCF Done:  E(RB3LYP) =  -1025.56337546     A.U. after   11 cycles
 SCF Done:  E(RB3LYP) =  -1025.56340103     A.U. after   11 cycles
 SCF Done:  E(RB3LYP) =  -1025.56343989     A.U. after   11 cycles
 SCF Done:  E(RB3LYP) =  -1025.56346636     A.U. after   11 cycles
 SCF Done:  E(RB3LYP) =  -1025.56351129     A.U. after   12 cycles
 SCF Done:  E(RB3LYP) =  -1025.56351454     A.U. after   10 cycles
 SCF Done:  E(RB3LYP) =  -1025.56351561     A.U. after    9 cycles
 SCF Done:  E(RB3LYP) =  -1025.56351594     A.U. after    8 cycles
 SCF Done:  E(RB3LYP) =  -1025.56351589     A.U. after    8 cycles
 Optimization completed.
    -- Stationary point found.
 Normal termination of Gaussian 16 at Thu Dec 10 09:17:08 2020.

 --------------------------------------------------------------------
 #N Geom=AllCheck Guess=TCheck SCRF=Check GenChk RB3LYP/6-31G(d) Freq
 --------------------------------------------------------------------

 Structure from the checkpoint file:  "JID_4061.chk"
 ------------------------------
 CID_62150862_JID_4061_neutraal
 ------------------------------
 Charge =  0 Multiplicity = 1

 SCF Done:  E(RB3LYP) =  -1025.56351589     A.U. after    1 cycles

  Exact polarizability: 166.674  20.119 103.796  -8.790   9.023 108.032
 Approx polarizability: 220.778  43.515 161.778 -15.950  22.471 193.441

                      1                      2                      3
                      A                      A                      A
 Frequencies --     19.8062                27.5134                48.7177
 Red. masses --      4.2244                 3.9193                 2.6720
 Frc consts  --      0.0010                 0.0017                 0.0037
 IR Inten    --      1.8895                 0.8031                 1.0090

                      4                      5                      6
                      A                      A                      A
 Frequencies --     95.2202               121.4550               149.4977
 Red. masses --      3.7648                 3.3259                 3.1303
 Frc consts  --      0.0201                 0.0289                 0.0412
 IR Inten    --      1.0952                 0.6089                 2.1310

                      7                      8                      9
                      A                      A                      A
 Frequencies --    162.5259               215.2892               236.8424
 Red. masses --      5.9908                 2.8005                 2.0408
 Frc consts  --      0.0932                 0.0765                 0.0674
 IR Inten    --      0.2774                 3.0962                 0.2435

                     10                     11                     12
                      A                      A                      A
 Frequencies --    287.4943               292.5821               336.2095
 Red. masses --      2.9690                 2.6882                 5.4214
 Frc consts  --      0.1446                 0.1356                 0.3611
 IR Inten    --      1.3415                 1.7223                 3.2034

                     13                     14                     15
                      A                      A                      A
 Frequencies --    360.5059               393.6278               411.1450
 Red. masses --      4.4849                 1.4450                 2.3761
 Frc consts  --      0.3434                 0.1319                 0.2367
 IR Inten    --     17.1018               150.8469                64.2201

                     16                     17                     18
                      A                      A                      A
 Frequencies --    418.2585               427.1039               471.0807
 Red. masses --      3.5096                 2.6201                 4.4395
 Frc consts  --      0.3617                 0.2816                 0.5805
 IR Inten    --     15.4188                15.1643                 6.5767

                     19                     20                     21
                      A                      A                      A
 Frequencies --    478.9715               517.1317               551.1121
 Red. masses --      1.4727                 4.0738                 2.6687
 Frc consts  --      0.1991                 0.6419                 0.4776
 IR Inten    --    142.0375                81.6580                76.8476

                     22                     23                     24
                      A                      A                      A
 Frequencies --    574.3914               638.2164               656.1486
 Red. masses --      4.3878                 2.1755                 6.5107
 Frc consts  --      0.8529                 0.5221                 1.6515
 IR Inten    --     49.1429               106.8828                15.4370

                     25                     26                     27
                      A                      A                      A
 Frequencies --    681.1183               763.5450               775.6420
 Red. masses --      6.0146                 4.1930                 1.1995
 Frc consts  --      1.6440                 1.4403                 0.4252
 IR Inten    --     35.8482                10.4348                23.9985

                     28                     29                     30
                      A                      A                      A
 Frequencies --    834.1533               856.7185               878.1355
 Red. masses --      1.6436                 2.4501                 4.5130
 Frc consts  --      0.6738                 1.0595                 2.0504
 IR Inten    --     35.2935                71.6338                23.6550

                     31                     32                     33
                      A                      A                      A
 Frequencies --    901.3924               939.6696               952.6917
 Red. masses --      1.9823                 1.5712                 1.4077
 Frc consts  --      0.9490                 0.8174                 0.7528
 IR Inten    --     16.1611                41.7315                 4.2664

                     34                     35                     36
                      A                      A                      A
 Frequencies --    992.7054              1013.0303              1028.3398
 Red. masses --      1.2919                 1.9230                 4.1600
 Frc consts  --      0.7501                 1.1627                 2.5919
 IR Inten    --      1.0281                41.4453                27.8676

                     37                     38                     39
                      A                      A                      A
 Frequencies --   1074.9308              1093.1027              1105.9840
 Red. masses --      1.5623                 2.7633                 4.8786
 Frc consts  --      1.0636                 1.9454                 3.5159
 IR Inten    --      6.9806                37.5954                77.2937

                     40                     41                     42
                      A                      A                      A
 Frequencies --   1148.7591              1153.8715              1167.0642
 Red. masses --      2.3705                 2.5828                 1.7190
 Frc consts  --      1.8431                 2.0261                 1.3795
 IR Inten    --     27.6123               151.2718                36.8632

                     43                     44                     45
                      A                      A                      A
 Frequencies --   1176.8079              1274.4597              1311.9975
 Red. masses --      1.3753                 1.3384                 2.0926
 Frc consts  --      1.1222                 1.2809                 2.1223
 IR Inten    --     10.9104                26.6993                52.9671

                     46                     47                     48
                      A                      A                      A
 Frequencies --   1325.0469              1337.2705              1360.8080
 Red. masses --      1.9056                 2.4205                 2.0886
 Frc consts  --      1.9713                 2.5504                 2.2788
 IR Inten    --     81.5455                37.2370                10.5787

                     49                     50                     51
                      A                      A                      A
 Frequencies --   1374.6272              1387.7615              1404.5519
 Red. masses --      2.3673                 1.2906                 1.3579
 Frc consts  --      2.6355                 1.4644                 1.5784
 IR Inten    --      8.9405                 9.2805                 2.3980

                     52                     53                     54
                      A                      A                      A
 Frequencies --   1445.9057              1447.5150              1451.5876
 Red. masses --      1.3643                 2.7684                 1.4297
 Frc consts  --      1.6805                 3.4177                 1.7750
 IR Inten    --     32.2989                58.0305                42.7705

                     55                     56                     57
                      A                      A                      A
 Frequencies --   1510.7295              1528.6034              1535.1247
 Red. masses --      1.0765                 1.0580                 2.3035
 Frc consts  --      1.4475                 1.4565                 3.1983
 IR Inten    --      2.4178                 9.7348                70.4429

                     58                     59                     60
                      A                      A                      A
 Frequencies --   1537.6103              1542.8910              1617.7517
 Red. masses --      1.1100                 1.0506                 6.0667
 Frc consts  --      1.5461                 1.4735                 9.3546
 IR Inten    --      3.3217                 8.5819                36.6009

                     61                     62                     63
                      A                      A                      A
 Frequencies --   1646.5030              1677.4090              3036.8305
 Red. masses --      2.6642                 1.7132                 1.0659
 Frc consts  --      4.2554                 2.8401                 5.7916
 IR Inten    --     69.0412               430.4603                22.3784

                     64                     65                     66
                      A                      A                      A
 Frequencies --   3045.5992              3051.7020              3086.7545
 Red. masses --      1.0387                 1.0599                 1.1010
 Frc consts  --      5.6767                 5.8157                 6.1808
 IR Inten    --     17.2938                26.4546                 3.4410

                     67                     68                     69
                      A                      A                      A
 Frequencies --   3101.3940              3113.2388              3121.6125
 Red. masses --      1.0989                 1.1036                 1.1008
 Frc consts  --      6.2277                 6.3022                 6.3198
 IR Inten    --     19.9017                64.9095                33.4997

                     70                     71                     72
                      A                      A                      A
 Frequencies --   3200.1016              3202.2473              3233.4302
 Red. masses --      1.0910                 1.0905                 1.0936
 Frc consts  --      6.5828                 6.5884                 6.7363
 IR Inten    --     12.6112                 3.7371                 2.3294

                     73                     74                     75
                      A                      A                      A
 Frequencies --   3521.4253              3584.8418              3700.8403
 Red. masses --      1.0742                 1.0464                 1.1019
 Frc consts  --      7.8483                 7.9231                 8.8917
 IR Inten    --     22.5636                69.8117                30.5353

 - Thermochemistry -
 -------------------
 Temperature   298.150 Kelvin.  Pressure   1.00000 Atm.
 Atom     1 has atomic number  6 and mass  12.00000

 Molecular mass:   215.07285 amu.
 Principal axes and moments of inertia in atomic units:
                           1         2         3
     Eigenvalues --  1825.673855079.496895851.55482
           X            0.99960  -0.02791  -0.00399
           Y            0.02795   0.99957   0.00853
           Z            0.00375  -0.00864   0.99996
 This molecule is an asymmetric top.
 Rotational symmetry number  1.
 Warning -- assumption of classical behavior for rotation
           may cause significant error
 Rotational temperatures (Kelvin)      0.04744     0.01705     0.01480
 Rotational constants (GHZ):           0.98853     0.35530     0.30842
 Zero-point vibrational energy     575084.9 (Joules/Mol)
                                  137.44858 (Kcal/Mol)
 Warning -- explicit consideration of  22 degrees of freedom as
           vibrations may cause significant error
 Vibrational temperatures:     28.50    39.59    70.09   137.00   174.75
          (Kelvin)            215.09   233.84   309.75   340.76   413.64
                              420.96   483.73   518.69   566.34   591.55
                              601.78   614.51   677.78   689.13   744.04
                              792.93   826.42   918.25   944.05   979.98
                             1098.57  1115.98  1200.16  1232.63  1263.44
                             1296.90  1351.97  1370.71  1428.28  1457.52
                             1479.55  1546.59  1572.73  1591.26  1652.81
                             1660.16  1679.15  1693.16  1833.66  1887.67
                             1906.45  1924.03  1957.90  1977.78  1996.68
                             2020.84  2080.34  2082.65  2088.51  2173.60
                             2199.32  2208.70  2212.28  2219.88  2327.58
                             2368.95  2413.42  4369.32  4381.94  4390.72
                             4441.15  4462.21  4479.26  4491.30  4604.23
                             4607.32  4652.18  5066.55  5157.79  5324.68

 Zero-point correction=                           0.219038 (Hartree/Particle)
 Thermal correction to Energy=                    0.233369
 Thermal correction to Enthalpy=                  0.234314
 Thermal correction to Gibbs Free Energy=         0.175881
 Sum of electronic and zero-point Energies=          -1025.344478
 Sum of electronic and thermal Energies=             -1025.330147
 Sum of electronic and thermal Enthalpies=           -1025.329202
 Sum of electronic and thermal Free Energies=        -1025.387635

                     E (Thermal)             CV                S
                      KCal/Mol        Cal/Mol-Kelvin    Cal/Mol-Kelvin
 Total                  146.441             53.397            122.982
 Electronic               0.000              0.000              0.000
 Translational            0.889              2.981             42.001
 Rotational               0.889              2.981             32.362
 Vibrational            144.664             47.435             48.619
 Vibration     1          0.593              1.986              6.654
 Vibration     2          0.593              1.984              6.001
 Vibration     3          0.595              1.978              4.869
 Vibration     4          0.603              1.953              3.550
 Vibration     5          0.609              1.931              3.077
 Vibration     6          0.618              1.903              2.679
 Vibration     7          0.623              1.888              2.520
 Vibration     8          0.645              1.818              1.998
 Vibration     9          0.656              1.784              1.826
 Vibration    10          0.685              1.697              1.489
 Vibration    11          0.688              1.688              1.459
 Vibration    12          0.717              1.603              1.230
 Vibration    13          0.735              1.554              1.120
 Vibration    14          0.761              1.484              0.986
 Vibration    15          0.775              1.446              0.923
 Vibration    16          0.781              1.431              0.898
 Vibration    17          0.789              1.411              0.868
 Vibration    18          0.828              1.314              0.735
 Vibration    19          0.835              1.297              0.713
 Vibration    20          0.872              1.212              0.617
 Vibration    21          0.906              1.137              0.542
 Vibration    22          0.931              1.087              0.496

                           ! Non-Optimized Parameters !
 Normal termination of Gaussian 16 at Thu Dec 10 09:23:39 2020.

 ----------------------------------------------------------------------
 # B3LYP/6-311++G(d,p) empiricaldispersion=gd3bj scf=xqc pop=npa geom=c
 heck
 ----------------------------------------------------------------------

 --------------------------------------
 CID_62150862_JID_4061_Energie_neutraal
 --------------------------------------
 Structure from the checkpoint file:  "JID_4061.chk"
 Charge =  0 Multiplicity = 1

 SCF Done:  E(RB3LYP) =  -1025.77573867     A.U. after   16 cycles
 Normal termination of Gaussian 16 at Thu Dec 10 09:26:36 2020.

 ----------------------------------------------------------------------
 # B3LYP/6-311++G(d,p) empiricaldispersion=gd3bj scf=xqc pop=npa geom=c
 heck
 ----------------------------------------------------------------------

 ------------------------------------
 CID_62150862_JID_4061_Energie_kation
 ------------------------------------
 Structure from the checkpoint file:  "JID_4061.chk"
 Charge =  1 Multiplicity = 2

 SCF Done:  E(UB3LYP) =  -1025.46538692     A.U. after   22 cycles
 Normal termination of Gaussian 16 at Thu Dec 10 09:32:50 2020.
 Gaussian 16:  ES64L-G16RevA.03 25-Dec-2016

 ----------------------------------------------------------------------
 # B3LYP/6-311++G(d,p) empiricaldispersion=gd3bj scf=xqc pop=npa geom=c
 heck
 ----------------------------------------------------------------------

 -----------------------------------
 CID_62150862_JID_4061_Energie_anion
 -----------------------------------
 Structure from the checkpoint file:  "JID_4061.chk"
 Charge = -1 Multiplicity = 2

                         Standard orientation:
 ---------------------------------------------------------------------
 Center     Atomic      Atomic             Coordinates (Angstroms)
 Number     Number       Type             X           Y           Z
 ---------------------------------------------------------------------
      1          6           0        4.306353   -1.681001   -0.236407
      2          6           0        2.966202   -1.979536    0.442700
      3          6           0        2.176603   -0.726291    0.821378
      4          7           0        1.801072    0.027407   -0.386106
      5         16           0        0.754322    1.335179   -0.162553
      6          8           0        0.977231    1.993765    1.132848
      7          8           0        0.847189    2.099255   -1.410491
      8          6           0       -0.808249    0.502316   -0.055376
      9          6           0       -1.265836   -0.290484   -1.109256
     10          7           0       -2.446182   -0.905299   -1.098427
     11          6           0       -3.230256   -0.747111   -0.013570
     12          6           0       -2.851667    0.038508    1.097585
     13          6           0       -1.623094    0.671721    1.068923
     14          7           0       -4.416340   -1.435563   -0.029942
     15          1           0        4.170211   -1.196901   -1.210792
     16          1           0        4.868762   -2.603422   -0.414011
     17          1           0        4.927745   -1.024080    0.384430
     18          1           0        2.345673   -2.604923   -0.210058
     19          1           0        3.142581   -2.550979    1.362677
     20          1           0        1.245309   -1.013321    1.320643
     21          1           0        2.746828   -0.103204    1.524074
     22          1           0        2.598798    0.376156   -0.915609
     23          1           0       -0.650123   -0.433524   -1.993464
     24          1           0       -3.512208    0.134887    1.953738
     25          1           0       -1.279239    1.288773    1.891864
     26          1           0       -4.693804   -1.791110   -0.934888
     27          1           0       -5.165234   -1.119932    0.568857
 ---------------------------------------------------------------------

 SCF Done:  E(UB3LYP) =  -1025.77144686     A.U. after   33 cycles
 SCF Done:  E(UB3LYP) =  -1025.77145351     a.u. after    3 cycles

 The electronic state is 2-A.
 Alpha  occ. eigenvalues --  -88.96155 -19.01631 -19.01579 -14.24599 -14.22179
 Alpha  occ. eigenvalues --  -14.20204 -10.14596 -10.11944 -10.10314 -10.09575
 Alpha  occ. eigenvalues --  -10.09299 -10.09026 -10.08126 -10.07210  -8.02328
 Alpha  occ. eigenvalues --   -5.98620  -5.98572  -5.98412  -1.01822  -0.90784
 Alpha  occ. eigenvalues --   -0.86666  -0.83344  -0.79387  -0.71528  -0.69858
 Alpha  occ. eigenvalues --   -0.65988  -0.60800  -0.57006  -0.54238  -0.51399
 Alpha  occ. eigenvalues --   -0.50129  -0.44468  -0.43646  -0.42476  -0.41881
 Alpha  occ. eigenvalues --   -0.39409  -0.37002  -0.35939  -0.35084  -0.34737
 Alpha  occ. eigenvalues --   -0.34142  -0.33450  -0.31800  -0.31450  -0.29626
 Alpha  occ. eigenvalues --   -0.27628  -0.27044  -0.26623  -0.24699  -0.23643
 Alpha  occ. eigenvalues --   -0.22729  -0.21642  -0.20841  -0.19098  -0.18017
 Alpha  occ. eigenvalues --   -0.16486  -0.12555   0.03914
 Alpha virt. eigenvalues --    0.05201   0.06295   0.07104   0.07697   0.08143
 Alpha virt. eigenvalues --    0.08544   0.08895   0.10360   0.11422   0.11572
 Alpha virt. eigenvalues --    0.11619   0.12339   0.12708   0.13292   0.14655

  Beta  occ. eigenvalues --  -88.96149 -19.01616 -19.01575 -14.24583 -14.22106
  Beta  occ. eigenvalues --  -14.20193 -10.14531 -10.11937 -10.10084 -10.09575
  Beta  occ. eigenvalues --  -10.09301 -10.09016 -10.08089 -10.07108  -8.02320
  Beta  occ. eigenvalues --   -5.98608  -5.98560  -5.98408  -1.01795  -0.90765
  Beta  occ. eigenvalues --   -0.86506  -0.83308  -0.79238  -0.71439  -0.69815
  Beta  occ. eigenvalues --   -0.65780  -0.60733  -0.56818  -0.54020  -0.51336
  Beta  occ. eigenvalues --   -0.50042  -0.44401  -0.43488  -0.42388  -0.41847
  Beta  occ. eigenvalues --   -0.39357  -0.36944  -0.35869  -0.35034  -0.34668
  Beta  occ. eigenvalues --   -0.34029  -0.33409  -0.31598  -0.31179  -0.29525
  Beta  occ. eigenvalues --   -0.27585  -0.27007  -0.26594  -0.24656  -0.23381
  Beta  occ. eigenvalues --   -0.22695  -0.21544  -0.20806  -0.18602  -0.17973
  Beta  occ. eigenvalues --   -0.16439  -0.12144
  Beta virt. eigenvalues --    0.05884   0.07187   0.07257   0.07638   0.07946
  Beta virt. eigenvalues --    0.08419   0.08969   0.09248   0.10872   0.11493
  Beta virt. eigenvalues --    0.11632   0.11696   0.12422   0.12833   0.13455

 Mulliken charges and spin densities:
               1          2
     1  C    0.439589  -0.945410
     2  C   -0.615181   0.406077
     3  C   -0.123723  -0.313412
     4  N   -0.109417  -0.007614
     5  S    0.692013  -0.341356
     6  O   -0.203518  -0.007479
     7  O   -0.194411   0.003704
     8  C    0.079141  -0.538714
     9  C   -0.405635   0.212985
    10  N   -0.041242  -0.083187
    11  C    0.222796  -0.676266
    12  C    0.222802   0.089948
    13  C   -0.286335   0.244723
    14  N   -0.314006   0.056454
    15  H   -0.007723   0.132668
    16  H   -0.419202   0.575016
    17  H   -0.041817   0.185724
    18  H    0.164709  -0.007959
    19  H   -0.066856   0.205838
    20  H    0.161729   0.016612
    21  H    0.130631   0.063335
    22  H    0.270644  -0.000832
    23  H    0.140649   0.077685
    24  H   -0.381448   0.567797
    25  H    0.176531   0.059547
    26  H    0.055312   0.206914
    27  H   -0.546031   0.817200
 Sum of Mulliken charges =  -1.00000   1.00000

 Dipole moment (field-independent basis, Debye):
    X=              4.9000    Y=              0.2909    Z=             -0.0808  Tot=              4.9093
 Quadrupole moment (field-independent basis, Debye-Ang):
   XX=           -191.1672   YY=           -130.1270   ZZ=           -115.9517
   XY=              0.7358   XZ=              6.0364   YZ=              0.9535

 Summary of Natural Population Analysis:

                                       Natural Population
                Natural  -----------------------------------------------
    Atom  No    Charge         Core      Valence    Rydberg      Total
 -----------------------------------------------------------------------
      C    1   -0.29036      0.99967     2.28533    0.00536     3.29036
      C    2   -0.19571      0.99964     2.18660    0.00948     3.19571
      C    3   -0.09491      0.99962     2.08331    0.01198     3.09491
      N    4   -0.43425      0.99975     2.92230    0.01219     3.93425
      S    5    1.10550      4.99919     1.79410    0.10121     6.89450
      O    6   -0.46957      0.99991     3.46445    0.00521     4.46957
      O    7   -0.46560      0.99991     3.46055    0.00514     4.46560
      C    8   -0.19808      0.99936     2.18391    0.01481     3.19808
      C    9    0.09256      0.99953     1.89449    0.01343     2.90744
      N   10   -0.26118      0.99968     2.75124    0.01027     3.76118
      C   11    0.21547      0.99956     1.76910    0.01587     2.78453
      C   12   -0.13179      0.99952     2.12230    0.00997     3.13179
      C   13   -0.07189      0.99951     2.06189    0.01049     3.07189
      N   14   -0.38550      0.99970     2.87565    0.01015     3.88550
      H   15    0.09477      0.00000     0.40422    0.00101     0.40523
      H   16    0.10372      0.00000     0.39488    0.00139     0.39628
      H   17    0.09713      0.00000     0.40182    0.00105     0.40287
      H   18    0.09977      0.00000     0.39913    0.00110     0.40023
      H   19    0.09905      0.00000     0.40002    0.00093     0.40095
      H   20    0.10353      0.00000     0.39545    0.00102     0.39647
      H   21    0.09147      0.00000     0.40724    0.00128     0.40853
      H   22    0.19263      0.00000     0.30526    0.00211     0.30737
      H   23    0.09450      0.00000     0.40416    0.00134     0.40550
      H   24    0.10578      0.00000     0.39306    0.00116     0.39422
      H   25    0.11426      0.00000     0.38466    0.00108     0.38574
      H   26    0.19251      0.00000     0.30490    0.00259     0.30749
      H   27    0.19619      0.00000     0.28869    0.01512     0.30381
 =======================================================================
   * Total *    0.00000     17.99454    38.73870    0.26676    57.00000

 Normal termination of Gaussian 16 at Thu Dec 10 09:56:52 2020.
