 Gaussian 16, Revision A.03,

 -----------------------------------------------------------
 # opt freq B3LYP/6-31G(d) empiricaldispersion=gd3bj scf=xqc
 -----------------------------------------------------------

 ------------------------------
 CID_67419425_JID_7366_neutraal
 ------------------------------
 Symbolic Z-matrix:
 Charge =  0 Multiplicity = 1

 SCF Done:  E(RB3LYP) =  -798.531176723     A.U. after   15 cycles
 SCF Done:  E(RB3LYP) =  -798.534456294     A.U. after   13 cycles
 SCF Done:  E(RB3LYP) =  -798.533681689     A.U. after   13 cycles
 SCF Done:  E(RB3LYP) =  -798.535142838     A.U. after   12 cycles
 SCF Done:  E(RB3LYP) =  -798.535211365     A.U. after   11 cycles
 SCF Done:  E(RB3LYP) =  -798.535310167     A.U. after   12 cycles
 SCF Done:  E(RB3LYP) =  -798.535506024     A.U. after   15 cycles
 SCF Done:  E(RB3LYP) =  -798.535750221     A.U. after   11 cycles
 SCF Done:  E(RB3LYP) =  -798.536024670     A.U. after   12 cycles
 SCF Done:  E(RB3LYP) =  -798.536148810     A.U. after   13 cycles
 SCF Done:  E(RB3LYP) =  -798.536724586     A.U. after   10 cycles
 SCF Done:  E(RB3LYP) =  -798.536745125     A.U. after   11 cycles
 SCF Done:  E(RB3LYP) =  -798.536746658     A.U. after   10 cycles
 SCF Done:  E(RB3LYP) =  -798.536746939     A.U. after    8 cycles
 SCF Done:  E(RB3LYP) =  -798.536746957     A.U. after    7 cycles
 Optimization completed.
    -- Stationary point found.
 Normal termination of Gaussian 16 at Fri Dec 11 12:28:28 2020.

 --------------------------------------------------------------------
 #N Geom=AllCheck Guess=TCheck SCRF=Check GenChk RB3LYP/6-31G(d) Freq
 --------------------------------------------------------------------

 Structure from the checkpoint file:  "JID_7366.chk"
 ------------------------------
 CID_67419425_JID_7366_neutraal
 ------------------------------
 Charge =  0 Multiplicity = 1

 SCF Done:  E(RB3LYP) =  -798.536746957     A.U. after    1 cycles

  Exact polarizability: 191.896  -9.781 168.560  15.579  10.921  75.918
 Approx polarizability: 301.073 -20.180 297.225  30.792  29.447 119.081

                      1                      2                      3
                      A                      A                      A
 Frequencies --     36.4502                43.7591                57.8127
 Red. masses --      6.9686                 9.1926                 7.8488
 Frc consts  --      0.0055                 0.0104                 0.0155
 IR Inten    --      0.3814                 2.4436                 2.5318

                      4                      5                      6
                      A                      A                      A
 Frequencies --     95.8127               105.9092               121.1087
 Red. masses --      1.8661                 2.8853                 2.3612
 Frc consts  --      0.0101                 0.0191                 0.0204
 IR Inten    --      1.1930                 0.1677                 2.2971

                      7                      8                      9
                      A                      A                      A
 Frequencies --    140.2751               178.1535               210.7874
 Red. masses --      9.3309                 5.3240                 5.2438
 Frc consts  --      0.1082                 0.0996                 0.1373
 IR Inten    --      4.7934                 5.0085                 1.7344

                     10                     11                     12
                      A                      A                      A
 Frequencies --    224.9047               260.0754               320.1504
 Red. masses --      5.6582                 3.2139                 1.1510
 Frc consts  --      0.1686                 0.1281                 0.0695
 IR Inten    --      0.2803                 2.6027                97.4814

                     13                     14                     15
                      A                      A                      A
 Frequencies --    332.3045               352.5692               364.5215
 Red. masses --      3.7180                 3.9276                 3.3692
 Frc consts  --      0.2419                 0.2877                 0.2638
 IR Inten    --     19.9208                13.6440                28.5267

                     16                     17                     18
                      A                      A                      A
 Frequencies --    407.6630               427.0396               430.3948
 Red. masses --      1.8758                 4.4338                 6.5067
 Frc consts  --      0.1837                 0.4764                 0.7101
 IR Inten    --     37.6695                 2.2424                 0.8139

                     19                     20                     21
                      A                      A                      A
 Frequencies --    436.8894               468.1695               525.7009
 Red. masses --      2.3069                 6.2022                 3.4982
 Frc consts  --      0.2594                 0.8009                 0.5696
 IR Inten    --      3.1961                 7.9244                 7.9281

                     22                     23                     24
                      A                      A                      A
 Frequencies --    552.0093               569.7193               602.2318
 Red. masses --      3.9583                 5.4766                 4.4268
 Frc consts  --      0.7107                 1.0473                 0.9459
 IR Inten    --     16.7141                 5.4976                33.9922

                     25                     26                     27
                      A                      A                      A
 Frequencies --    623.2223               632.1905               653.4096
 Red. masses --      3.0717                 3.4021                 3.5282
 Frc consts  --      0.7029                 0.8011                 0.8875
 IR Inten    --     28.2329                14.1801                 2.8595

                     28                     29                     30
                      A                      A                      A
 Frequencies --    671.8999               691.8055               763.5179
 Red. masses --      3.7047                 2.1589                 5.4032
 Frc consts  --      0.9854                 0.6088                 1.8558
 IR Inten    --     14.8854                76.3828                 7.1942

                     31                     32                     33
                      A                      A                      A
 Frequencies --    771.7113               787.0806               805.6490
 Red. masses --      6.1340                 1.7554                 5.3005
 Frc consts  --      2.1523                 0.6407                 2.0270
 IR Inten    --     10.8683                28.5992                10.8612

                     34                     35                     36
                      A                      A                      A
 Frequencies --    858.5184               898.8056               904.0563
 Red. masses --      4.2614                 4.7104                 1.3039
 Frc consts  --      1.8506                 2.2420                 0.6279
 IR Inten    --      7.6767                 3.1969                 1.3802

                     37                     38                     39
                      A                      A                      A
 Frequencies --    958.2137              1019.5809              1052.4989
 Red. masses --      2.5187                 1.6092                 4.6742
 Frc consts  --      1.3625                 0.9856                 3.0507
 IR Inten    --     21.3056                 9.7568                 1.1213

                     40                     41                     42
                      A                      A                      A
 Frequencies --   1074.2683              1078.3691              1151.1507
 Red. masses --      1.9323                 1.7302                 2.3330
 Frc consts  --      1.3138                 1.1855                 1.8215
 IR Inten    --    117.1091                17.2105                10.6500

                     43                     44                     45
                      A                      A                      A
 Frequencies --   1181.7669              1191.6084              1250.0760
 Red. masses --      2.1788                 1.3678                 1.4477
 Frc consts  --      1.7928                 1.1443                 1.3329
 IR Inten    --     99.1735                18.2275                34.0378

                     46                     47                     48
                      A                      A                      A
 Frequencies --   1258.2360              1272.2594              1300.6809
 Red. masses --      1.7453                 1.6629                 2.3382
 Frc consts  --      1.6280                 1.5859                 2.3307
 IR Inten    --     40.3349                11.0345               107.4515

                     49                     50                     51
                      A                      A                      A
 Frequencies --   1336.3303              1354.0880              1369.8959
 Red. masses --      1.5789                 6.1025                 3.3918
 Frc consts  --      1.6612                 6.5926                 3.7502
 IR Inten    --      8.8425                15.9836               149.8651

                     52                     53                     54
                      A                      A                      A
 Frequencies --   1401.6952              1408.8024              1451.6542
 Red. masses --      2.5361                 3.7587                 1.3673
 Frc consts  --      2.9358                 4.3953                 1.6976
 IR Inten    --     70.2036                95.6498                 1.8761

                     55                     56                     57
                      A                      A                      A
 Frequencies --   1473.6201              1493.5678              1508.7378
 Red. masses --      3.0109                 2.3883                 1.0945
 Frc consts  --      3.8523                 3.1390                 1.4678
 IR Inten    --     89.6842                12.3835                19.0227

                     58                     59                     60
                      A                      A                      A
 Frequencies --   1525.9938              1531.4709              1558.3659
 Red. masses --      1.4246                 1.0863                 3.9543
 Frc consts  --      1.9546                 1.5012                 5.6579
 IR Inten    --      5.7239                 4.0408                 9.3775

                     61                     62                     63
                      A                      A                      A
 Frequencies --   1613.4024              1633.4343              1681.2363
 Red. masses --      5.7382                 6.3535                 6.4820
 Frc consts  --      8.8006                 9.9877                10.7949
 IR Inten    --      6.1094               110.7473                13.7148

                     64                     65                     66
                      A                      A                      A
 Frequencies --   1831.4087              2339.8763              3039.3130
 Red. masses --      9.3077                12.6733                 1.0431
 Frc consts  --     18.3935                40.8815                 5.6772
 IR Inten    --    291.0283                46.1876                37.7633

                     67                     68                     69
                      A                      A                      A
 Frequencies --   3094.4563              3099.5801              3155.8711
 Red. masses --      1.0967                 1.0632                 1.0983
 Frc consts  --      6.1876                 6.0185                 6.4449
 IR Inten    --     19.0114                12.4151                 0.4123

                     70                     71                     72
                      A                      A                      A
 Frequencies --   3159.9077              3181.3789              3203.3951
 Red. masses --      1.1027                 1.0880                 1.0943
 Frc consts  --      6.4869                 6.4881                 6.6160
 IR Inten    --      1.0038                 9.8920                14.2745

                     73                     74                     75
                      A                      A                      A
 Frequencies --   3664.9772              3684.2942              3761.3437
 Red. masses --      1.0799                 1.0639                 1.0661
 Frc consts  --      8.5465                 8.5088                 8.8865
 IR Inten    --     64.2780                46.4741                66.7861

 - Thermochemistry -
 -------------------
 Temperature   298.150 Kelvin.  Pressure   1.00000 Atm.
 Atom     1 has atomic number  6 and mass  12.00000

 Molecular mass:   230.06914 amu.
 Principal axes and moments of inertia in atomic units:
                           1         2         3
     Eigenvalues --  2580.308244467.106766498.57475
           X            0.99990  -0.00924   0.01043
           Y            0.00926   0.99995  -0.00234
           Z           -0.01041   0.00244   0.99994
 This molecule is an asymmetric top.
 Rotational symmetry number  1.
 Warning -- assumption of classical behavior for rotation
           may cause significant error
 Rotational temperatures (Kelvin)      0.03357     0.01939     0.01333
 Rotational constants (GHZ):           0.69943     0.40401     0.27771
 Zero-point vibrational energy     536364.2 (Joules/Mol)
                                  128.19411 (Kcal/Mol)
 Warning -- explicit consideration of  24 degrees of freedom as
           vibrations may cause significant error
 Vibrational temperatures:     52.44    62.96    83.18   137.85   152.38
          (Kelvin)            174.25   201.82   256.32   303.28   323.59
                              374.19   460.63   478.11   507.27   524.47
                              586.54   614.41   619.24   628.59   673.59
                              756.37   794.22   819.70   866.48   896.68
                              909.58   940.11   966.71   995.35  1098.53
                             1110.32  1132.43  1159.15  1235.22  1293.18
                             1300.74  1378.66  1466.95  1514.31  1545.63
                             1551.53  1656.25  1700.30  1714.46  1798.58
                             1810.32  1830.50  1871.39  1922.68  1948.23
                             1970.97  2016.73  2026.95  2088.61  2120.21
                             2148.91  2170.74  2195.56  2203.45  2242.14
                             2321.33  2350.15  2418.92  2634.99  3366.56
                             4372.89  4452.23  4459.60  4540.59  4546.40
                             4577.29  4608.97  5273.08  5300.88  5411.73

 Zero-point correction=                           0.204290 (Hartree/Particle)
 Thermal correction to Energy=                    0.219735
 Thermal correction to Enthalpy=                  0.220679
 Thermal correction to Gibbs Free Energy=         0.160883
 Sum of electronic and zero-point Energies=           -798.332457
 Sum of electronic and thermal Energies=              -798.317012
 Sum of electronic and thermal Enthalpies=            -798.316068
 Sum of electronic and thermal Free Energies=         -798.375864

                     E (Thermal)             CV                S
                      KCal/Mol        Cal/Mol-Kelvin    Cal/Mol-Kelvin
 Total                  137.886             57.838            125.852
 Electronic               0.000              0.000              0.000
 Translational            0.889              2.981             42.202
 Rotational               0.889              2.981             32.682
 Vibrational            136.108             51.876             50.969
 Vibration     1          0.594              1.982              5.443
 Vibration     2          0.595              1.980              5.081
 Vibration     3          0.596              1.974              4.530
 Vibration     4          0.603              1.952              3.538
 Vibration     5          0.605              1.945              3.343
 Vibration     6          0.609              1.932              3.083
 Vibration     7          0.615              1.913              2.800
 Vibration     8          0.629              1.869              2.348
 Vibration     9          0.643              1.824              2.037
 Vibration    10          0.650              1.803              1.919
 Vibration    11          0.668              1.746              1.661
 Vibration    12          0.706              1.635              1.309
 Vibration    13          0.714              1.611              1.249
 Vibration    14          0.729              1.570              1.155
 Vibration    15          0.738              1.545              1.103
 Vibration    16          0.772              1.454              0.935
 Vibration    17          0.789              1.411              0.868
 Vibration    18          0.792              1.404              0.857
 Vibration    19          0.797              1.390              0.836
 Vibration    20          0.825              1.321              0.743
 Vibration    21          0.881              1.193              0.597
 Vibration    22          0.907              1.135              0.540
 Vibration    23          0.926              1.097              0.505
 Vibration    24          0.961              1.027              0.446

 Optimization completed.
    -- Stationary point found.
 Normal termination of Gaussian 16 at Fri Dec 11 12:39:19 2020.

 ----------------------------------------------------------------------
 # B3LYP/6-311++G(d,p) empiricaldispersion=gd3bj scf=xqc pop=npa geom=c
 heck
 ----------------------------------------------------------------------

 --------------------------------------
 CID_67419425_JID_7366_Energie_neutraal
 --------------------------------------
 Structure from the checkpoint file:  "JID_7366.chk"
 Charge =  0 Multiplicity = 1

 SCF Done:  E(RB3LYP) =  -798.770953310     A.U. after   15 cycles
 Normal termination of Gaussian 16 at Fri Dec 11 12:44:31 2020.

 ----------------------------------------------------------------------
 # B3LYP/6-311++G(d,p) empiricaldispersion=gd3bj scf=xqc pop=npa geom=c
 heck
 ----------------------------------------------------------------------

 ------------------------------------
 CID_67419425_JID_7366_Energie_kation
 ------------------------------------
 Structure from the checkpoint file:  "JID_7366.chk"
 Charge =  1 Multiplicity = 2

 SCF Done:  E(UB3LYP) =  -798.486911478     A.U. after   27 cycles
 Normal termination of Gaussian 16 at Fri Dec 11 12:57:26 2020.
 Gaussian 16:  ES64L-G16RevA.03 25-Dec-2016

 ----------------------------------------------------------------------
 # B3LYP/6-311++G(d,p) empiricaldispersion=gd3bj scf=xqc pop=npa geom=c
 heck
 ----------------------------------------------------------------------

 -----------------------------------
 CID_67419425_JID_7366_Energie_anion
 -----------------------------------
 Structure from the checkpoint file:  "JID_7366.chk"
 Charge = -1 Multiplicity = 2

                         Standard orientation:
 ---------------------------------------------------------------------
 Center     Atomic      Atomic             Coordinates (Angstroms)
 Number     Number       Type             X           Y           Z
 ---------------------------------------------------------------------
      1          6           0       -2.787792    2.192190   -0.466442
      2          6           0       -1.405551    1.648860   -0.309884
      3          6           0       -0.938268    0.358301   -0.488423
      4          6           0        0.469779    0.376753   -0.210445
      5          6           0        0.811990    1.717455    0.119558
      6          7           0       -0.349724    2.462702    0.045010
      7          6           0        2.109660    2.098704    0.448149
      8          6           0        3.100593    1.123239    0.450039
      9          6           0        2.801909   -0.212207    0.126462
     10          6           0        1.494558   -0.603094   -0.206663
     11          6           0        1.234968   -1.963602   -0.545764
     12          7           0        1.004206   -3.066027   -0.840220
     13          8           0        3.759456   -1.182452    0.118977
     14          6           0       -1.802142   -0.823923   -0.851015
     15          6           0       -2.592602   -1.269405    0.363535
     16          8           0       -3.733125   -0.940087    0.618411
     17          8           0       -1.855916   -2.047832    1.185173
     18          1           0       -3.523454    1.392905   -0.353353
     19          1           0       -2.929897    2.659340   -1.450267
     20          1           0       -3.001367    2.951974    0.294500
     21          1           0       -0.425255    3.448526    0.241746
     22          1           0        2.350498    3.127895    0.698069
     23          1           0        4.123417    1.391007    0.702789
     24          1           0        4.611244   -0.788902    0.361739
     25          1           0       -2.522126   -0.558268   -1.629027
     26          1           0       -1.189641   -1.652142   -1.210610
     27          1           0       -2.420720   -2.245726    1.955761
 ---------------------------------------------------------------------

 SCF Done:  E(UB3LYP) =  -798.773326744     A.U. after   33 cycles
 SCF Done:  E(UB3LYP) =  -798.773326744     a.u. after    1 cycles

 The electronic state is 2-A.
 Alpha  occ. eigenvalues --  -19.06373 -19.02064 -19.00808 -14.21932 -14.13492
 Alpha  occ. eigenvalues --  -10.19713 -10.08693 -10.06629 -10.06369 -10.06014
 Alpha  occ. eigenvalues --  -10.05823 -10.04044 -10.03537 -10.02924 -10.02698
 Alpha  occ. eigenvalues --  -10.02005 -10.01457  -1.00402  -0.93171  -0.91390
 Alpha  occ. eigenvalues --   -0.84558  -0.74023  -0.69954  -0.68278  -0.63274
 Alpha  occ. eigenvalues --   -0.62241  -0.60091  -0.55564  -0.50984  -0.48833
 Alpha  occ. eigenvalues --   -0.47852  -0.43828  -0.42538  -0.40261  -0.38560
 Alpha  occ. eigenvalues --   -0.37236  -0.34796  -0.34449  -0.33246  -0.32249
 Alpha  occ. eigenvalues --   -0.32041  -0.29790  -0.28941  -0.28834  -0.28393
 Alpha  occ. eigenvalues --   -0.27799  -0.26102  -0.25494  -0.24749  -0.24153
 Alpha  occ. eigenvalues --   -0.22061  -0.21524  -0.20647  -0.19808  -0.18000
 Alpha  occ. eigenvalues --   -0.17037  -0.16666  -0.13486  -0.07683  -0.07128
 Alpha  occ. eigenvalues --    0.05548
 Alpha virt. eigenvalues --    0.07485   0.08442   0.08735   0.09503   0.10411
 Alpha virt. eigenvalues --    0.10612   0.11490   0.12046   0.13545   0.14225
 Alpha virt. eigenvalues --    0.14455   0.14718   0.15770   0.16273   0.17048

  Beta  occ. eigenvalues --  -19.06374 -19.02040 -19.00811 -14.21896 -14.13211
  Beta  occ. eigenvalues --  -10.19719 -10.08633 -10.06625 -10.06052 -10.06015
  Beta  occ. eigenvalues --  -10.05934 -10.04055 -10.03617 -10.02658 -10.02512
  Beta  occ. eigenvalues --  -10.01912 -10.00989  -1.00405  -0.93102  -0.91394
  Beta  occ. eigenvalues --   -0.84365  -0.73605  -0.69560  -0.68140  -0.63035
  Beta  occ. eigenvalues --   -0.61755  -0.59737  -0.55315  -0.50917  -0.48664
  Beta  occ. eigenvalues --   -0.47217  -0.43725  -0.42272  -0.40100  -0.38542
  Beta  occ. eigenvalues --   -0.37220  -0.34693  -0.34305  -0.33110  -0.31974
  Beta  occ. eigenvalues --   -0.31601  -0.29676  -0.28916  -0.28787  -0.27828
  Beta  occ. eigenvalues --   -0.27695  -0.25749  -0.25402  -0.24598  -0.23993
  Beta  occ. eigenvalues --   -0.22040  -0.21253  -0.19600  -0.19474  -0.17900
  Beta  occ. eigenvalues --   -0.16527  -0.15727  -0.12432  -0.06470  -0.05686
  Beta virt. eigenvalues --    0.07433   0.08397   0.08712   0.09462   0.10395
  Beta virt. eigenvalues --    0.10627   0.11302   0.11637   0.12053   0.13472
  Beta virt. eigenvalues --    0.14206   0.14515   0.14988   0.15837   0.16274

 Mulliken charges and spin densities:
               1          2
     1  C   -0.599509  -0.027599
     2  C   -0.248049   0.171435
     3  C    0.618096  -0.057945
     4  C    1.181587   0.146662
     5  C   -0.274332  -0.104193
     6  N   -0.081100   0.012833
     7  C   -0.362976   0.402969
     8  C   -0.176315   0.052581
     9  C   -0.863387   0.044698
    10  C    0.876018   0.222575
    11  C   -0.787850  -0.045677
    12  N   -0.341615   0.144829
    13  O   -0.240968   0.011234
    14  C   -0.856953  -0.002008
    15  C   -0.078775   0.002476
    16  O   -0.295359  -0.001485
    17  O   -0.133388  -0.000639
    18  H    0.174872   0.002328
    19  H    0.109253   0.046281
    20  H    0.096830   0.014723
    21  H    0.254564   0.004410
    22  H    0.087155  -0.029036
    23  H    0.062100  -0.008315
    24  H    0.242764  -0.000605
    25  H    0.192215  -0.000964
    26  H    0.174973  -0.001467
    27  H    0.270146  -0.000101
 Sum of Mulliken charges =  -1.00000   1.00000

 Dipole moment (field-independent basis, Debye):
    X=             -2.1836    Y=              5.2009    Z=              1.9126  Tot=              5.9561
 Quadrupole moment (field-independent basis, Debye-Ang):
   XX=           -126.0834   YY=           -126.4858   ZZ=           -105.6234
   XY=              6.1858   XZ=              3.2047   YZ=             -5.9933

 Summary of Natural Population Analysis:

                                       Natural Population
                Natural  -----------------------------------------------
    Atom  No    Charge         Core      Valence    Rydberg      Total
 -----------------------------------------------------------------------
      C    1   -0.31118      0.99966     2.30668    0.00485     3.31118
      C    2    0.15322      0.99949     1.83667    0.01062     2.84678
      C    3   -0.08888      0.99942     2.07960    0.00985     3.08888
      C    4   -0.00265      0.99949     1.98756    0.01560     3.00265
      C    5    0.04753      0.99948     1.94237    0.01061     2.95247
      N    6   -0.27211      0.99963     2.76464    0.00784     3.77211
      C    7   -0.02207      0.99954     2.01313    0.00940     3.02207
      C    8   -0.14167      0.99955     2.13266    0.00946     3.14167
      C    9    0.16670      0.99944     1.81817    0.01569     2.83330
      C   10   -0.02896      0.99936     2.01784    0.01176     3.02896
      C   11    0.13935      0.99972     1.83993    0.02101     2.86065
      N   12   -0.17738      0.99978     2.66663    0.01097     3.67738
      O   13   -0.34013      0.99987     3.33413    0.00613     4.34013
      C   14   -0.23196      0.99952     2.22594    0.00649     3.23196
      C   15    0.40709      0.99976     1.56574    0.02742     2.59291
      O   16   -0.32550      0.99987     3.31842    0.00721     4.32550
      O   17   -0.33451      0.99987     3.32753    0.00711     4.33451
      H   18    0.11877      0.00000     0.38055    0.00068     0.38123
      H   19    0.10074      0.00000     0.39797    0.00128     0.39926
      H   20    0.09758      0.00000     0.40132    0.00111     0.40242
      H   21    0.18952      0.00000     0.30893    0.00155     0.31048
      H   22    0.08428      0.00000     0.41404    0.00168     0.41572
      H   23    0.08433      0.00000     0.41379    0.00188     0.41567
      H   24    0.22605      0.00000     0.27146    0.00249     0.27395
      H   25    0.10414      0.00000     0.39498    0.00088     0.39586
      H   26    0.12751      0.00000     0.37082    0.00167     0.37249
      H   27    0.23311      0.00000     0.26411    0.00278     0.26689
 =======================================================================
   * Total *    0.00291     16.99345    42.79559    0.20804    59.99709

 Normal termination of Gaussian 16 at Fri Dec 11 13:12:08 2020.
