 Gaussian 16, Revision A.03,

 -----------------------------------------------------------
 # opt freq B3LYP/6-31G(d) empiricaldispersion=gd3bj scf=xqc
 -----------------------------------------------------------

 ------------------------------
 CID_138464245_JID_999_neutraal
 ------------------------------
 Symbolic Z-matrix:
 Charge =  0 Multiplicity = 1

 SCF Done:  E(RB3LYP) =  -438.861988962     A.U. after   14 cycles
 SCF Done:  E(RB3LYP) =  -438.863782827     A.U. after   12 cycles
 SCF Done:  E(RB3LYP) =  -438.864215257     A.U. after   11 cycles
 SCF Done:  E(RB3LYP) =  -438.864321050     A.U. after   12 cycles
 SCF Done:  E(RB3LYP) =  -438.864340477     A.U. after   11 cycles
 SCF Done:  E(RB3LYP) =  -438.864379259     A.U. after    9 cycles
 SCF Done:  E(RB3LYP) =  -438.864392415     A.U. after   10 cycles
 SCF Done:  E(RB3LYP) =  -438.864394943     A.U. after    9 cycles
 SCF Done:  E(RB3LYP) =  -438.864396270     A.U. after    8 cycles
 SCF Done:  E(RB3LYP) =  -438.864398157     A.U. after    9 cycles
 SCF Done:  E(RB3LYP) =  -438.864765821     A.U. after   11 cycles
 SCF Done:  E(RB3LYP) =  -438.864771772     A.U. after   11 cycles
 SCF Done:  E(RB3LYP) =  -438.864777600     A.U. after   10 cycles
 SCF Done:  E(RB3LYP) =  -438.864778514     A.U. after    9 cycles
 SCF Done:  E(RB3LYP) =  -438.864778494     A.U. after    7 cycles
 SCF Done:  E(RB3LYP) =  -438.864778518     A.U. after    6 cycles
 Optimization completed.
    -- Stationary point found.

 1\1\GINC-NODE203\FOpt\RB3LYP\6-31G(d)\C7H13N3\VSC10255\08-Dec-2020\0\\
 # opt freq B3LYP/6-31G(d) empiricaldispersion=gd3bj scf=xqc\\CID_13846
 4245_JID_999_neutraal\\0,1\C,0.7248383823,0.1223771767,0.1057652285\C,
 0.5637639615,1.6341135939,-0.0778762774\C,1.0809739776,2.1567979235,-1
 .4253194556\C,0.4280113527,1.4932710952,-2.6580665209\C,-1.0655794395,
 1.5456660899,-2.6383280259\N,-1.873027438,0.5358316655,-2.3253933917\C
 ,-3.1125184439,1.0958484899,-2.3960192986\N,-3.1358510436,2.3773814764
 ,-2.7296647553\N,-1.8099512452,2.6550116936,-2.8851047532\C,-1.3898132

 Normal termination of Gaussian 16 at Tue Dec  8 13:44:24 2020.

 --------------------------------------------------------------------
 #N Geom=AllCheck Guess=TCheck SCRF=Check GenChk RB3LYP/6-31G(d) Freq
 --------------------------------------------------------------------

 Structure from the checkpoint file:  "JID_999.chk"
 ------------------------------
 CID_138464245_JID_999_neutraal
 ------------------------------
 Charge =  0 Multiplicity = 1

 SCF Done:  E(RB3LYP) =  -438.864778518     A.U. after    1 cycles

  Exact polarizability:  97.302  -1.944  95.599  -8.365   0.742  68.874
 Approx polarizability: 133.191  -1.062 144.265 -20.353  -1.219 105.540

                      1                      2                      3
                      A                      A                      A
 Frequencies --     36.5961                74.1103                86.4528
 Red. masses --      3.2874                 2.7088                 1.1895
 Frc consts  --      0.0026                 0.0088                 0.0052
 IR Inten    --      0.5150                 1.4415                 0.5706

                      4                      5                      6
                      A                      A                      A
 Frequencies --    115.7680               161.7072               198.4549
 Red. masses --      2.4704                 2.2887                 3.7090
 Frc consts  --      0.0195                 0.0353                 0.0861
 IR Inten    --      0.1081                 0.3129                 1.1345

                      7                      8                      9
                      A                      A                      A
 Frequencies --    242.5643               289.9268               321.2182
 Red. masses --      1.6459                 1.8055                 2.1033
 Frc consts  --      0.0571                 0.0894                 0.1279
 IR Inten    --      0.7304                 0.9663                 1.0454

                     10                     11                     12
                      A                      A                      A
 Frequencies --    379.6093               434.5166               487.3355
 Red. masses --      2.4092                 2.6000                 2.5699
 Frc consts  --      0.2045                 0.2892                 0.3596
 IR Inten    --      0.8656                 0.6248                 1.8605

                     13                     14                     15
                      A                      A                      A
 Frequencies --    653.8203               680.0505               716.3597
 Red. masses --      4.5005                 3.9964                 2.3650
 Frc consts  --      1.1335                 1.0889                 0.7151
 IR Inten    --      3.6980                11.2956                 7.0690

                     16                     17                     18
                      A                      A                      A
 Frequencies --    738.6976               782.4840               821.5976
 Red. masses --      3.8409                 1.5243                 2.6173
 Frc consts  --      1.2349                 0.5499                 1.0409
 IR Inten    --      5.1343                12.6756                 0.0624

                     19                     20                     21
                      A                      A                      A
 Frequencies --    889.9330               907.7247               949.3212
 Red. masses --      1.3789                 1.4553                 2.0784
 Frc consts  --      0.6434                 0.7065                 1.1036
 IR Inten    --      5.8822                 0.4272                 4.9543

                     22                     23                     24
                      A                      A                      A
 Frequencies --    982.9185               997.9327              1034.3855
 Red. masses --      1.8307                 5.4769                 2.2088
 Frc consts  --      1.0421                 3.2135                 1.3924
 IR Inten    --      3.4684                 2.4814                12.5513

                     25                     26                     27
                      A                      A                      A
 Frequencies --   1078.5906              1105.8891              1135.0129
 Red. masses --      1.9603                 1.4889                 1.8237
 Frc consts  --      1.3437                 1.0729                 1.3842
 IR Inten    --      4.0634                 4.8592                 3.3486

                     28                     29                     30
                      A                      A                      A
 Frequencies --   1158.7106              1184.7618              1221.7023
 Red. masses --      1.3226                 1.8373                 2.0546
 Frc consts  --      1.0462                 1.5194                 1.8068
 IR Inten    --      3.5659                17.3440                16.4132

                     31                     32                     33
                      A                      A                      A
 Frequencies --   1250.6503              1274.6075              1313.8458
 Red. masses --      1.6310                 1.3422                 4.1357
 Frc consts  --      1.5031                 1.2847                 4.2061
 IR Inten    --      0.9220                 0.7135                11.1722

                     34                     35                     36
                      A                      A                      A
 Frequencies --   1320.8207              1336.0069              1364.9739
 Red. masses --      2.7339                 1.3255                 1.4806
 Frc consts  --      2.8101                 1.3940                 1.6253
 IR Inten    --     12.8217                 7.5741                 5.7960

                     37                     38                     39
                      A                      A                      A
 Frequencies --   1397.4611              1407.9460              1443.3623
 Red. masses --      1.3455                 1.4719                 2.6695
 Frc consts  --      1.5481                 1.7191                 3.2767
 IR Inten    --      7.7869                 3.4632                24.4695

                     40                     41                     42
                      A                      A                      A
 Frequencies --   1445.3722              1473.3744              1506.9072
 Red. masses --      1.3680                 1.3700                 1.2077
 Frc consts  --      1.6838                 1.7522                 1.6158
 IR Inten    --     10.0346                 2.6933                 6.5457

                     43                     44                     45
                      A                      A                      A
 Frequencies --   1510.4381              1515.7527              1521.4893
 Red. masses --      1.1162                 1.3351                 1.1950
 Frc consts  --      1.5003                 1.8072                 1.6299
 IR Inten    --     19.5239                 5.7538                 4.7455

                     46                     47                     48
                      A                      A                      A
 Frequencies --   1522.0283              1533.3185              1542.9222
 Red. masses --      1.1568                 1.0913                 1.5272
 Frc consts  --      1.5790                 1.5117                 2.1420
 IR Inten    --      7.7709                 3.5216                32.7931

                     49                     50                     51
                      A                      A                      A
 Frequencies --   1550.2078              1574.5375              3032.3154
 Red. masses --      1.0542                 4.0575                 1.0608
 Frc consts  --      1.4926                 5.9267                 5.7471
 IR Inten    --      4.0774                18.8042                17.3328

                     52                     53                     54
                      A                      A                      A
 Frequencies --   3041.9270              3044.0828              3054.4515
 Red. masses --      1.0613                 1.0413                 1.0687
 Frc consts  --      5.7863                 5.6853                 5.8744
 IR Inten    --     25.7686                32.0570                28.1585

                     55                     56                     57
                      A                      A                      A
 Frequencies --   3066.1786              3071.7541              3079.8008
 Red. masses --      1.0983                 1.0408                 1.1011
 Frc consts  --      6.0835                 5.7861                 6.1534
 IR Inten    --     13.7843                41.2143                54.9609

                     58                     59                     60
                      A                      A                      A
 Frequencies --   3108.9725              3127.9251              3135.0246
 Red. masses --      1.0999                 1.0962                 1.0992
 Frc consts  --      6.2635                 6.3193                 6.3652
 IR Inten    --     41.6412                23.4239                17.1128

                     61                     62                     63
                      A                      A                      A
 Frequencies --   3145.0061              3177.0009              3273.5204
 Red. masses --      1.0991                 1.1056                 1.0969
 Frc consts  --      6.4052                 6.5750                 6.9255
 IR Inten    --     12.6231                 7.4486                 9.5862

 - Thermochemistry -
 -------------------
 Temperature   298.150 Kelvin.  Pressure   1.00000 Atm.
 Atom     1 has atomic number  6 and mass  12.00000

 Molecular mass:   139.11095 amu.
 Principal axes and moments of inertia in atomic units:
                           1         2         3
     Eigenvalues --   841.107831828.380452276.87697
           X            0.99950   0.03157   0.00208
           Y           -0.03159   0.99947   0.00830
           Z           -0.00182  -0.00836   0.99996
 This molecule is an asymmetric top.
 Rotational symmetry number  1.
 Warning -- assumption of classical behavior for rotation
           may cause significant error
 Rotational temperatures (Kelvin)      0.10298     0.04737     0.03804
 Rotational constants (GHZ):           2.14567     0.98707     0.79264
 Zero-point vibrational energy     532530.4 (Joules/Mol)
                                  127.27783 (Kcal/Mol)
 Warning -- explicit consideration of  12 degrees of freedom as
           vibrations may cause significant error
 Vibrational temperatures:     52.65   106.63   124.39   166.56   232.66
          (Kelvin)            285.53   349.00   417.14   462.16   546.17
                              625.17   701.17   940.70   978.44  1030.68
                             1062.82  1125.82  1182.10  1280.42  1306.01
                             1365.86  1414.20  1435.80  1488.25  1551.85
                             1591.13  1633.03  1667.13  1704.61  1757.76
                             1799.41  1833.88  1890.33  1900.37  1922.22
                             1963.89  2010.63  2025.72  2076.68  2079.57
                             2119.86  2168.10  2173.18  2180.83  2189.08
                             2189.86  2206.10  2219.92  2230.40  2265.41
                             4362.83  4376.65  4379.76  4394.67  4411.55
                             4419.57  4431.15  4473.12  4500.39  4510.60
                             4524.96  4571.00  4709.87

 Zero-point correction=                           0.202830 (Hartree/Particle)
 Thermal correction to Energy=                    0.213267
 Thermal correction to Enthalpy=                  0.214211
 Thermal correction to Gibbs Free Energy=         0.165978
 Sum of electronic and zero-point Energies=           -438.661948
 Sum of electronic and thermal Energies=              -438.651511
 Sum of electronic and thermal Enthalpies=            -438.650567
 Sum of electronic and thermal Free Energies=         -438.698801

                     E (Thermal)             CV                S
                      KCal/Mol        Cal/Mol-Kelvin    Cal/Mol-Kelvin
 Total                  133.827             37.431            101.516
 Electronic               0.000              0.000              0.000
 Translational            0.889              2.981             40.702
 Rotational               0.889              2.981             29.639
 Vibrational            132.050             31.469             31.175
 Vibration     1          0.594              1.982              5.435
 Vibration     2          0.599              1.966              4.041
 Vibration     3          0.601              1.959              3.739
 Vibration     4          0.608              1.936              3.170
 Vibration     5          0.622              1.889              2.530
 Vibration     6          0.637              1.842              2.147
 Vibration     7          0.659              1.775              1.784
 Vibration     8          0.686              1.692              1.474
 Vibration     9          0.707              1.633              1.304
 Vibration    10          0.750              1.514              1.041
 Vibration    11          0.795              1.395              0.844
 Vibration    12          0.843              1.278              0.691

 Optimization completed.
    -- Stationary point found.

 1\1\GINC-NODE203\Freq\RB3LYP\6-31G(d)\C7H13N3\VSC10255\08-Dec-2020\0\\
 #N Geom=AllCheck Guess=TCheck SCRF=Check GenChk RB3LYP/6-31G(d) Freq\\
 CID_138464245_JID_999_neutraal\\0,1\C,0.7248383823,0.1223771767,0.1057
 652285\C,0.5637639615,1.6341135939,-0.0778762774\C,1.0809739776,2.1567
 979235,-1.4253194556\C,0.4280113527,1.4932710952,-2.6580665209\C,-1.06
 55794395,1.5456660899,-2.6383280259\N,-1.873027438,0.5358316655,-2.325
 3933917\C,-3.1125184439,1.0958484899,-2.3960192986\N,-3.1358510436,2.3
 773814764,-2.7296647553\N,-1.8099512452,2.6550116936,-2.8851047532\C,-

 Normal termination of Gaussian 16 at Tue Dec  8 13:49:27 2020.

 ----------------------------------------------------------------------
 # B3LYP/6-311++G(d,p) empiricaldispersion=gd3bj scf=xqc pop=npa geom=c
 heck
 ----------------------------------------------------------------------

 --------------------------------------
 CID_138464245_JID_999_Energie_neutraal
 --------------------------------------
 Structure from the checkpoint file:  "JID_999.chk"
 Charge =  0 Multiplicity = 1

 SCF Done:  E(RB3LYP) =  -438.983838908     A.U. after   13 cycles
 Normal termination of Gaussian 16 at Tue Dec  8 13:51:57 2020.

 ----------------------------------------------------------------------
 # B3LYP/6-311++G(d,p) empiricaldispersion=gd3bj scf=xqc pop=npa geom=c
 heck
 ----------------------------------------------------------------------

 ------------------------------------
 CID_138464245_JID_999_Energie_kation
 ------------------------------------
 Structure from the checkpoint file:  "JID_999.chk"
 Charge =  1 Multiplicity = 2

 SCF Done:  E(UB3LYP) =  -438.644550823     A.U. after   23 cycles
 Normal termination of Gaussian 16 at Tue Dec  8 13:58:11 2020.
 Gaussian 16:  ES64L-G16RevA.03 25-Dec-2016

 -----------------------------------
 CID_138464245_JID_999_Energie_anion
 -----------------------------------
 Structure from the checkpoint file:  "JID_999.chk"
 Charge = -1 Multiplicity = 2

                         Standard orientation:
 ---------------------------------------------------------------------
 Center     Atomic      Atomic             Coordinates (Angstroms)
 Number     Number       Type             X           Y           Z
 ---------------------------------------------------------------------
      1          6           0       -2.928326   -0.966741   -0.211518
      2          6           0       -2.182724    0.182780   -0.895401
      3          6           0       -1.626415    1.231238    0.078028
      4          6           0       -0.667976    0.661460    1.147158
      5          6           0        0.456906   -0.136138    0.570593
      6          7           0        0.536007   -1.463929    0.551097
      7          6           0        1.696822   -1.696079   -0.122371
      8          7           0        2.344960   -0.612496   -0.522316
      9          7           0        1.536214    0.386728   -0.067639
     10          6           0        1.873977    1.768557   -0.342820
     11          1           0       -2.242655   -1.586113    0.374796
     12          1           0       -3.406803   -1.615243   -0.953494
     13          1           0       -3.713173   -0.589356    0.456649
     14          1           0       -1.359865   -0.229336   -1.493566
     15          1           0       -2.851573    0.692979   -1.600620
     16          1           0       -1.109077    2.013702   -0.493025
     17          1           0       -2.455551    1.726796    0.600293
     18          1           0       -0.277320    1.484198    1.759616
     19          1           0       -1.210665   -0.004788    1.822083
     20          1           0        2.079069   -2.688818   -0.317469
     21          1           0        2.954999    1.886139   -0.252698
     22          1           0        1.564362    2.052512   -1.353927
     23          1           0        1.374403    2.414745    0.381362
 ---------------------------------------------------------------------

 SCF Done:  E(UB3LYP) =  -438.971031817     A.U. after   27 cycles

 The electronic state is 2-A.
 Alpha  occ. eigenvalues --  -14.29088 -14.23114 -14.19684 -10.13481 -10.11372
 Alpha  occ. eigenvalues --  -10.10340 -10.07525 -10.06154 -10.05811 -10.05148
 Alpha  occ. eigenvalues --   -0.97166  -0.79846  -0.74726  -0.69159  -0.63540
 Alpha  occ. eigenvalues --   -0.60922  -0.55317  -0.51980  -0.48529  -0.45779
 Alpha  occ. eigenvalues --   -0.40615  -0.38709  -0.35846  -0.35389  -0.34510
 Alpha  occ. eigenvalues --   -0.31918  -0.30797  -0.30418  -0.28576  -0.28524
 Alpha  occ. eigenvalues --   -0.27175  -0.23280  -0.22690  -0.22381  -0.21847
 Alpha  occ. eigenvalues --   -0.18280  -0.17662  -0.15547   0.04763
 Alpha virt. eigenvalues --    0.07463   0.08332   0.08596   0.09340   0.10230
 Alpha virt. eigenvalues --    0.10506   0.11022   0.11259   0.12324   0.13169
 Alpha virt. eigenvalues --    0.13795   0.14028   0.14282   0.15083   0.15821

  Beta  occ. eigenvalues --  -14.29072 -14.23094 -14.19678 -10.13468 -10.11373
  Beta  occ. eigenvalues --  -10.10267 -10.07501 -10.06116 -10.05793 -10.05133
  Beta  occ. eigenvalues --   -0.97139  -0.79819  -0.74686  -0.69112  -0.63483
  Beta  occ. eigenvalues --   -0.60849  -0.55254  -0.51967  -0.48458  -0.45695
  Beta  occ. eigenvalues --   -0.40549  -0.38635  -0.35807  -0.35332  -0.34463
  Beta  occ. eigenvalues --   -0.31882  -0.30734  -0.30350  -0.28539  -0.28476
  Beta  occ. eigenvalues --   -0.27137  -0.23231  -0.22649  -0.22335  -0.21809
  Beta  occ. eigenvalues --   -0.18211  -0.17639  -0.15473
  Beta virt. eigenvalues --    0.07432   0.08470   0.08608   0.09297   0.09665
  Beta virt. eigenvalues --    0.10736   0.11114   0.11762   0.11915   0.12721
  Beta virt. eigenvalues --    0.13468   0.14132   0.14356   0.14593   0.15576

 Mulliken charges and spin densities:
               1          2
     1  C    0.383174  -1.090456
     2  C   -0.414600   0.393182
     3  C    0.754131  -0.960143
     4  C    0.313760  -0.786650
     5  C   -0.360217   0.002095
     6  N   -0.115488   0.044908
     7  C    0.023662   0.035090
     8  N   -0.237840   0.069750
     9  N   -0.189257   0.316996
    10  C    1.947788  -2.259460
    11  H    0.082592   0.089714
    12  H    0.024930   0.093905
    13  H   -0.055509   0.185165
    14  H    0.003782   0.142361
    15  H   -0.478478   0.647632
    16  H   -0.106775   0.258130
    17  H   -0.691121   0.864735
    18  H   -0.539391   0.743492
    19  H    0.155778   0.015803
    20  H    0.109145   0.037736
    21  H   -0.182311   0.343442
    22  H   -0.681996   0.888738
    23  H   -0.745757   0.923835
 Sum of Mulliken charges =  -1.00000   1.00000

 Dipole moment (field-independent basis, Debye):
    X=              1.0135    Y=             -7.3151    Z=              0.3499  Tot=              7.3933
 Quadrupole moment (field-independent basis, Debye-Ang):
   XX=           -111.5300   YY=           -112.3240   ZZ=            -94.1418
   XY=             -0.9066   XZ=              0.8106   YZ=              0.7012

 Summary of Natural Population Analysis:

                                       Natural Population
                Natural  -----------------------------------------------
    Atom  No    Charge         Core      Valence    Rydberg      Total
 -----------------------------------------------------------------------
      C    1   -0.29097      0.99966     2.28585    0.00545     3.29097
      C    2   -0.19263      0.99964     2.18419    0.00880     3.19263
      C    3   -0.18358      0.99962     2.17421    0.00976     3.18358
      C    4   -0.21756      0.99959     2.20774    0.01024     3.21756
      C    5    0.20694      0.99959     1.77519    0.01829     2.79306
      N    6   -0.27357      0.99970     2.76536    0.00852     3.77357
      C    7    0.08411      0.99970     1.89778    0.01841     2.91589
      N    8   -0.16233      0.99973     2.65148    0.01111     3.66233
      N    9   -0.11483      0.99961     2.60208    0.01315     3.61483
      C   10   -0.17470      0.99963     2.16654    0.00853     3.17470
      H   11    0.10427      0.00000     0.39442    0.00131     0.39573
      H   12    0.09564      0.00000     0.40365    0.00071     0.40436
      H   13    0.09373      0.00000     0.40536    0.00091     0.40627
      H   14    0.09457      0.00000     0.40409    0.00134     0.40543
      H   15    0.09764      0.00000     0.40102    0.00134     0.40236
      H   16    0.10157      0.00000     0.39519    0.00324     0.39843
      H   17    0.09930      0.00000     0.39802    0.00268     0.40070
      H   18    0.11422      0.00000     0.38337    0.00241     0.38578
      H   19    0.11047      0.00000     0.38806    0.00147     0.38953
      H   20    0.08846      0.00000     0.41077    0.00077     0.41154
      H   21    0.10515      0.00000     0.39333    0.00152     0.39485
      H   22    0.10506      0.00000     0.39218    0.00277     0.39494
      H   23    0.10907      0.00000     0.38739    0.00354     0.39093
 =======================================================================
   * Total *   -0.00000      9.99648    27.86727    0.13625    38.00000

 Normal termination of Gaussian 16 at Tue Dec  8 14:08:11 2020.
