 Gaussian 16, Revision A.03,

 -----------------------------------------------------------
 # opt freq B3LYP/6-31G(d) empiricaldispersion=gd3bj scf=xqc
 -----------------------------------------------------------

 -------------------------------
 CID_133055954_JID_2157_neutraal
 -------------------------------
 Symbolic Z-matrix:
 Charge =  0 Multiplicity = 1

 SCF Done:  E(RB3LYP) =  -1235.45139026     A.U. after   16 cycles
 SCF Done:  E(RB3LYP) =  -1235.46462435     A.U. after   13 cycles
 SCF Done:  E(RB3LYP) =  -1235.46565996     A.U. after   12 cycles
 SCF Done:  E(RB3LYP) =  -1235.46572226     A.U. after   11 cycles
 SCF Done:  E(RB3LYP) =  -1235.46579392     A.U. after   12 cycles
 SCF Done:  E(RB3LYP) =  -1235.46585376     A.U. after   12 cycles
 SCF Done:  E(RB3LYP) =  -1235.46590227     A.U. after   12 cycles
 SCF Done:  E(RB3LYP) =  -1235.46603936     A.U. after   12 cycles
 SCF Done:  E(RB3LYP) =  -1235.46635549     A.U. after   12 cycles
 SCF Done:  E(RB3LYP) =  -1235.46647418     A.U. after   11 cycles
 SCF Done:  E(RB3LYP) =  -1235.46657021     A.U. after    8 cycles
 SCF Done:  E(RB3LYP) =  -1235.46657047     A.U. after    7 cycles
 SCF Done:  E(RB3LYP) =  -1235.46657066     A.U. after    7 cycles
 SCF Done:  E(RB3LYP) =  -1235.46657076     A.U. after    7 cycles
 SCF Done:  E(RB3LYP) =  -1235.46657079     A.U. after    7 cycles
 Optimization completed.
    -- Stationary point found.
 Normal termination of Gaussian 16 at Wed Dec  9 16:52:13 2020.

 --------------------------------------------------------------------
 #N Geom=AllCheck Guess=TCheck SCRF=Check GenChk RB3LYP/6-31G(d) Freq
 --------------------------------------------------------------------

 Structure from the checkpoint file:  "JID_2157.chk"
 -------------------------------
 CID_133055954_JID_2157_neutraal
 -------------------------------
 Charge =  0 Multiplicity = 1

 SCF Done:  E(RB3LYP) =  -1235.46657079     A.U. after    1 cycles

  Exact polarizability: 167.172  -7.549 140.508  -1.584   1.256  56.627
 Approx polarizability: 259.034  -8.554 261.097  -1.741   5.381  91.051

                      1                      2                      3
                      A                      A                      A
 Frequencies --     57.9267               109.8403               115.6128
 Red. masses --      5.6112                 1.5089                 3.8664
 Frc consts  --      0.0111                 0.0107                 0.0304
 IR Inten    --      9.0803                 0.4269                 1.8591

                      4                      5                      6
                      A                      A                      A
 Frequencies --    134.0532               138.2054               229.4222
 Red. masses --      3.3004                 3.8407                 7.1265
 Frc consts  --      0.0349                 0.0432                 0.2210
 IR Inten    --      2.1394                 6.8393                 0.6654

                      7                      8                      9
                      A                      A                      A
 Frequencies --    259.5219               273.8324               332.6080
 Red. masses --      4.0146                 4.5234                 5.6275
 Frc consts  --      0.1593                 0.1998                 0.3668
 IR Inten    --      0.6689                 0.4821                 0.7685

                     10                     11                     12
                      A                      A                      A
 Frequencies --    374.9372               397.5768               437.5398
 Red. masses --      8.2310                 4.7244                 1.3085
 Frc consts  --      0.6817                 0.4400                 0.1476
 IR Inten    --      2.7355                23.8457               152.0920

                     13                     14                     15
                      A                      A                      A
 Frequencies --    472.3611               477.5209               504.3992
 Red. masses --      3.6647                 7.3494                 3.3103
 Frc consts  --      0.4818                 0.9874                 0.4962
 IR Inten    --     14.0515                 1.6085                24.2579

                     16                     17                     18
                      A                      A                      A
 Frequencies --    567.7120               595.9693               626.9862
 Red. masses --      1.5835                 3.6425                 4.4876
 Frc consts  --      0.3007                 0.7623                 1.0394
 IR Inten    --     41.2779                15.7070                16.1088

                     19                     20                     21
                      A                      A                      A
 Frequencies --    658.9506               671.7860               696.3235
 Red. masses --      7.4501                 4.9378                 5.0350
 Frc consts  --      1.9060                 1.3129                 1.4384
 IR Inten    --      5.4366                20.5269                32.4786

                     22                     23                     24
                      A                      A                      A
 Frequencies --    732.7101               800.5432               842.5167
 Red. masses --      1.4313                 4.5623                 4.5137
 Frc consts  --      0.4527                 1.7227                 1.8877
 IR Inten    --     37.7860                 6.1677                10.3294

                     25                     26                     27
                      A                      A                      A
 Frequencies --    868.9167               902.1525              1013.1298
 Red. masses --      1.3887                 6.8653                 1.5981
 Frc consts  --      0.6178                 3.2921                 0.9665
 IR Inten    --     16.3217                15.6920                 1.4213

                     28                     29                     30
                      A                      A                      A
 Frequencies --   1073.9682              1099.0243              1103.2277
 Red. masses --      1.3986                 3.8994                 3.3643
 Frc consts  --      0.9504                 2.7750                 2.4126
 IR Inten    --      1.3598                22.3503                12.0552

                     31                     32                     33
                      A                      A                      A
 Frequencies --   1131.3159              1147.8708              1211.8871
 Red. masses --      2.0240                 2.2907                 1.6350
 Frc consts  --      1.5263                 1.7783                 1.4148
 IR Inten    --      0.6095                17.7515                17.7952

                     34                     35                     36
                      A                      A                      A
 Frequencies --   1281.6947              1375.8544              1432.1982
 Red. masses --      1.9086                 4.4090                 7.7117
 Frc consts  --      1.8473                 4.9174                 9.3198
 IR Inten    --     36.5605               165.0906                63.1388

                     37                     38                     39
                      A                      A                      A
 Frequencies --   1442.8562              1497.3021              1506.5804
 Red. masses --      1.2797                 3.8869                 1.0421
 Frc consts  --      1.5697                 5.1343                 1.3936
 IR Inten    --      1.9442                20.5283                 8.2116

                     40                     41                     42
                      A                      A                      A
 Frequencies --   1523.7965              1541.5816              1615.6401
 Red. masses --      1.3036                 6.7597                 6.0106
 Frc consts  --      1.7834                 9.4648                 9.2439
 IR Inten    --      9.0637                53.8485                 9.9331

                     43                     44                     45
                      A                      A                      A
 Frequencies --   1647.3415              1781.3999              3045.3737
 Red. masses --      1.2494                 8.2079                 1.0367
 Frc consts  --      1.9976                15.3464                 5.6646
 IR Inten    --    159.7792               237.4332                38.3897

                     46                     47                     48
                      A                      A                      A
 Frequencies --   3097.1382              3133.3641              3255.6867
 Red. masses --      1.1019                 1.1005                 1.0934
 Frc consts  --      6.2273                 6.3658                 6.8286
 IR Inten    --     16.2285                 9.9642                 2.7142

                     49                     50                     51
                      A                      A                      A
 Frequencies --   3265.6345              3576.2796              3694.5506
 Red. masses --      1.0933                 1.0461                 1.1021
 Frc consts  --      6.8695                 7.8829                 8.8636
 IR Inten    --      1.0556                36.5862                25.0267

 - Thermochemistry -
 -------------------
 Temperature   298.150 Kelvin.  Pressure   1.00000 Atm.
 Atom     1 has atomic number  6 and mass  12.00000

 Molecular mass:   196.99691 amu.
 Principal axes and moments of inertia in atomic units:
                           1         2         3
     Eigenvalues --  1596.105993146.348484703.69995
           X            0.99871  -0.05061  -0.00421
           Y            0.05060   0.99871  -0.00289
           Z            0.00435   0.00268   0.99999
 This molecule is an asymmetric top.
 Rotational symmetry number  1.
 Warning -- assumption of classical behavior for rotation
           may cause significant error
 Rotational temperatures (Kelvin)      0.05427     0.02753     0.01841
 Rotational constants (GHZ):           1.13072     0.57360     0.38369
 Zero-point vibrational energy     357531.6 (Joules/Mol)
                                   85.45211 (Kcal/Mol)
 Warning -- explicit consideration of  17 degrees of freedom as
           vibrations may cause significant error
 Vibrational temperatures:     83.34   158.04   166.34   192.87   198.85
          (Kelvin)            330.09   373.39   393.98   478.55   539.45
                              572.02   629.52   679.62   687.05   725.72
                              816.81   857.47   902.09   948.08   966.55
                             1001.85  1054.21  1151.80  1212.19  1250.18
                             1298.00  1457.67  1545.20  1581.25  1587.30
                             1627.71  1651.53  1743.64  1844.07  1979.55
                             2060.61  2075.95  2154.28  2167.63  2192.40
                             2217.99  2324.55  2370.16  2563.04  4381.61
                             4456.09  4508.21  4684.21  4698.52  5145.47
                             5315.63

 Zero-point correction=                           0.136177 (Hartree/Particle)
 Thermal correction to Energy=                    0.147481
 Thermal correction to Enthalpy=                  0.148426
 Thermal correction to Gibbs Free Energy=         0.098448
 Sum of electronic and zero-point Energies=          -1235.330394
 Sum of electronic and thermal Energies=             -1235.319089
 Sum of electronic and thermal Enthalpies=           -1235.318145
 Sum of electronic and thermal Free Energies=        -1235.368123

                     E (Thermal)             CV                S
                      KCal/Mol        Cal/Mol-Kelvin    Cal/Mol-Kelvin
 Total                   92.546             42.330            105.187
 Electronic               0.000              0.000              0.000
 Translational            0.889              2.981             41.739
 Rotational               0.889              2.981             31.536
 Vibrational             90.768             36.368             31.913
 Vibration     1          0.596              1.974              4.527
 Vibration     2          0.606              1.941              3.272
 Vibration     3          0.608              1.936              3.172
 Vibration     4          0.613              1.919              2.887
 Vibration     5          0.614              1.915              2.829
 Vibration     6          0.652              1.796              1.883
 Vibration     7          0.668              1.747              1.665
 Vibration     8          0.676              1.722              1.572
 Vibration     9          0.715              1.610              1.247
 Vibration    10          0.746              1.523              1.060
 Vibration    11          0.764              1.475              0.972
 Vibration    12          0.798              1.388              0.834
 Vibration    13          0.829              1.311              0.731
 Vibration    14          0.834              1.300              0.717
 Vibration    15          0.860              1.240              0.647
 Vibration    16          0.924              1.101              0.509
 Vibration    17          0.954              1.040              0.457

 Optimization completed.
    -- Stationary point found.
 Normal termination of Gaussian 16 at Wed Dec  9 16:55:49 2020.

 ----------------------------------------------------------------------
 # B3LYP/6-311++G(d,p) empiricaldispersion=gd3bj scf=xqc pop=npa geom=c
 heck
 ----------------------------------------------------------------------

 ---------------------------------------
 CID_133055954_JID_2157_Energie_neutraal
 ---------------------------------------
 Structure from the checkpoint file:  "JID_2157.chk"
 Charge =  0 Multiplicity = 1

 SCF Done:  E(RB3LYP) =  -1235.64467018     A.U. after   17 cycles
 Normal termination of Gaussian 16 at Wed Dec  9 16:57:37 2020.

 ----------------------------------------------------------------------
 # B3LYP/6-311++G(d,p) empiricaldispersion=gd3bj scf=xqc pop=npa geom=c
 heck
 ----------------------------------------------------------------------

 -------------------------------------
 CID_133055954_JID_2157_Energie_kation
 -------------------------------------
 Structure from the checkpoint file:  "JID_2157.chk"
 Charge =  1 Multiplicity = 2

 SCF Done:  E(UB3LYP) =  -1235.34989142     A.U. after   29 cycles
 Normal termination of Gaussian 16 at Wed Dec  9 17:01:51 2020.
 Gaussian 16:  ES64L-G16RevA.03 25-Dec-2016

 ----------------------------------------------------------------------
 # B3LYP/6-311++G(d,p) empiricaldispersion=gd3bj scf=xqc pop=npa geom=c
 heck
 ----------------------------------------------------------------------

 ------------------------------------
 CID_133055954_JID_2157_Energie_anion
 ------------------------------------
 Structure from the checkpoint file:  "JID_2157.chk"
 Charge = -1 Multiplicity = 2

                         Standard orientation:
 ---------------------------------------------------------------------
 Center     Atomic      Atomic             Coordinates (Angstroms)
 Number     Number       Type             X           Y           Z
 ---------------------------------------------------------------------
      1          6           0        3.381920   -1.879543    0.069468
      2          6           0        2.182603   -0.983723    0.042737
      3          6           0        0.864166   -1.330830    0.015096
      4          6           0       -0.012556   -0.196134   -0.013508
      5          6           0        0.686736    1.003669   -0.010762
      6         16           0        2.406374    0.777986    0.033911
      7         16           0       -0.351558    2.394562   -0.055219
      8          6           0       -1.752193    1.351877   -0.062335
      9          6           0       -1.435616    0.016820   -0.034166
     10          6           0       -2.406755   -1.110024   -0.040030
     11          8           0       -2.072385   -2.253477   -0.326894
     12          7           0       -3.710661   -0.784379    0.262009
     13          1           0        3.995860   -1.715293    0.963285
     14          1           0        4.025156   -1.728368   -0.805810
     15          1           0        3.055358   -2.923685    0.071486
     16          1           0        0.508656   -2.352999    0.001152
     17          1           0       -2.732956    1.801469   -0.138430
     18          1           0       -3.896640    0.019607    0.844573
     19          1           0       -4.328596   -1.575695    0.386762
 ---------------------------------------------------------------------

 SCF Done:  E(UB3LYP) =  -1235.64094646     A.U. after   33 cycles
 SCF Done:  E(UB3LYP) =  -1235.64094646     a.u. after    1 cycles

 The electronic state is 2-A.
 Alpha  occ. eigenvalues --  -88.75903 -88.74273 -18.93542 -14.18309 -10.11779
 Alpha  occ. eigenvalues --  -10.09151 -10.08505 -10.08414 -10.05535 -10.05087
 Alpha  occ. eigenvalues --  -10.04751 -10.03405  -7.84486  -7.82857  -5.80806
 Alpha  occ. eigenvalues --   -5.80455  -5.80015  -5.79197  -5.78806  -5.78419
 Alpha  occ. eigenvalues --   -0.88840  -0.77661  -0.75779  -0.71636  -0.64453
 Alpha  occ. eigenvalues --   -0.63261  -0.58283  -0.55253  -0.47648  -0.43500
 Alpha  occ. eigenvalues --   -0.42620  -0.40653  -0.39143  -0.34583  -0.33300
 Alpha  occ. eigenvalues --   -0.32487  -0.32310  -0.28857  -0.28424  -0.26248
 Alpha  occ. eigenvalues --   -0.26000  -0.25627  -0.25402  -0.22754  -0.21906
 Alpha  occ. eigenvalues --   -0.20169  -0.15439  -0.13875  -0.11340  -0.09996
 Alpha  occ. eigenvalues --   -0.09597   0.05397
 Alpha virt. eigenvalues --    0.07189   0.08316   0.09316   0.10314   0.10457
 Alpha virt. eigenvalues --    0.10764   0.11906   0.12166   0.12667   0.13428
 Alpha virt. eigenvalues --    0.14387   0.15155   0.15612   0.15841   0.15929

  Beta  occ. eigenvalues --  -88.75903 -88.74227 -18.93312 -14.18239 -10.11609
  Beta  occ. eigenvalues --  -10.09178 -10.08412 -10.08372 -10.05524 -10.05130
  Beta  occ. eigenvalues --  -10.04335 -10.03307  -7.84486  -7.82816  -5.80809
  Beta  occ. eigenvalues --   -5.80457  -5.80011  -5.79177  -5.78790  -5.78260
  Beta  occ. eigenvalues --   -0.88436  -0.77531  -0.75588  -0.71443  -0.64332
  Beta  occ. eigenvalues --   -0.63141  -0.58025  -0.54981  -0.47061  -0.43291
  Beta  occ. eigenvalues --   -0.42397  -0.40517  -0.39038  -0.34409  -0.33316
  Beta  occ. eigenvalues --   -0.32343  -0.32235  -0.28541  -0.27823  -0.26076
  Beta  occ. eigenvalues --   -0.25750  -0.25277  -0.25055  -0.22652  -0.21662
  Beta  occ. eigenvalues --   -0.19482  -0.15170  -0.13114  -0.11097  -0.09411
  Beta  occ. eigenvalues --   -0.08372
  Beta virt. eigenvalues --    0.07148   0.09112   0.09328   0.10337   0.10610
  Beta virt. eigenvalues --    0.10913   0.11103   0.12021   0.12138   0.13278
  Beta virt. eigenvalues --    0.13604   0.14442   0.15151   0.15669   0.15920

 Mulliken charges and spin densities:
               1          2
     1  C   -0.282842  -0.032933
     2  C   -0.107991  -0.090046
     3  C    0.165786  -0.004360
     4  C   -1.108767  -0.089709
     5  C    1.863310   0.049512
     6  S   -0.711350   0.022891
     7  S   -0.516857  -0.031834
     8  C    0.580449   0.017623
     9  C   -0.232492   0.124442
    10  C   -0.158417  -0.131538
    11  O   -0.413740   0.071833
    12  N   -0.263616  -0.089736
    13  H    0.143779  -0.000873
    14  H    0.140947   0.003386
    15  H    0.147798  -0.000660
    16  H    0.193183   0.013048
    17  H   -0.158738   0.384581
    18  H   -0.297915   0.528199
    19  H    0.017475   0.256174
 Sum of Mulliken charges =  -1.00000   1.00000

 Dipole moment (field-independent basis, Debye):
    X=              8.1639    Y=              0.1347    Z=             -0.6896  Tot=              8.1941
 Quadrupole moment (field-independent basis, Debye-Ang):
   XX=           -128.5763   YY=           -109.7970   ZZ=            -99.6921
   XY=             -6.8293   XZ=              5.5852   YZ=             -2.9460

 Summary of Natural Population Analysis:

                                       Natural Population
                Natural  -----------------------------------------------
    Atom  No    Charge         Core      Valence    Rydberg      Total
 -----------------------------------------------------------------------
      C    1   -0.29610      0.99961     2.29112    0.00536     3.29610
      C    2   -0.10863      0.99950     2.09877    0.01036     3.10863
      C    3   -0.10682      0.99942     2.09869    0.00871     3.10682
      C    4   -0.06044      0.99939     2.04974    0.01132     3.06044
      C    5   -0.18443      0.99935     2.17362    0.01146     3.18443
      S    6    0.17841      4.99935     2.80049    0.02174     7.82159
      S    7    0.21080      4.99936     2.76544    0.02440     7.78920
      C    8   -0.09384      0.99950     2.08248    0.01186     3.09384
      C    9   -0.07539      0.99940     2.06463    0.01136     3.07539
      C   10    0.35338      0.99965     1.62372    0.02325     2.64662
      O   11   -0.31390      0.99988     3.30842    0.00560     4.31390
      N   12   -0.40993      0.99972     2.90103    0.00919     3.90993
      H   13    0.09867      0.00000     0.40013    0.00120     0.40133
      H   14    0.09872      0.00000     0.40008    0.00120     0.40128
      H   15    0.10545      0.00000     0.39361    0.00094     0.39455
      H   16    0.11891      0.00000     0.38010    0.00099     0.38109
      H   17    0.10455      0.00000     0.39410    0.00135     0.39545
      H   18    0.19382      0.00000     0.29780    0.00838     0.30618
      H   19    0.18677      0.00000     0.31081    0.00243     0.31323
 =======================================================================
   * Total *    0.00000     19.99412    30.83478    0.17110    51.00000

 Normal termination of Gaussian 16 at Wed Dec  9 17:07:16 2020.
