 Gaussian 16, Revision A.03,

 -----------------------------------------------------------
 # opt freq B3LYP/6-31G(d) empiricaldispersion=gd3bj scf=xqc
 -----------------------------------------------------------

 ------------------------------
 CID_64409616_JID_5020_neutraal
 ------------------------------
 Symbolic Z-matrix:
 Charge =  0 Multiplicity = 1

 SCF Done:  E(RB3LYP) =  -641.674606709     A.U. after   13 cycles
 SCF Done:  E(RB3LYP) =  -641.677919982     A.U. after   11 cycles
 SCF Done:  E(RB3LYP) =  -641.677465643     A.U. after   10 cycles
 SCF Done:  E(RB3LYP) =  -641.678578323     A.U. after   10 cycles
 SCF Done:  E(RB3LYP) =  -641.678745645     A.U. after   10 cycles
 SCF Done:  E(RB3LYP) =  -641.678796213     A.U. after   10 cycles
 SCF Done:  E(RB3LYP) =  -641.678814838     A.U. after    9 cycles
 SCF Done:  E(RB3LYP) =  -641.678819185     A.U. after    8 cycles
 SCF Done:  E(RB3LYP) =  -641.678820624     A.U. after    7 cycles
 SCF Done:  E(RB3LYP) =  -641.678820953     A.U. after    7 cycles
 SCF Done:  E(RB3LYP) =  -641.678820991     A.U. after    6 cycles
 Optimization completed.
    -- Stationary point found.
 Normal termination of Gaussian 16 at Thu Dec 10 14:45:51 2020.

 --------------------------------------------------------------------
 #N Geom=AllCheck Guess=TCheck SCRF=Check GenChk RB3LYP/6-31G(d) Freq
 --------------------------------------------------------------------

 Structure from the checkpoint file:  "JID_5020.chk"
 ------------------------------
 CID_64409616_JID_5020_neutraal
 ------------------------------
 Charge =  0 Multiplicity = 1

 SCF Done:  E(RB3LYP) =  -641.678820991     A.U. after    1 cycles

  Exact polarizability: 161.623   2.068 147.002  -0.235   0.662 128.803
 Approx polarizability: 202.857  -1.903 196.949  -0.613   2.440 192.684

                      1                      2                      3
                      A                      A                      A
 Frequencies --     32.9468                39.8707                49.4553
 Red. masses --      3.5485                 3.1084                 3.2244
 Frc consts  --      0.0023                 0.0029                 0.0046
 IR Inten    --      0.0543                 0.1284                 0.2033

                      4                      5                      6
                      A                      A                      A
 Frequencies --     88.0159                91.0551               100.9895
 Red. masses --      2.7398                 3.0206                 2.0200
 Frc consts  --      0.0125                 0.0148                 0.0121
 IR Inten    --      0.8564                 0.6019                 3.3715

                      7                      8                      9
                      A                      A                      A
 Frequencies --    122.5377               151.6240               186.5085
 Red. masses --      2.9249                 2.5896                 1.7162
 Frc consts  --      0.0259                 0.0351                 0.0352
 IR Inten    --      0.6928                 0.0877                 1.1907

                     10                     11                     12
                      A                      A                      A
 Frequencies --    192.3617               221.7809               242.5576
 Red. masses --      3.3049                 1.4448                 1.1059
 Frc consts  --      0.0721                 0.0419                 0.0383
 IR Inten    --      0.3976                 0.8753                 0.7080

                     13                     14                     15
                      A                      A                      A
 Frequencies --    244.4668               262.4059               296.5653
 Red. masses --      1.7538                 1.7307                 2.3304
 Frc consts  --      0.0618                 0.0702                 0.1208
 IR Inten    --      1.5373                 1.0418                 2.9370

                     16                     17                     18
                      A                      A                      A
 Frequencies --    309.0570               313.8745               355.4149
 Red. masses --      1.9542                 2.1584                 2.4856
 Frc consts  --      0.1100                 0.1253                 0.1850
 IR Inten    --      0.0503                 0.4623                 0.2940

                     19                     20                     21
                      A                      A                      A
 Frequencies --    370.8721               407.8508               422.3341
 Red. masses --      2.3914                 2.8700                 2.5197
 Frc consts  --      0.1938                 0.2813                 0.2648
 IR Inten    --      0.3861                 2.2380                 0.3965

                     22                     23                     24
                      A                      A                      A
 Frequencies --    447.2830               481.6348               494.0651
 Red. masses --      2.0705                 2.3963                 2.2311
 Frc consts  --      0.2441                 0.3275                 0.3209
 IR Inten    --      0.1512                 5.3893                 1.8337

                     25                     26                     27
                      A                      A                      A
 Frequencies --    515.2092               619.7578               698.0484
 Red. masses --      2.0644                 2.3514                 2.2090
 Frc consts  --      0.3229                 0.5321                 0.6342
 IR Inten    --      0.4723                19.2073                30.8208

                     28                     29                     30
                      A                      A                      A
 Frequencies --    727.8636               760.9361               767.9059
 Red. masses --      2.5739                 2.0846                 1.3873
 Frc consts  --      0.8034                 0.7112                 0.4820
 IR Inten    --     17.5302                19.5464                 4.9463

                     31                     32                     33
                      A                      A                      A
 Frequencies --    820.3245               852.4761               861.5179
 Red. masses --      2.2391                 1.9466                 1.6238
 Frc consts  --      0.8878                 0.8335                 0.7101
 IR Inten    --      4.1980                 0.9116                 0.3875

                     34                     35                     36
                      A                      A                      A
 Frequencies --    873.4150               883.1639               894.4833
 Red. masses --      2.1127                 2.2865                 1.5490
 Frc consts  --      0.9496                 1.0508                 0.7302
 IR Inten    --      2.5834                 0.8811                 4.1214

                     37                     38                     39
                      A                      A                      A
 Frequencies --    916.4969               944.2047               979.7455
 Red. masses --      1.8940                 1.9136                 2.0622
 Frc consts  --      0.9374                 1.0051                 1.1663
 IR Inten    --      2.9246                 1.4000                 0.3701

                     40                     41                     42
                      A                      A                      A
 Frequencies --    984.9526               992.1255              1006.8632
 Red. masses --      1.5215                 1.5707                 1.7709
 Frc consts  --      0.8697                 0.9109                 1.0577
 IR Inten    --      3.3254                 2.7146                14.9406

                     43                     44                     45
                      A                      A                      A
 Frequencies --   1031.5908              1052.6383              1075.0270
 Red. masses --      1.8292                 1.7326                 2.1178
 Frc consts  --      1.1469                 1.1311                 1.4420
 IR Inten    --      2.8665                 2.3174                 2.7408

                     46                     47                     48
                      A                      A                      A
 Frequencies --   1091.8369              1094.1025              1119.7805
 Red. masses --      1.6980                 1.9371                 2.3869
 Frc consts  --      1.1926                 1.3662                 1.7634
 IR Inten    --      3.3697                16.0790                14.5488

                     49                     50                     51
                      A                      A                      A
 Frequencies --   1128.2488              1135.2934              1148.4659
 Red. masses --      1.9690                 1.5172                 1.8562
 Frc consts  --      1.4767                 1.1522                 1.4425
 IR Inten    --     11.2878                 9.9901                43.7603

                     52                     53                     54
                      A                      A                      A
 Frequencies --   1163.2693              1172.9261              1181.0185
 Red. masses --      2.0670                 1.6338                 2.7083
 Frc consts  --      1.6479                 1.3244                 2.2257
 IR Inten    --     28.4113                12.2190                90.2313

                     55                     56                     57
                      A                      A                      A
 Frequencies --   1198.6621              1213.6408              1228.5591
 Red. masses --      1.4341                 2.8529                 1.6497
 Frc consts  --      1.2140                 2.4759                 1.4670
 IR Inten    --      2.6300                26.8347                26.6937

                     58                     59                     60
                      A                      A                      A
 Frequencies --   1244.2501              1261.3634              1287.6597
 Red. masses --      1.5237                 1.3371                 1.2246
 Frc consts  --      1.3898                 1.2534                 1.1963
 IR Inten    --      2.7581                17.3712                10.5545

                     61                     62                     63
                      A                      A                      A
 Frequencies --   1300.7179              1305.1282              1322.5021
 Red. masses --      1.2297                 1.2644                 1.3608
 Frc consts  --      1.2257                 1.2689                 1.4023
 IR Inten    --     17.4850                 3.2095                17.1833

                     64                     65                     66
                      A                      A                      A
 Frequencies --   1329.6932              1352.0287              1357.5069
 Red. masses --      1.3417                 1.3388                 1.2902
 Frc consts  --      1.3977                 1.4419                 1.4009
 IR Inten    --      4.0663                 0.8472                 2.4300

                     67                     68                     69
                      A                      A                      A
 Frequencies --   1365.5730              1369.0546              1392.4745
 Red. masses --      1.2742                 1.2905                 1.4796
 Frc consts  --      1.4000                 1.4251                 1.6903
 IR Inten    --      8.3540                 2.7262                 0.0153

                     70                     71                     72
                      A                      A                      A
 Frequencies --   1393.3521              1398.6557              1400.4629
 Red. masses --      1.4133                 1.4272                 1.4161
 Frc consts  --      1.6166                 1.6449                 1.6364
 IR Inten    --      5.2685                 1.0722                 4.1412

                     73                     74                     75
                      A                      A                      A
 Frequencies --   1414.5608              1421.3653              1427.6788
 Red. masses --      1.4355                 1.5298                 1.2929
 Frc consts  --      1.6924                 1.8209                 1.5527
 IR Inten    --      2.4010                 0.8175                22.9569

                     76                     77                     78
                      A                      A                      A
 Frequencies --   1438.4920              1442.5742              1443.0900
 Red. masses --      1.2381                 1.2602                 1.3139
 Frc consts  --      1.5094                 1.5452                 1.6122
 IR Inten    --      2.7731                 2.4484                 5.9216

                     79                     80                     81
                      A                      A                      A
 Frequencies --   1500.7953              1501.9563              1508.4496
 Red. masses --      1.1328                 1.1089                 1.0974
 Frc consts  --      1.5033                 1.4738                 1.4712
 IR Inten    --      3.1650                 8.8567                 2.7937

                     82                     83                     84
                      A                      A                      A
 Frequencies --   1510.5796              1514.4259              1521.4280
 Red. masses --      1.0852                 1.0494                 1.0837
 Frc consts  --      1.4590                 1.4180                 1.4780
 IR Inten    --      1.9603                 4.4581                 6.7883

                     85                     86                     87
                      A                      A                      A
 Frequencies --   1521.5410              1528.2613              1529.6291
 Red. masses --      1.0726                 1.0451                 1.0581
 Frc consts  --      1.4631                 1.4382                 1.4586
 IR Inten    --      3.6533                 9.3882                 3.0978

                     88                     89                     90
                      A                      A                      A
 Frequencies --   1531.6814              1532.9740              1535.6000
 Red. masses --      1.0611                 1.0834                 1.0809
 Frc consts  --      1.4667                 1.5001                 1.5017
 IR Inten    --     11.4043                 8.2229                 4.6871

                     91                     92                     93
                      A                      A                      A
 Frequencies --   1538.9232              1541.2925              1561.1193
 Red. masses --      1.1076                 1.1513                 1.1012
 Frc consts  --      1.5456                 1.6114                 1.5812
 IR Inten    --      3.4877                14.8320                 9.3826

                     94                     95                     96
                      A                      A                      A
 Frequencies --   2984.6045              2996.3823              3009.7795
 Red. masses --      1.0442                 1.0531                 1.0674
 Frc consts  --      5.4806                 5.5710                 5.6968
 IR Inten    --     50.2680                68.7747                 5.9008

                     97                     98                     99
                      A                      A                      A
 Frequencies --   3010.6183              3015.3781              3028.4831
 Red. masses --      1.0696                 1.0695                 1.0967
 Frc consts  --      5.7119                 5.7294                 5.9266
 IR Inten    --     12.6716                10.4848                82.3347

                    100                    101                    102
                      A                      A                      A
 Frequencies --   3030.4631              3033.1668              3036.3269
 Red. masses --      1.0779                 1.1045                 1.0431
 Frc consts  --      5.8322                 5.9870                 5.6662
 IR Inten    --     63.1489                19.3113                60.7184

                    103                    104                    105
                      A                      A                      A
 Frequencies --   3038.6360              3041.3684              3041.4114
 Red. masses --      1.0605                 1.0661                 1.0467
 Frc consts  --      5.7693                 5.8104                 5.7046
 IR Inten    --     45.0183                71.6444                44.6444

                    106                    107                    108
                      A                      A                      A
 Frequencies --   3044.8205              3050.7348              3062.9714
 Red. masses --      1.0680                 1.0702                 1.0956
 Frc consts  --      5.8337                 5.8686                 6.0562
 IR Inten    --     27.6870                 6.2298                47.2691

                    109                    110                    111
                      A                      A                      A
 Frequencies --   3068.3745              3069.1973              3085.4033
 Red. masses --      1.0929                 1.0946                 1.0994
 Frc consts  --      6.0622                 6.0754                 6.1664
 IR Inten    --     24.5571                47.7258                57.7240

                    112                    113                    114
                      A                      A                      A
 Frequencies --   3088.4816              3094.9201              3101.6279
 Red. masses --      1.0957                 1.1012                 1.1010
 Frc consts  --      6.1580                 6.2147                 6.2407
 IR Inten    --     32.3579                19.9083                63.0943

                    115                    116                    117
                      A                      A                      A
 Frequencies --   3105.8470              3108.0938              3110.3890
 Red. masses --      1.1024                 1.1023                 1.1014
 Frc consts  --      6.2655                 6.2737                 6.2778
 IR Inten    --     65.5682                45.0244                58.0358

                    118                    119                    120
                      A                      A                      A
 Frequencies --   3134.9431              3140.3553              3521.3536
 Red. masses --      1.0967                 1.0834                 1.0740
 Frc consts  --      6.3505                 6.2948                 7.8463
 IR Inten    --     36.3827                21.6031                 3.5525

 - Thermochemistry -
 -------------------
 Temperature   298.150 Kelvin.  Pressure   1.00000 Atm.
 Atom     1 has atomic number  6 and mass  12.00000

 Molecular mass:   213.20926 amu.
 Principal axes and moments of inertia in atomic units:
                           1         2         3
     Eigenvalues --  2475.927544661.568245867.28561
           X            0.99997   0.00316  -0.00645
           Y           -0.00318   0.99999  -0.00250
           Z            0.00644   0.00252   0.99998
 This molecule is an asymmetric top.
 Rotational symmetry number  1.
 Warning -- assumption of classical behavior for rotation
           may cause significant error
 Rotational temperatures (Kelvin)      0.03498     0.01858     0.01476
 Rotational constants (GHZ):           0.72892     0.38715     0.30759
 Zero-point vibrational energy    1032742.4 (Joules/Mol)
                                  246.83136 (Kcal/Mol)
 Warning -- explicit consideration of  26 degrees of freedom as
           vibrations may cause significant error
 Vibrational temperatures:     47.40    57.37    71.16   126.64   131.01
          (Kelvin)            145.30   176.30   218.15   268.34   276.77
                              319.09   348.99   351.73   377.54   426.69
                              444.66   451.60   511.36   533.60   586.81
                              607.64   643.54   692.97   710.85   741.27
                              891.69  1004.34  1047.23  1094.82  1104.85
                             1180.26  1226.52  1239.53  1256.65  1270.68
                             1286.96  1318.63  1358.50  1409.64  1417.13
                             1427.45  1448.65  1484.23  1514.51  1546.72
                             1570.91  1574.17  1611.11  1623.30  1633.43
                             1652.39  1673.69  1687.58  1699.22  1724.61
                             1746.16  1767.62  1790.20  1814.82  1852.66
                             1871.44  1877.79  1902.79  1913.13  1945.27
                             1953.15  1964.75  1969.76  2003.46  2004.72
                             2012.35  2014.95  2035.24  2045.03  2054.11
                             2069.67  2075.54  2076.28  2159.31  2160.98
                             2170.32  2173.39  2178.92  2189.00  2189.16
                             2198.83  2200.80  2203.75  2205.61  2209.39
                             2214.17  2217.58  2246.10  4294.18  4311.13
                             4330.40  4331.61  4338.46  4357.31  4360.16
                             4364.05  4368.60  4371.92  4375.85  4375.91
                             4380.82  4389.33  4406.93  4414.71  4415.89
                             4439.21  4443.64  4452.90  4462.55  4468.62
                             4471.85  4475.16  4510.48  4518.27  5066.44

 Zero-point correction=                           0.393351 (Hartree/Particle)
 Thermal correction to Energy=                    0.410681
 Thermal correction to Enthalpy=                  0.411625
 Thermal correction to Gibbs Free Energy=         0.347999
 Sum of electronic and zero-point Energies=           -641.285470
 Sum of electronic and thermal Energies=              -641.268140
 Sum of electronic and thermal Enthalpies=            -641.267196
 Sum of electronic and thermal Free Energies=         -641.330822

                     E (Thermal)             CV                S
                      KCal/Mol        Cal/Mol-Kelvin    Cal/Mol-Kelvin
 Total                  257.706             65.690            133.913
 Electronic               0.000              0.000              0.000
 Translational            0.889              2.981             41.975
 Rotational               0.889              2.981             32.582
 Vibrational            255.929             59.728             59.356
 Vibration     1          0.594              1.983              5.644
 Vibration     2          0.594              1.981              5.266
 Vibration     3          0.595              1.978              4.839
 Vibration     4          0.601              1.958              3.704
 Vibration     5          0.602              1.956              3.637
 Vibration     6          0.604              1.948              3.435
 Vibration     7          0.610              1.930              3.060
 Vibration     8          0.619              1.901              2.652
 Vibration     9          0.632              1.858              2.262
 Vibration    10          0.634              1.850              2.205
 Vibration    11          0.648              1.808              1.945
 Vibration    12          0.659              1.775              1.784
 Vibration    13          0.660              1.772              1.770
 Vibration    14          0.670              1.742              1.646
 Vibration    15          0.690              1.680              1.436
 Vibration    16          0.698              1.656              1.367
 Vibration    17          0.702              1.647              1.342
 Vibration    18          0.731              1.564              1.142
 Vibration    19          0.743              1.532              1.076
 Vibration    20          0.772              1.453              0.934
 Vibration    21          0.785              1.422              0.884
 Vibration    22          0.806              1.367              0.804
 Vibration    23          0.838              1.291              0.706
 Vibration    24          0.850              1.263              0.673
 Vibration    25          0.870              1.216              0.621
 Vibration    26          0.980              0.990              0.417

 Optimization completed.
    -- Stationary point found.
 Normal termination of Gaussian 16 at Thu Dec 10 15:00:47 2020.

 ----------------------------------------------------------------------
 # B3LYP/6-311++G(d,p) empiricaldispersion=gd3bj scf=xqc pop=npa geom=c
 heck
 ----------------------------------------------------------------------

 --------------------------------------
 CID_64409616_JID_5020_Energie_neutraal
 --------------------------------------
 Structure from the checkpoint file:  "JID_5020.chk"
 Charge =  0 Multiplicity = 1

 SCF Done:  E(RB3LYP) =  -641.862168546     A.U. after   14 cycles
 Normal termination of Gaussian 16 at Thu Dec 10 15:10:26 2020.

 ----------------------------------------------------------------------
 # B3LYP/6-311++G(d,p) empiricaldispersion=gd3bj scf=xqc pop=npa geom=c
 heck
 ----------------------------------------------------------------------

 ------------------------------------
 CID_64409616_JID_5020_Energie_kation
 ------------------------------------
 Structure from the checkpoint file:  "JID_5020.chk"
 Charge =  1 Multiplicity = 2

 SCF Done:  E(UB3LYP) =  -641.578815888     A.U. after   19 cycles
 Normal termination of Gaussian 16 at Thu Dec 10 15:26:33 2020.
 Gaussian 16:  ES64L-G16RevA.03 25-Dec-2016

 ----------------------------------------------------------------------
 # B3LYP/6-311++G(d,p) empiricaldispersion=gd3bj scf=xqc pop=npa geom=c
 heck
 ----------------------------------------------------------------------

 -----------------------------------
 CID_64409616_JID_5020_Energie_anion
 -----------------------------------
 Structure from the checkpoint file:  "JID_5020.chk"
 Charge = -1 Multiplicity = 2

                         Standard orientation:
 ---------------------------------------------------------------------
 Center     Atomic      Atomic             Coordinates (Angstroms)
 Number     Number       Type             X           Y           Z
 ---------------------------------------------------------------------
      1          6           0       -1.383436    3.073053    0.987375
      2          6           0       -2.304280    2.435679   -0.058891
      3          6           0       -1.597231    1.437152   -0.985143
      4          6           0       -0.892025    0.257586   -0.288531
      5          6           0       -1.858128   -0.553999    0.581503
      6          8           0       -2.844078   -1.115790   -0.270662
      7          6           0       -3.742341   -1.957931    0.414759
      8          7           0       -0.243813   -0.565812   -1.314173
      9          6           0        1.060416   -1.205096   -1.099294
     10          6           0        1.241819   -2.100127    0.155278
     11          6           0        1.593966   -1.338387    1.441592
     12          6           0        2.804214   -0.419983    1.231300
     13          6           0        2.592339    0.563477    0.070279
     14          6           0        2.230234   -0.202828   -1.213708
     15          6           0        3.827695    1.440546   -0.151933
     16          1           0       -1.012334    2.335766    1.708984
     17          1           0       -1.904429    3.851893    1.555379
     18          1           0       -0.509351    3.534436    0.510732
     19          1           0       -3.151056    1.948225    0.441885
     20          1           0       -2.742550    3.228114   -0.679483
     21          1           0       -2.319194    1.026850   -1.700383
     22          1           0       -0.833572    1.957773   -1.575885
     23          1           0       -0.124507    0.658380    0.374744
     24          1           0       -1.319019   -1.355980    1.107952
     25          1           0       -2.335110    0.079343    1.347384
     26          1           0       -3.222391   -2.805351    0.890508
     27          1           0       -4.294991   -1.411541    1.195735
     28          1           0       -4.453629   -2.343047   -0.320617
     29          1           0       -0.920459   -1.254042   -1.632996
     30          1           0        1.151677   -1.872374   -1.965797
     31          1           0        2.066399   -2.797386   -0.055009
     32          1           0        0.346430   -2.718023    0.297372
     33          1           0        1.803023   -2.055134    2.246030
     34          1           0        0.740954   -0.739912    1.783336
     35          1           0        3.690014   -1.035853    1.011080
     36          1           0        3.029776    0.130672    2.153932
     37          1           0        1.760187    1.230241    0.335890
     38          1           0        2.003769    0.496598   -2.026187
     39          1           0        3.125192   -0.767655   -1.516424
     40          1           0        3.665623    2.155981   -0.966658
     41          1           0        4.081214    2.008031    0.751473
     42          1           0        4.698195    0.826144   -0.415999
 ---------------------------------------------------------------------

 SCF Done:  E(UB3LYP) =  -641.848036088     A.U. after   28 cycles

 The electronic state is 2-A.
 Alpha  occ. eigenvalues --  -19.03237 -14.18880 -10.11549 -10.11440 -10.09950
 Alpha  occ. eigenvalues --  -10.09795 -10.07654 -10.06985 -10.06672 -10.06657
 Alpha  occ. eigenvalues --  -10.06607 -10.06511 -10.06389 -10.06377 -10.06038
 Alpha  occ. eigenvalues --   -0.94569  -0.80620  -0.73239  -0.69877  -0.66642
 Alpha  occ. eigenvalues --   -0.65593  -0.62307  -0.59689  -0.58214  -0.56223
 Alpha  occ. eigenvalues --   -0.52362  -0.50457  -0.48990  -0.46060  -0.45437
 Alpha  occ. eigenvalues --   -0.40368  -0.39376  -0.38654  -0.37639  -0.35802
 Alpha  occ. eigenvalues --   -0.35637  -0.35162  -0.34994  -0.34041  -0.32853
 Alpha  occ. eigenvalues --   -0.31161  -0.30915  -0.30110  -0.29467  -0.28844
 Alpha  occ. eigenvalues --   -0.27857  -0.27264  -0.26733  -0.26139  -0.25795
 Alpha  occ. eigenvalues --   -0.24484  -0.24246  -0.23566  -0.23246  -0.22374
 Alpha  occ. eigenvalues --   -0.21104  -0.20570  -0.20152  -0.16881  -0.11824
 Alpha  occ. eigenvalues --    0.04209
 Alpha virt. eigenvalues --    0.06157   0.06253   0.07144   0.07534   0.08451
 Alpha virt. eigenvalues --    0.08735   0.09133   0.09321   0.10054   0.10374
 Alpha virt. eigenvalues --    0.10597   0.11112   0.11563   0.11970   0.12285

  Beta  occ. eigenvalues --  -19.03228 -14.18877 -10.11508 -10.11423 -10.09947
  Beta  occ. eigenvalues --  -10.09792 -10.07650 -10.06974 -10.06655 -10.06642
  Beta  occ. eigenvalues --  -10.06593 -10.06489 -10.06379 -10.06360 -10.06034
  Beta  occ. eigenvalues --   -0.94556  -0.80610  -0.73220  -0.69859  -0.66615
  Beta  occ. eigenvalues --   -0.65566  -0.62273  -0.59653  -0.58174  -0.56164
  Beta  occ. eigenvalues --   -0.52314  -0.50415  -0.48954  -0.46031  -0.45403
  Beta  occ. eigenvalues --   -0.40335  -0.39331  -0.38633  -0.37599  -0.35774
  Beta  occ. eigenvalues --   -0.35612  -0.35140  -0.34970  -0.34011  -0.32834
  Beta  occ. eigenvalues --   -0.31138  -0.30887  -0.30085  -0.29440  -0.28820
  Beta  occ. eigenvalues --   -0.27832  -0.27234  -0.26709  -0.26117  -0.25770
  Beta  occ. eigenvalues --   -0.24451  -0.24218  -0.23541  -0.23223  -0.22341
  Beta  occ. eigenvalues --   -0.21082  -0.20543  -0.20127  -0.16860  -0.11815
  Beta virt. eigenvalues --    0.06120   0.06809   0.06911   0.07605   0.07934
  Beta virt. eigenvalues --    0.08776   0.09026   0.09510   0.09713   0.10345
  Beta virt. eigenvalues --    0.10779   0.10914   0.11375   0.11715   0.12193

 Mulliken charges and spin densities:
               1          2
     1  C   -0.069071  -0.463969
     2  C    0.000017  -0.251516
     3  C    0.269698  -0.359853
     4  C   -0.476396   0.238903
     5  C   -1.332991   0.493398
     6  O   -0.153710   0.066589
     7  C    0.992623  -1.210201
     8  N    0.149643   0.017508
     9  C   -0.525906   0.713904
    10  C    1.144519  -1.722100
    11  C   -0.092558   0.029028
    12  C   -0.381628  -0.314969
    13  C   -0.363114   0.980553
    14  C   -0.307046  -0.477897
    15  C    0.366715  -0.975050
    16  H   -0.184304   0.343673
    17  H   -0.401513   0.554320
    18  H    0.081178   0.043910
    19  H    0.080358   0.054586
    20  H    0.033198   0.127182
    21  H    0.181696  -0.027752
    22  H   -0.025789   0.180179
    23  H    1.015750  -1.022335
    24  H    0.687445  -0.554567
    25  H   -0.027995   0.197081
    26  H   -0.496759   0.630331
    27  H   -0.336452   0.464540
    28  H   -0.168835   0.303335
    29  H    0.205380   0.073408
    30  H   -0.137297   0.316892
    31  H   -0.023507   0.165800
    32  H   -0.009208   0.179829
    33  H   -0.611278   0.822627
    34  H   -0.309290   0.451223
    35  H    0.030288   0.110121
    36  H   -0.092865   0.244787
    37  H    0.350922  -0.193551
    38  H    0.139102   0.020825
    39  H   -0.054435   0.204348
    40  H   -0.042092   0.174416
    41  H   -0.109657   0.251075
    42  H    0.005166   0.119388
 Sum of Mulliken charges =  -1.00000   1.00000

 Dipole moment (field-independent basis, Debye):
    X=              1.6989    Y=              1.8253    Z=             -3.2693  Tot=              4.1118
 Quadrupole moment (field-independent basis, Debye-Ang):
   XX=           -170.1860   YY=           -156.8530   ZZ=           -140.7169
   XY=             -3.0331   XZ=              2.3814   YZ=              1.5286

 Summary of Natural Population Analysis:

                                       Natural Population
                Natural  -----------------------------------------------
    Atom  No    Charge         Core      Valence    Rydberg      Total
 -----------------------------------------------------------------------
      C    1   -0.28797      0.99967     2.28322    0.00509     3.28797
      C    2   -0.19423      0.99964     2.18634    0.00825     3.19423
      C    3   -0.18738      0.99961     2.17870    0.00907     3.18738
      C    4   -0.02909      0.99957     2.01655    0.01298     3.02909
      C    5   -0.01562      0.99955     2.00373    0.01233     3.01562
      O    6   -0.30386      0.99988     3.29471    0.00926     4.30386
      C    7   -0.09519      0.99962     2.08635    0.00922     3.09519
      N    8   -0.34838      0.99972     2.83673    0.01193     3.84838
      C    9   -0.00409      0.99957     1.99106    0.01345     3.00409
      C   10   -0.19893      0.99961     2.19030    0.00902     3.19893
      C   11   -0.19244      0.99962     2.18400    0.00881     3.19244
      C   12   -0.18637      0.99961     2.17785    0.00892     3.18637
      C   13   -0.11698      0.99959     2.10878    0.00861     3.11698
      C   14   -0.19190      0.99959     2.18299    0.00932     3.19190
      C   15   -0.27911      0.99965     2.27474    0.00472     3.27911
      H   16    0.09610      0.00000     0.40275    0.00114     0.40390
      H   17    0.09877      0.00000     0.40033    0.00090     0.40123
      H   18    0.09534      0.00000     0.40355    0.00111     0.40466
      H   19    0.09531      0.00000     0.40339    0.00131     0.40469
      H   20    0.09421      0.00000     0.40486    0.00093     0.40579
      H   21    0.10303      0.00000     0.39564    0.00133     0.39697
      H   22    0.09740      0.00000     0.40133    0.00127     0.40260
      H   23    0.09773      0.00000     0.39915    0.00312     0.40227
      H   24    0.08411      0.00000     0.41397    0.00192     0.41589
      H   25    0.08165      0.00000     0.41675    0.00160     0.41835
      H   26    0.08055      0.00000     0.41752    0.00193     0.41945
      H   27    0.07908      0.00000     0.41925    0.00167     0.42092
      H   28    0.08900      0.00000     0.40987    0.00113     0.41100
      H   29    0.18109      0.00000     0.31592    0.00299     0.31891
      H   30    0.09384      0.00000     0.40478    0.00137     0.40616
      H   31    0.09670      0.00000     0.40200    0.00129     0.40330
      H   32    0.10174      0.00000     0.39690    0.00135     0.39826
      H   33    0.09992      0.00000     0.39883    0.00125     0.40008
      H   34    0.09214      0.00000     0.40574    0.00213     0.40786
      H   35    0.09186      0.00000     0.40685    0.00129     0.40814
      H   36    0.09915      0.00000     0.39987    0.00098     0.40085
      H   37    0.09239      0.00000     0.40522    0.00239     0.40761
      H   38    0.10379      0.00000     0.39495    0.00126     0.39621
      H   39    0.09498      0.00000     0.40391    0.00112     0.40502
      H   40    0.09779      0.00000     0.40130    0.00091     0.40221
      H   41    0.09880      0.00000     0.40032    0.00088     0.40120
      H   42    0.09504      0.00000     0.40402    0.00093     0.40496
 =======================================================================
   * Total *   -0.00000     14.99450    44.82502    0.18048    60.00000

 Normal termination of Gaussian 16 at Thu Dec 10 15:55:08 2020.
