 Gaussian 16, Revision A.03,

 -----------------------------------------------------------
 # opt freq B3LYP/6-31G(d) empiricaldispersion=gd3bj scf=xqc
 -----------------------------------------------------------

 -------------------------------
 CID_151728588_JID_3738_neutraal
 -------------------------------
 Symbolic Z-matrix:
 Charge =  0 Multiplicity = 1

 SCF Done:  E(RB3LYP) =  -665.645496467     A.U. after   14 cycles
 SCF Done:  E(RB3LYP) =  -665.647976390     A.U. after   14 cycles
 SCF Done:  E(RB3LYP) =  -665.649510723     A.U. after   12 cycles
 SCF Done:  E(RB3LYP) =  -665.649796365     A.U. after   12 cycles
 SCF Done:  E(RB3LYP) =  -665.649895314     A.U. after   11 cycles
 SCF Done:  E(RB3LYP) =  -665.649960811     A.U. after   11 cycles
 SCF Done:  E(RB3LYP) =  -665.649991258     A.U. after   12 cycles
 SCF Done:  E(RB3LYP) =  -665.650023742     A.U. after   11 cycles
 SCF Done:  E(RB3LYP) =  -665.638067187     A.U. after   15 cycles
 SCF Done:  E(RB3LYP) =  -665.650018247     A.U. after   13 cycles
 SCF Done:  E(RB3LYP) =  -665.650543946     A.U. after   12 cycles
 SCF Done:  E(RB3LYP) =  -665.650548172     A.U. after   12 cycles
 SCF Done:  E(RB3LYP) =  -665.650552227     A.U. after   12 cycles
 SCF Done:  E(RB3LYP) =  -665.650554465     A.U. after   10 cycles
 SCF Done:  E(RB3LYP) =  -665.650554505     A.U. after    9 cycles
 SCF Done:  E(RB3LYP) =  -665.650554546     A.U. after    7 cycles
 Optimization completed.
    -- Stationary point found.
 Normal termination of Gaussian 16 at Mon Dec 14 16:46:39 2020.

 --------------------------------------------------------------------
 #N Geom=AllCheck Guess=TCheck SCRF=Check GenChk RB3LYP/6-31G(d) Freq
 --------------------------------------------------------------------

 Structure from the checkpoint file:  "JID_3738.chk"
 -------------------------------
 CID_151728588_JID_3738_neutraal
 -------------------------------
 Charge =  0 Multiplicity = 1

 SCF Done:  E(RB3LYP) =  -665.650554546     A.U. after    1 cycles

  Exact polarizability: 127.486 -15.020 102.467  -5.124   1.443  85.051
 Approx polarizability: 171.964 -37.353 172.350  -9.201   5.625 126.126

                      1                      2                      3
                      A                      A                      A
 Frequencies --     16.4641                37.6832                51.3062
 Red. masses --      8.9926                 5.0538                 4.7998
 Frc consts  --      0.0014                 0.0042                 0.0074
 IR Inten    --      0.1811                 0.2855                 1.4606

                      4                      5                      6
                      A                      A                      A
 Frequencies --     99.2396               116.5773               146.2211
 Red. masses --      3.7191                 4.8520                 3.0849
 Frc consts  --      0.0216                 0.0389                 0.0389
 IR Inten    --      1.0661                 2.5757                 1.1010

                      7                      8                      9
                      A                      A                      A
 Frequencies --    153.0461               191.9881               237.7179
 Red. masses --      5.5933                 3.8552                 5.8505
 Frc consts  --      0.0772                 0.0837                 0.1948
 IR Inten    --      5.4158                 1.2899                 3.5084

                     10                     11                     12
                      A                      A                      A
 Frequencies --    264.1317               297.8205               303.0482
 Red. masses --      1.1979                 2.8793                 2.4409
 Frc consts  --      0.0492                 0.1505                 0.1321
 IR Inten    --      3.6795                 2.9494                 1.3627

                     13                     14                     15
                      A                      A                      A
 Frequencies --    328.9424               352.5677               368.8103
 Red. masses --      2.9338                 1.2831                 2.4089
 Frc consts  --      0.1870                 0.0940                 0.1930
 IR Inten    --      8.4265                63.4201                 9.4493

                     16                     17                     18
                      A                      A                      A
 Frequencies --    389.9790               403.3097               419.2988
 Red. masses --      1.6342                 1.6026                 1.8513
 Frc consts  --      0.1464                 0.1536                 0.1918
 IR Inten    --     36.3359                32.0309                81.3384

                     19                     20                     21
                      A                      A                      A
 Frequencies --    451.3664               536.7680               570.1488
 Red. masses --      2.6462                 2.3974                13.0389
 Frc consts  --      0.3176                 0.4070                 2.4973
 IR Inten    --      5.5581                53.3327                11.4777

                     22                     23                     24
                      A                      A                      A
 Frequencies --    575.5287               591.2548               629.0249
 Red. masses --      1.2482                 2.4829                 3.3244
 Frc consts  --      0.2436                 0.5114                 0.7750
 IR Inten    --    118.8700                 4.0015                13.0455

                     25                     26                     27
                      A                      A                      A
 Frequencies --    633.2633               760.4619               795.8946
 Red. masses --      7.9551                 3.3443                 2.2921
 Frc consts  --      1.8796                 1.1395                 0.8554
 IR Inten    --      4.6948                 9.4157                17.5035

                     28                     29                     30
                      A                      A                      A
 Frequencies --    877.1618               903.3473               914.4298
 Red. masses --      2.5186                 1.8638                 1.9532
 Frc consts  --      1.1417                 0.8961                 0.9623
 IR Inten    --     15.3953                 9.3949                14.0217

                     31                     32                     33
                      A                      A                      A
 Frequencies --    945.0985               950.5314               990.5806
 Red. masses --      2.0157                 2.3496                 1.9604
 Frc consts  --      1.0608                 1.2508                 1.1334
 IR Inten    --     22.3767                 7.2694                 4.6546

                     34                     35                     36
                      A                      A                      A
 Frequencies --   1024.3186              1044.2986              1068.9639
 Red. masses --      1.9630                 2.2940                 4.0788
 Frc consts  --      1.2135                 1.4740                 2.7461
 IR Inten    --      6.0471                43.8669               120.2412

                     37                     38                     39
                      A                      A                      A
 Frequencies --   1102.1571              1115.4228              1138.3027
 Red. masses --      2.7427                 2.0047                 1.6600
 Frc consts  --      1.9630                 1.4695                 1.2673
 IR Inten    --     59.9732                24.1262                15.9161

                     40                     41                     42
                      A                      A                      A
 Frequencies --   1160.1546              1182.7296              1212.4741
 Red. masses --      1.7073                 1.7611                 1.1792
 Frc consts  --      1.3539                 1.4515                 1.0214
 IR Inten    --     10.7914                77.3854                10.9376

                     43                     44                     45
                      A                      A                      A
 Frequencies --   1266.1779              1281.9326              1298.1363
 Red. masses --      1.4202                 1.3123                 1.6398
 Frc consts  --      1.3415                 1.2706                 1.6281
 IR Inten    --     24.7488                22.6455                13.9229

                     46                     47                     48
                      A                      A                      A
 Frequencies --   1325.4778              1350.3084              1374.4388
 Red. masses --      1.5252                11.8090                 1.3157
 Frc consts  --      1.5788                12.6862                 1.4644
 IR Inten    --      6.4099               150.3483                 3.0923

                     49                     50                     51
                      A                      A                      A
 Frequencies --   1379.8550              1390.2333              1393.7320
 Red. masses --      1.2943                 1.3446                 1.3756
 Frc consts  --      1.4519                 1.5312                 1.5744
 IR Inten    --     24.6639                48.1440                22.5902

                     52                     53                     54
                      A                      A                      A
 Frequencies --   1417.6161              1425.4042              1434.6934
 Red. masses --      1.3063                 1.3995                 1.3644
 Frc consts  --      1.5467                 1.6753                 1.6547
 IR Inten    --     21.2493                17.3599                10.8758

                     55                     56                     57
                      A                      A                      A
 Frequencies --   1440.2663              1456.5625              1506.0177
 Red. masses --      1.3972                 1.2481                 1.0863
 Frc consts  --      1.7077                 1.5601                 1.4517
 IR Inten    --     36.3677                57.1723                 9.5295

                     58                     59                     60
                      A                      A                      A
 Frequencies --   1512.3632              1519.9712              1525.9422
 Red. masses --      1.0776                 1.0772                 1.0832
 Frc consts  --      1.4522                 1.4662                 1.4860
 IR Inten    --     16.4494                 9.2543                 6.9207

                     61                     62                     63
                      A                      A                      A
 Frequencies --   1533.4320              1535.0621              2274.4795
 Red. masses --      1.0835                 1.0603                13.4832
 Frc consts  --      1.5011                 1.4721                41.0968
 IR Inten    --      7.5360                 5.7488               576.7684

                     64                     65                     66
                      A                      A                      A
 Frequencies --   3046.2111              3047.0926              3050.3691
 Red. masses --      1.0511                 1.0531                 1.0586
 Frc consts  --      5.7465                 5.7610                 5.8035
 IR Inten    --     51.2954                18.5483                32.2498

                     67                     68                     69
                      A                      A                      A
 Frequencies --   3051.2460              3058.0086              3084.6907
 Red. masses --      1.0597                 1.0630                 1.0880
 Frc consts  --      5.8129                 5.8566                 6.0994
 IR Inten    --     15.6027                10.9232                 8.5868

                     70                     71                     72
                      A                      A                      A
 Frequencies --   3090.8589              3095.9103              3104.9163
 Red. masses --      1.0951                 1.1060                 1.1005
 Frc consts  --      6.1642                 6.2457                 6.2511
 IR Inten    --     41.8941                29.9834                56.3075

                     73                     74                     75
                      A                      A                      A
 Frequencies --   3111.4483              3118.8363              3135.3871
 Red. masses --      1.1000                 1.1031                 1.1013
 Frc consts  --      6.2744                 6.3220                 6.3791
 IR Inten    --     20.6523                46.4547                19.4168

                     76                     77                     78
                      A                      A                      A
 Frequencies --   3673.1748              3706.7831              3751.3710
 Red. masses --      1.0648                 1.0653                 1.0661
 Frc consts  --      8.4649                 8.6243                 8.8394
 IR Inten    --     44.4150                24.2403                18.5094

 - Thermochemistry -
 -------------------
 Temperature   298.150 Kelvin.  Pressure   1.00000 Atm.
 Atom     1 has atomic number  6 and mass  12.00000

 Molecular mass:   189.11134 amu.
 Principal axes and moments of inertia in atomic units:
                           1         2         3
     Eigenvalues --  1511.890054767.651015264.41297
           X            1.00000   0.00093   0.00052
           Y           -0.00091   0.99938  -0.03511
           Z           -0.00055   0.03511   0.99938
 This molecule is an asymmetric top.
 Rotational symmetry number  1.
 Warning -- assumption of classical behavior for rotation
           may cause significant error
 Rotational temperatures (Kelvin)      0.05729     0.01817     0.01645
 Rotational constants (GHZ):           1.19370     0.37854     0.34282
 Zero-point vibrational energy     622777.3 (Joules/Mol)
                                  148.84736 (Kcal/Mol)
 Warning -- explicit consideration of  23 degrees of freedom as
           vibrations may cause significant error
 Vibrational temperatures:     23.69    54.22    73.82   142.78   167.73
          (Kelvin)            210.38   220.20   276.23   342.02   380.03
                              428.50   436.02   473.27   507.27   530.64
                              561.09   580.27   603.28   649.42   772.29
                              820.32   828.06   850.68   905.03   911.12
                             1094.14  1145.11  1262.04  1299.72  1315.66
                             1359.79  1367.60  1425.22  1473.77  1502.51
                             1538.00  1585.76  1604.84  1637.76  1669.20
                             1701.68  1744.48  1821.75  1844.42  1867.73
                             1907.07  1942.79  1977.51  1985.30  2000.24
                             2005.27  2039.63  2050.84  2064.20  2072.22
                             2095.67  2166.82  2175.95  2186.90  2195.49
                             2206.27  2208.61  3272.47  4382.82  4384.09
                             4388.80  4390.06  4399.79  4438.18  4447.06
                             4454.32  4467.28  4476.68  4487.31  4511.12
                             5284.88  5333.23  5397.39

 Zero-point correction=                           0.237203 (Hartree/Particle)
 Thermal correction to Energy=                    0.251836
 Thermal correction to Enthalpy=                  0.252781
 Thermal correction to Gibbs Free Energy=         0.194182
 Sum of electronic and zero-point Energies=           -665.413351
 Sum of electronic and thermal Energies=              -665.398718
 Sum of electronic and thermal Enthalpies=            -665.397774
 Sum of electronic and thermal Free Energies=         -665.456373

                     E (Thermal)             CV                S
                      KCal/Mol        Cal/Mol-Kelvin    Cal/Mol-Kelvin
 Total                  158.030             53.761            123.332
 Electronic               0.000              0.000              0.000
 Translational            0.889              2.981             41.617
 Rotational               0.889              2.981             32.006
 Vibrational            156.252             47.800             49.708
 Vibration     1          0.593              1.986              7.021
 Vibration     2          0.594              1.982              5.377
 Vibration     3          0.596              1.977              4.766
 Vibration     4          0.604              1.950              3.469
 Vibration     5          0.608              1.936              3.156
 Vibration     6          0.617              1.907              2.721
 Vibration     7          0.619              1.899              2.634
 Vibration     8          0.634              1.851              2.209
 Vibration     9          0.656              1.783              1.820
 Vibration    10          0.671              1.739              1.634
 Vibration    11          0.691              1.678              1.429
 Vibration    12          0.694              1.668              1.400
 Vibration    13          0.712              1.618              1.265
 Vibration    14          0.729              1.570              1.155
 Vibration    15          0.741              1.536              1.085
 Vibration    16          0.758              1.492              1.000
 Vibration    17          0.769              1.463              0.951
 Vibration    18          0.782              1.428              0.894
 Vibration    19          0.810              1.358              0.792
 Vibration    20          0.892              1.169              0.572
 Vibration    21          0.926              1.096              0.504
 Vibration    22          0.932              1.084              0.494
 Vibration    23          0.949              1.050              0.465

 Optimization completed.
    -- Stationary point found.
 Normal termination of Gaussian 16 at Mon Dec 14 16:54:03 2020.

 ----------------------------------------------------------------------
 # B3LYP/6-311++G(d,p) empiricaldispersion=gd3bj scf=xqc pop=npa geom=c
 heck
 ----------------------------------------------------------------------

 ---------------------------------------
 CID_151728588_JID_3738_Energie_neutraal
 ---------------------------------------
 Structure from the checkpoint file:  "JID_3738.chk"
 Charge =  0 Multiplicity = 1

 SCF Done:  E(RB3LYP) =  -665.872436085     A.U. after   15 cycles
 Normal termination of Gaussian 16 at Mon Dec 14 16:57:32 2020.

 ----------------------------------------------------------------------
 # B3LYP/6-311++G(d,p) empiricaldispersion=gd3bj scf=xqc pop=npa geom=c
 heck
 ----------------------------------------------------------------------

 -------------------------------------
 CID_151728588_JID_3738_Energie_kation
 -------------------------------------
 Structure from the checkpoint file:  "JID_3738.chk"
 Charge =  1 Multiplicity = 2

 SCF Done:  E(UB3LYP) =  -665.531520328     A.U. after   31 cycles
 Normal termination of Gaussian 16 at Mon Dec 14 17:07:51 2020.
 Gaussian 16:  ES64L-G16RevA.03 25-Dec-2016

 ----------------------------------------------------------------------
 # B3LYP/6-311++G(d,p) empiricaldispersion=gd3bj scf=xqc pop=npa geom=c
 heck
 ----------------------------------------------------------------------

 ------------------------------------
 CID_151728588_JID_3738_Energie_anion
 ------------------------------------
 Structure from the checkpoint file:  "JID_3738.chk"
 Charge = -1 Multiplicity = 2

                         Standard orientation:
 ---------------------------------------------------------------------
 Center     Atomic      Atomic             Coordinates (Angstroms)
 Number     Number       Type             X           Y           Z
 ---------------------------------------------------------------------
      1          6           0       -2.775896    1.212314   -0.193208
      2          6           0       -2.051385   -0.120143   -0.435161
      3          6           0       -0.741700    0.065198   -1.224386
      4          6           0        0.204453    1.210350   -0.834117
      5          6           0        0.875994    1.150843    0.544566
      6          6           0        1.716645   -0.108897    0.764709
      7          7           0        2.812285   -0.075479   -0.234984
      8          7           0        3.588688   -1.033976   -0.214836
      9          7           0        4.363493   -1.869112   -0.290462
     10          8           0        1.677991    2.305240    0.759100
     11          6           0       -1.850344   -0.889467    0.885594
     12          8           0       -3.102792   -1.343919    1.406633
     13          8           0       -2.860991   -0.953515   -1.270429
     14          1           0       -2.215659    1.877862    0.473328
     15          1           0       -3.763420    1.034658    0.248955
     16          1           0       -2.936027    1.727708   -1.144736
     17          1           0       -0.206369   -0.892683   -1.235046
     18          1           0       -1.053999    0.235024   -2.261095
     19          1           0        1.004999    1.246235   -1.583743
     20          1           0       -0.315289    2.172263   -0.894994
     21          1           0        0.120281    1.183802    1.336022
     22          1           0        2.134964   -0.090319    1.778272
     23          1           0        1.118178   -1.020187    0.647800
     24          1           0        2.429108    2.230752    0.145478
     25          1           0       -1.275539   -1.798239    0.684581
     26          1           0       -1.313540   -0.294130    1.634680
     27          1           0       -3.550054   -0.584219    1.810222
     28          1           0       -3.509162   -1.362187   -0.668160
 ---------------------------------------------------------------------

 SCF Done:  E(UB3LYP) =  -665.870346771     A.U. after   31 cycles

 The electronic state is 2-A.
 Alpha  occ. eigenvalues --  -19.03007 -19.02244 -19.01484 -14.34465 -14.24865
 Alpha  occ. eigenvalues --  -14.24045 -10.12900 -10.12542 -10.11731 -10.10880
 Alpha  occ. eigenvalues --  -10.07137 -10.06911 -10.05968  -1.01562  -0.94093
 Alpha  occ. eigenvalues --   -0.92865  -0.91038  -0.85830  -0.71087  -0.67024
 Alpha  occ. eigenvalues --   -0.62881  -0.59337  -0.56907  -0.51579  -0.46248
 Alpha  occ. eigenvalues --   -0.43319  -0.42292  -0.41422  -0.39993  -0.39763
 Alpha  occ. eigenvalues --   -0.37805  -0.37252  -0.36154  -0.34551  -0.33110
 Alpha  occ. eigenvalues --   -0.32374  -0.32049  -0.29992  -0.29654  -0.28627
 Alpha  occ. eigenvalues --   -0.27467  -0.25927  -0.24894  -0.24007  -0.23609
 Alpha  occ. eigenvalues --   -0.22413  -0.19874  -0.19446  -0.17824  -0.16852
 Alpha  occ. eigenvalues --   -0.14119   0.04244
 Alpha virt. eigenvalues --    0.05772   0.08163   0.08497   0.09267   0.09649
 Alpha virt. eigenvalues --    0.10372   0.11084   0.11190   0.11648   0.12149
 Alpha virt. eigenvalues --    0.13219   0.13571   0.14122   0.14789   0.15418

  Beta  occ. eigenvalues --  -19.02947 -19.02229 -19.01474 -14.34170 -14.24484
  Beta  occ. eigenvalues --  -14.24105 -10.12900 -10.12528 -10.11706 -10.10802
  Beta  occ. eigenvalues --  -10.07133 -10.06902 -10.05921  -1.01001  -0.94011
  Beta  occ. eigenvalues --   -0.92828  -0.90967  -0.85555  -0.71049  -0.66925
  Beta  occ. eigenvalues --   -0.62786  -0.59242  -0.56811  -0.51488  -0.46192
  Beta  occ. eigenvalues --   -0.43228  -0.42176  -0.41011  -0.39772  -0.39634
  Beta  occ. eigenvalues --   -0.37348  -0.37143  -0.35783  -0.34200  -0.32826
  Beta  occ. eigenvalues --   -0.32085  -0.31783  -0.29926  -0.29579  -0.28576
  Beta  occ. eigenvalues --   -0.27422  -0.25894  -0.24847  -0.23966  -0.23564
  Beta  occ. eigenvalues --   -0.22366  -0.19566  -0.19071  -0.17736  -0.16820
  Beta  occ. eigenvalues --   -0.14032
  Beta virt. eigenvalues --    0.07112   0.08003   0.08613   0.09346   0.09637
  Beta virt. eigenvalues --    0.10124   0.10779   0.11260   0.11396   0.11872
  Beta virt. eigenvalues --    0.12318   0.13321   0.13829   0.14283   0.14842

 Mulliken charges and spin densities:
               1          2
     1  C    0.938191  -1.368673
     2  C   -2.004678   1.721326
     3  C    0.752940  -1.018991
     4  C   -0.274520   0.104910
     5  C   -0.215960  -0.009439
     6  C   -0.280384  -0.423703
     7  N   -1.138300   0.723935
     8  N    0.942183  -0.235935
     9  N    0.045211  -0.195710
    10  O   -0.166120   0.006373
    11  C    0.936844  -1.373807
    12  O   -0.254495  -0.003479
    13  O   -0.147061   0.002097
    14  H   -0.237923   0.404856
    15  H   -0.279817   0.419076
    16  H   -0.069597   0.231652
    17  H    0.072804   0.077762
    18  H    0.209394  -0.022242
    19  H    0.055158   0.115484
    20  H    0.128481   0.043272
    21  H    0.068645   0.194748
    22  H   -0.152647   0.345607
    23  H    0.350158  -0.178457
    24  H    0.177158   0.067780
    25  H    0.040967   0.188322
    26  H   -0.344353   0.485198
    27  H   -0.329191   0.606971
    28  H    0.176911   0.091069
 Sum of Mulliken charges =  -1.00000   1.00000

 Dipole moment (field-independent basis, Debye):
    X=              1.9776    Y=              0.7351    Z=             -3.1468  Tot=              3.7886
 Quadrupole moment (field-independent basis, Debye-Ang):
   XX=           -158.8761   YY=           -111.9072   ZZ=           -110.5988
   XY=              6.9275   XZ=             10.4052   YZ=             -4.6399

 Summary of Natural Population Analysis:

                                       Natural Population
                Natural  -----------------------------------------------
    Atom  No    Charge         Core      Valence    Rydberg      Total
 -----------------------------------------------------------------------
      C    1   -0.30219      0.99961     2.29463    0.00794     3.30219
      C    2    0.11212      0.99954     1.87229    0.01604     2.88788
      C    3   -0.19686      0.99957     2.18768    0.00962     3.19686
      C    4   -0.20471      0.99960     2.19633    0.00878     3.20471
      C    5    0.05655      0.99954     1.92853    0.01538     2.94345
      C    6   -0.09616      0.99958     2.08695    0.00964     3.09616
      N    7   -0.22968      0.99970     2.71492    0.01506     3.72968
      N    8    0.14213      0.99971     2.34255    0.01562     3.35787
      N    9   -0.01312      0.99982     2.49947    0.01383     3.51312
      O   10   -0.37091      0.99990     3.36468    0.00633     4.37091
      C   11   -0.02035      0.99952     2.00702    0.01381     3.02035
      O   12   -0.37650      0.99990     3.36935    0.00725     4.37650
      O   13   -0.38219      0.99989     3.37609    0.00621     4.38219
      H   14    0.10176      0.00000     0.39699    0.00126     0.39824
      H   15    0.10299      0.00000     0.39519    0.00182     0.39701
      H   16    0.10322      0.00000     0.39582    0.00096     0.39678
      H   17    0.10063      0.00000     0.39813    0.00124     0.39937
      H   18    0.10706      0.00000     0.39186    0.00108     0.39294
      H   19    0.10500      0.00000     0.39367    0.00132     0.39500
      H   20    0.10254      0.00000     0.39621    0.00125     0.39746
      H   21    0.08948      0.00000     0.40816    0.00236     0.41052
      H   22    0.09550      0.00000     0.40301    0.00148     0.40450
      H   23    0.09358      0.00000     0.40481    0.00162     0.40642
      H   24    0.23179      0.00000     0.26523    0.00298     0.26821
      H   25    0.08864      0.00000     0.40996    0.00140     0.41136
      H   26    0.08540      0.00000     0.41252    0.00208     0.41460
      H   27    0.23801      0.00000     0.24916    0.01283     0.26199
      H   28    0.23629      0.00000     0.26064    0.00307     0.26371
 =======================================================================
   * Total *   -0.00000     12.99588    37.82187    0.18225    51.00000

 Normal termination of Gaussian 16 at Mon Dec 14 17:18:08 2020.
