 Gaussian 16, Revision A.03,

 -----------------------------------------------------------
 # opt freq B3LYP/6-31G(d) empiricaldispersion=gd3bj scf=xqc
 -----------------------------------------------------------

 -------------------------------
 CID_139821028_JID_4166_neutraal
 -------------------------------
 Symbolic Z-matrix:
 Charge =  0 Multiplicity = 1

 SCF Done:  E(RB3LYP) =  -583.817649473     A.U. after   15 cycles
 SCF Done:  E(RB3LYP) =  -583.836192359     A.U. after   12 cycles
 SCF Done:  E(RB3LYP) =  -583.837738188     A.U. after   14 cycles
 SCF Done:  E(RB3LYP) =  -583.838175911     A.U. after   12 cycles
 SCF Done:  E(RB3LYP) =  -583.838613077     A.U. after   12 cycles
 SCF Done:  E(RB3LYP) =  -583.838840493     A.U. after   11 cycles
 SCF Done:  E(RB3LYP) =  -583.838880574     A.U. after   10 cycles
 SCF Done:  E(RB3LYP) =  -583.838905307     A.U. after   10 cycles
 SCF Done:  E(RB3LYP) =  -583.838933743     A.U. after   11 cycles
 SCF Done:  E(RB3LYP) =  -583.838967421     A.U. after   12 cycles
 SCF Done:  E(RB3LYP) =  -583.839199190     A.U. after   11 cycles
 SCF Done:  E(RB3LYP) =  -583.839194141     A.U. after   12 cycles
 SCF Done:  E(RB3LYP) =  -583.839212418     A.U. after   12 cycles
 SCF Done:  E(RB3LYP) =  -583.839213022     A.U. after   10 cycles
 SCF Done:  E(RB3LYP) =  -583.839213111     A.U. after    8 cycles
 SCF Done:  E(RB3LYP) =  -583.839213128     A.U. after    7 cycles
 Optimization completed.
    -- Stationary point found.
 Normal termination of Gaussian 16 at Thu Dec 10 09:26:53 2020.

 --------------------------------------------------------------------
 #N Geom=AllCheck Guess=TCheck SCRF=Check GenChk RB3LYP/6-31G(d) Freq
 --------------------------------------------------------------------

 Structure from the checkpoint file:  "JID_4166.chk"
 -------------------------------
 CID_139821028_JID_4166_neutraal
 -------------------------------
 Charge =  0 Multiplicity = 1

 SCF Done:  E(RB3LYP) =  -583.839213128     A.U. after    1 cycles

  Exact polarizability: 136.535   0.893 144.361  -2.751  -9.070 117.360
 Approx polarizability: 176.609   8.904 206.196  -9.453 -24.790 183.041

                      1                      2                      3
                      A                      A                      A
 Frequencies --     25.3253                56.4332                80.9873
 Red. masses --      4.0967                 4.5249                 2.3644
 Frc consts  --      0.0015                 0.0085                 0.0091
 IR Inten    --      0.6482                 0.5327                 8.0625

                      4                      5                      6
                      A                      A                      A
 Frequencies --     84.6618                94.0327               117.7849
 Red. masses --      2.4557                 1.4316                 3.1595
 Frc consts  --      0.0104                 0.0075                 0.0258
 IR Inten    --     24.8243               101.3985                 0.6804

                      7                      8                      9
                      A                      A                      A
 Frequencies --    152.4713               179.8851               203.4988
 Red. masses --      2.2237                 2.6003                 2.2024
 Frc consts  --      0.0305                 0.0496                 0.0537
 IR Inten    --      0.4049                 0.3765                 0.3860

                     10                     11                     12
                      A                      A                      A
 Frequencies --    227.4919               247.4721               260.6700
 Red. masses --      2.8178                 1.8226                 2.9286
 Frc consts  --      0.0859                 0.0658                 0.1172
 IR Inten    --      3.7041                 3.3326                 6.0881

                     13                     14                     15
                      A                      A                      A
 Frequencies --    309.7729               326.6458               342.4910
 Red. masses --      2.2890                 2.4080                 2.3390
 Frc consts  --      0.1294                 0.1514                 0.1616
 IR Inten    --      2.8595                 2.8182                 1.7063

                     16                     17                     18
                      A                      A                      A
 Frequencies --    358.2235               387.7839               401.2785
 Red. masses --      1.8538                 3.9165                 2.2587
 Frc consts  --      0.1402                 0.3470                 0.2143
 IR Inten    --      0.8003                 3.4286                 0.3751

                     19                     20                     21
                      A                      A                      A
 Frequencies --    421.1361               449.2971               477.4659
 Red. masses --      5.3231                 3.5243                 2.5639
 Frc consts  --      0.5562                 0.4192                 0.3444
 IR Inten    --      0.1368                 0.4196                 0.5382

                     22                     23                     24
                      A                      A                      A
 Frequencies --    499.7993               623.8984               683.8403
 Red. masses --      1.6406                 3.1022                 2.4739
 Frc consts  --      0.2415                 0.7115                 0.6816
 IR Inten    --      1.3130                 3.1931                 2.9545

                     25                     26                     27
                      A                      A                      A
 Frequencies --    698.3994               771.9895               783.1849
 Red. masses --      2.6092                 3.4155                 1.4920
 Frc consts  --      0.7498                 1.1993                 0.5392
 IR Inten    --      0.6531                12.4130                 4.5846

                     28                     29                     30
                      A                      A                      A
 Frequencies --    792.9758               834.8370               860.8465
 Red. masses --      1.5112                 2.4468                 1.7088
 Frc consts  --      0.5599                 1.0047                 0.7461
 IR Inten    --      0.3875                 2.3710                 3.0812

                     31                     32                     33
                      A                      A                      A
 Frequencies --    871.4722               884.2842               904.1968
 Red. masses --      1.9852                 2.2647                 2.0889
 Frc consts  --      0.8883                 1.0434                 1.0062
 IR Inten    --      2.9975                 1.4879                 1.1221

                     34                     35                     36
                      A                      A                      A
 Frequencies --    928.2965               940.3585               958.7504
 Red. masses --      1.8831                 1.4905                 1.5242
 Frc consts  --      0.9561                 0.7765                 0.8255
 IR Inten    --      1.2029                 2.2097                 4.9101

                     37                     38                     39
                      A                      A                      A
 Frequencies --   1010.2131              1039.5973              1045.3633
 Red. masses --      2.1879                 1.8238                 2.0805
 Frc consts  --      1.3156                 1.1613                 1.3396
 IR Inten    --      4.1621                 0.7390                 2.3110

                     40                     41                     42
                      A                      A                      A
 Frequencies --   1059.2188              1069.6079              1088.8027
 Red. masses --      1.7597                 1.9772                 2.0606
 Frc consts  --      1.1632                 1.3327                 1.4392
 IR Inten    --      0.8021                 0.1171                 0.4531

                     43                     44                     45
                      A                      A                      A
 Frequencies --   1120.8313              1126.2058              1144.4247
 Red. masses --      1.9229                 1.7702                 1.5913
 Frc consts  --      1.4233                 1.3228                 1.2279
 IR Inten    --      0.2634                 0.8937                 3.0556

                     46                     47                     48
                      A                      A                      A
 Frequencies --   1153.4866              1166.7717              1188.6148
 Red. masses --      1.1207                 1.4079                 2.0744
 Frc consts  --      0.8786                 1.1293                 1.7267
 IR Inten    --      1.2133                 1.7746                 0.1743

                     49                     50                     51
                      A                      A                      A
 Frequencies --   1234.3303              1259.0110              1269.8832
 Red. masses --      2.1005                 1.3299                 1.2117
 Frc consts  --      1.8856                 1.2420                 1.1513
 IR Inten    --    231.8508                 1.3727                 0.3605

                     52                     53                     54
                      A                      A                      A
 Frequencies --   1289.9832              1304.3907              1307.9669
 Red. masses --      1.2465                 1.4973                 1.2417
 Frc consts  --      1.2222                 1.5010                 1.2516
 IR Inten    --      1.8893                 3.6974                 0.4557

                     55                     56                     57
                      A                      A                      A
 Frequencies --   1310.8923              1324.9972              1337.1838
 Red. masses --      1.2584                 1.2753                 1.3529
 Frc consts  --      1.2741                 1.3192                 1.4253
 IR Inten    --      0.9376                 0.9872                 1.7523

                     58                     59                     60
                      A                      A                      A
 Frequencies --   1361.1272              1371.7632              1375.0901
 Red. masses --      1.4972                 1.3137                 1.3150
 Frc consts  --      1.6343                 1.4565                 1.4650
 IR Inten    --      1.4802                 1.5111                 0.3730

                     61                     62                     63
                      A                      A                      A
 Frequencies --   1384.5857              1392.8554              1397.3318
 Red. masses --      1.3842                 1.4647                 1.4044
 Frc consts  --      1.5634                 1.6742                 1.6156
 IR Inten    --      2.0164                 2.5700                 3.6354

                     64                     65                     66
                      A                      A                      A
 Frequencies --   1404.3312              1413.5445              1416.1983
 Red. masses --      1.3885                 1.4317                 1.4225
 Frc consts  --      1.6134                 1.6855                 1.6809
 IR Inten    --      5.8219                 1.5588                 0.9510

                     67                     68                     69
                      A                      A                      A
 Frequencies --   1422.6543              1441.9097              1445.5901
 Red. masses --      1.4158                 1.2950                 1.3612
 Frc consts  --      1.6883                 1.5863                 1.6759
 IR Inten    --      3.7130                 8.3570                 0.6193

                     70                     71                     72
                      A                      A                      A
 Frequencies --   1504.5165              1507.7644              1514.5544
 Red. masses --      1.0870                 1.0843                 1.0874
 Frc consts  --      1.4497                 1.4523                 1.4696
 IR Inten    --      2.0718                 7.8536                 3.8205

                     73                     74                     75
                      A                      A                      A
 Frequencies --   1516.2053              1524.0230              1527.5737
 Red. masses --      1.0925                 1.0920                 1.0718
 Frc consts  --      1.4798                 1.4944                 1.4735
 IR Inten    --      1.0590                 3.1086                12.4245

                     76                     77                     78
                      A                      A                      A
 Frequencies --   1529.1322              1534.2860              1540.0907
 Red. masses --      1.0511                 1.0544                 1.0917
 Frc consts  --      1.4480                 1.4623                 1.5256
 IR Inten    --      3.4764                 7.0839                 0.5590

                     79                     80                     81
                      A                      A                      A
 Frequencies --   1542.3533              2413.6239              2991.9498
 Red. masses --      1.0871                11.6178                 1.0820
 Frc consts  --      1.5236                39.8760                 5.7067
 IR Inten    --      8.5705               119.6207                14.7821

                     82                     83                     84
                      A                      A                      A
 Frequencies --   3014.6643              3017.1242              3018.9070
 Red. masses --      1.0781                 1.0698                 1.0663
 Frc consts  --      5.7728                 5.7379                 5.7259
 IR Inten    --     15.9811                 4.7416                29.8892

                     85                     86                     87
                      A                      A                      A
 Frequencies --   3027.0854              3033.4630              3037.5994
 Red. masses --      1.0672                 1.0681                 1.0638
 Frc consts  --      5.7614                 5.7907                 5.7831
 IR Inten    --     33.4362                95.1610                30.3389

                     88                     89                     90
                      A                      A                      A
 Frequencies --   3042.5598              3042.9361              3047.6960
 Red. masses --      1.0609                 1.0432                 1.0692
 Frc consts  --      5.7861                 5.6910                 5.8512
 IR Inten    --     24.0858                39.3648                31.8324

                     91                     92                     93
                      A                      A                      A
 Frequencies --   3059.0271              3061.2365              3063.3055
 Red. masses --      1.0988                 1.0781                 1.0872
 Frc consts  --      6.0581                 5.9526                 6.0111
 IR Inten    --     39.2818                55.4705                16.0744

                     94                     95                     96
                      A                      A                      A
 Frequencies --   3067.0955              3078.4891              3081.3687
 Red. masses --      1.0941                 1.0975                 1.0964
 Frc consts  --      6.0639                 6.1280                 6.1334
 IR Inten    --     51.6466                31.8769                28.0764

                     97                     98                     99
                      A                      A                      A
 Frequencies --   3102.5516              3106.9973              3111.8059
 Red. masses --      1.0937                 1.1003                 1.0902
 Frc consts  --      6.2030                 6.2583                 6.2197
 IR Inten    --     72.5050                43.9461                12.7091

                    100                    101                    102
                      A                      A                      A
 Frequencies --   3112.7451              3115.4665              3695.9848
 Red. masses --      1.1018                 1.1001                 1.0663
 Frc consts  --      6.2897                 6.2910                 8.5822
 IR Inten    --     56.7622                57.7617                58.1803

 - Thermochemistry -
 -------------------
 Temperature   298.150 Kelvin.  Pressure   1.00000 Atm.
 Atom     1 has atomic number  6 and mass  12.00000

 Molecular mass:   194.16707 amu.
 Principal axes and moments of inertia in atomic units:
                           1         2         3
     Eigenvalues --  2596.186073339.091034808.33302
           X            0.99156  -0.12960   0.00307
           Y            0.12958   0.99156   0.00417
           Z           -0.00359  -0.00373   0.99999
 This molecule is an asymmetric top.
 Rotational symmetry number  1.
 Warning -- assumption of classical behavior for rotation
           may cause significant error
 Rotational temperatures (Kelvin)      0.03336     0.02594     0.01801
 Rotational constants (GHZ):           0.69515     0.54049     0.37534
 Zero-point vibrational energy     864331.1 (Joules/Mol)
                                  206.58010 (Kcal/Mol)
 Warning -- explicit consideration of  22 degrees of freedom as
           vibrations may cause significant error
 Vibrational temperatures:     36.44    81.19   116.52   121.81   135.29
          (Kelvin)            169.47   219.37   258.81   292.79   327.31
                              356.06   375.05   445.69   469.97   492.77
                              515.40   557.93   577.35   605.92   646.44
                              686.97   719.10   897.65   983.89  1004.84
                             1110.72  1126.83  1140.92  1201.14  1238.57
                             1253.85  1272.29  1300.94  1335.61  1352.97
                             1379.43  1453.47  1495.75  1504.04  1523.98
                             1538.93  1566.54  1612.63  1620.36  1646.57
                             1659.61  1678.72  1710.15  1775.93  1811.44
                             1827.08  1856.00  1876.73  1881.87  1886.08
                             1906.38  1923.91  1958.36  1973.66  1978.45
                             1992.11  2004.01  2010.45  2020.52  2033.78
                             2037.59  2046.88  2074.59  2079.88  2164.66
                             2169.34  2179.11  2181.48  2192.73  2197.84
                             2200.08  2207.50  2215.85  2219.10  3472.67
                             4304.75  4337.43  4340.97  4343.53  4355.30
                             4364.48  4370.43  4377.57  4378.11  4384.95
                             4401.26  4404.44  4407.41  4412.87  4429.26
                             4433.40  4463.88  4470.28  4477.19  4478.55
                             4482.46  5317.70

 Zero-point correction=                           0.329206 (Hartree/Particle)
 Thermal correction to Energy=                    0.344779
 Thermal correction to Enthalpy=                  0.345723
 Thermal correction to Gibbs Free Energy=         0.286112
 Sum of electronic and zero-point Energies=           -583.510007
 Sum of electronic and thermal Energies=              -583.494434
 Sum of electronic and thermal Enthalpies=            -583.493490
 Sum of electronic and thermal Free Energies=         -583.553101

                     E (Thermal)             CV                S
                      KCal/Mol        Cal/Mol-Kelvin    Cal/Mol-Kelvin
 Total                  216.352             58.843            125.462
 Electronic               0.000              0.000              0.000
 Translational            0.889              2.981             41.696
 Rotational               0.889              2.981             32.100
 Vibrational            214.575             52.881             51.666
 Vibration     1          0.593              1.985              6.166
 Vibration     2          0.596              1.975              4.578
 Vibration     3          0.600              1.962              3.867
 Vibration     4          0.601              1.960              3.780
 Vibration     5          0.603              1.953              3.574
 Vibration     6          0.608              1.935              3.136
 Vibration     7          0.619              1.900              2.641
 Vibration     8          0.629              1.867              2.330
 Vibration     9          0.639              1.835              2.101
 Vibration    10          0.651              1.799              1.899
 Vibration    11          0.661              1.767              1.749
 Vibration    12          0.669              1.745              1.657
 Vibration    13          0.699              1.655              1.364
 Vibration    14          0.710              1.622              1.277
 Vibration    15          0.722              1.591              1.201
 Vibration    16          0.733              1.558              1.130
 Vibration    17          0.756              1.496              1.009
 Vibration    18          0.767              1.467              0.958
 Vibration    19          0.784              1.424              0.888
 Vibration    20          0.808              1.362              0.798
 Vibration    21          0.834              1.300              0.717
 Vibration    22          0.855              1.250              0.659

 Optimization completed.
    -- Stationary point found.
 Normal termination of Gaussian 16 at Thu Dec 10 09:38:19 2020.

 ----------------------------------------------------------------------
 # B3LYP/6-311++G(d,p) empiricaldispersion=gd3bj scf=xqc pop=npa geom=c
 heck
 ----------------------------------------------------------------------

 ---------------------------------------
 CID_139821028_JID_4166_Energie_neutraal
 ---------------------------------------
 Structure from the checkpoint file:  "JID_4166.chk"
 Charge =  0 Multiplicity = 1

 SCF Done:  E(RB3LYP) =  -584.009217139     A.U. after   14 cycles
 Normal termination of Gaussian 16 at Thu Dec 10 09:43:13 2020.

 ----------------------------------------------------------------------
 # B3LYP/6-311++G(d,p) empiricaldispersion=gd3bj scf=xqc pop=npa geom=c
 heck
 ----------------------------------------------------------------------

 -------------------------------------
 CID_139821028_JID_4166_Energie_kation
 -------------------------------------
 Structure from the checkpoint file:  "JID_4166.chk"
 Charge =  1 Multiplicity = 2

 SCF Done:  E(UB3LYP) =  -583.691771959     A.U. after   27 cycles
 Normal termination of Gaussian 16 at Thu Dec 10 09:55:32 2020.
 Gaussian 16:  ES64L-G16RevA.03 25-Dec-2016

 ----------------------------------------------------------------------
 # B3LYP/6-311++G(d,p) empiricaldispersion=gd3bj scf=xqc pop=npa geom=c
 heck
 ----------------------------------------------------------------------

 ------------------------------------
 CID_139821028_JID_4166_Energie_anion
 ------------------------------------
 Structure from the checkpoint file:  "JID_4166.chk"
 Charge = -1 Multiplicity = 2

                         Standard orientation:
 ---------------------------------------------------------------------
 Center     Atomic      Atomic             Coordinates (Angstroms)
 Number     Number       Type             X           Y           Z
 ---------------------------------------------------------------------
      1          6           0        2.193189   -3.106371   -0.343580
      2          6           0        1.927882   -1.762213   -1.028711
      3          6           0        0.550982   -1.153157   -0.714997
      4          6           0        0.291825   -0.874941    0.775512
      5          6           0        1.428140   -0.021613    1.405644
      6          6           0        1.808448    1.169421    0.641598
      7          6           0        2.101919    2.130280   -0.028357
      8          8           0        2.508578    3.160191   -0.749629
      9          6           0       -1.114241   -0.324602    1.162512
     10          6           0       -1.379259    1.180340    0.927968
     11          6           0       -1.794529    1.541414   -0.503068
     12          6           0       -3.027719    0.735566   -0.927223
     13          6           0       -2.768408   -0.770682   -0.804244
     14          6           0       -2.291522   -1.161205    0.606410
     15          1           0        2.239227   -3.009685    0.747176
     16          1           0        3.145810   -3.535394   -0.673701
     17          1           0        1.402157   -3.830538   -0.576079
     18          1           0        2.717377   -1.047369   -0.768193
     19          1           0        1.995726   -1.898686   -2.115984
     20          1           0        0.444900   -0.227135   -1.288811
     21          1           0       -0.215802   -1.845137   -1.080383
     22          1           0        0.346095   -1.846412    1.287427
     23          1           0        1.135106    0.261608    2.426118
     24          1           0        2.319646   -0.651437    1.518416
     25          1           0        1.756183    3.753427   -0.914540
     26          1           0       -1.139850   -0.455278    2.254566
     27          1           0       -2.204457    1.470307    1.595441
     28          1           0       -0.513920    1.774558    1.233587
     29          1           0       -0.967318    1.348392   -1.197341
     30          1           0       -2.008216    2.616994   -0.562140
     31          1           0       -3.321156    0.985957   -1.954448
     32          1           0       -3.873567    1.014326   -0.281142
     33          1           0       -2.026325   -1.060970   -1.555366
     34          1           0       -3.681805   -1.331339   -1.041073
     35          1           0       -2.036883   -2.229192    0.635627
     36          1           0       -3.141790   -1.031942    1.291098
 ---------------------------------------------------------------------

 SCF Done:  E(UB3LYP) =  -584.000566778     A.U. after   31 cycles

 The electronic state is 2-A.
 Alpha  occ. eigenvalues --  -19.06849 -10.10369 -10.08674 -10.07532 -10.07006
 Alpha  occ. eigenvalues --  -10.06797 -10.06768 -10.06473 -10.06262 -10.06030
 Alpha  occ. eigenvalues --  -10.06023 -10.05245 -10.05192 -10.04707  -0.97405
 Alpha  occ. eigenvalues --   -0.74054  -0.70813  -0.67329  -0.64778  -0.63552
 Alpha  occ. eigenvalues --   -0.61339  -0.58788  -0.53850  -0.50534  -0.49975
 Alpha  occ. eigenvalues --   -0.48919  -0.45722  -0.42960  -0.38703  -0.37625
 Alpha  occ. eigenvalues --   -0.36185  -0.35585  -0.34633  -0.33963  -0.33348
 Alpha  occ. eigenvalues --   -0.32499  -0.31263  -0.30599  -0.29766  -0.29359
 Alpha  occ. eigenvalues --   -0.27504  -0.27201  -0.26532  -0.25929  -0.25290
 Alpha  occ. eigenvalues --   -0.24143  -0.23370  -0.22301  -0.22224  -0.19850
 Alpha  occ. eigenvalues --   -0.19382  -0.19039  -0.14416  -0.12782   0.04235
 Alpha virt. eigenvalues --    0.05989   0.06730   0.07377   0.08492   0.08983
 Alpha virt. eigenvalues --    0.09135   0.09456   0.10325   0.10987   0.11615
 Alpha virt. eigenvalues --    0.11996   0.12131   0.12527   0.12930   0.13761

  Beta  occ. eigenvalues --  -19.06745 -10.10357 -10.08666 -10.07528 -10.07004
  Beta  occ. eigenvalues --  -10.06782 -10.06758 -10.06460 -10.06254 -10.06023
  Beta  occ. eigenvalues --  -10.06013 -10.05230 -10.05168 -10.04697  -0.97174
  Beta  occ. eigenvalues --   -0.74036  -0.70793  -0.67307  -0.64742  -0.63521
  Beta  occ. eigenvalues --   -0.61292  -0.58745  -0.53811  -0.50487  -0.49944
  Beta  occ. eigenvalues --   -0.48726  -0.45680  -0.42930  -0.38673  -0.37596
  Beta  occ. eigenvalues --   -0.36156  -0.35553  -0.34579  -0.33920  -0.33310
  Beta  occ. eigenvalues --   -0.32481  -0.31243  -0.30568  -0.29683  -0.29333
  Beta  occ. eigenvalues --   -0.27482  -0.27170  -0.26511  -0.25907  -0.25272
  Beta  occ. eigenvalues --   -0.24121  -0.23347  -0.22281  -0.22205  -0.19826
  Beta  occ. eigenvalues --   -0.19357  -0.19011  -0.14363  -0.12741
  Beta virt. eigenvalues --    0.06098   0.06949   0.07533   0.07950   0.08862
  Beta virt. eigenvalues --    0.09102   0.09379   0.09698   0.10533   0.11095
  Beta virt. eigenvalues --    0.11854   0.12094   0.12263   0.12736   0.13227

 Mulliken charges and spin densities:
               1          2
     1  C    0.019501  -0.593661
     2  C    0.072518  -0.558710
     3  C   -0.861931   0.598771
     4  C    0.237899   0.207685
     5  C   -0.629126  -0.089482
     6  C    0.932366  -0.423750
     7  C    0.250968  -0.606618
     8  O   -0.329962   0.017620
     9  C    0.301175  -0.134407
    10  C   -0.076303  -0.382611
    11  C   -0.001425  -0.071016
    12  C    0.140496  -0.853377
    13  C   -0.242817   0.179355
    14  C    0.008360  -0.620254
    15  H   -0.060769   0.201179
    16  H    0.021717   0.114186
    17  H   -0.051855   0.187555
    18  H    0.118538   0.044775
    19  H   -0.014835   0.161286
    20  H   -0.092319   0.238911
    21  H    0.226102  -0.127435
    22  H    0.113681   0.087129
    23  H   -0.015494   0.194533
    24  H    0.169827  -0.019376
    25  H   -0.666729   0.996446
    26  H    0.020743   0.169290
    27  H   -0.095776   0.239051
    28  H    0.098787   0.059731
    29  H    0.188465  -0.053615
    30  H   -0.461658   0.661419
    31  H   -0.122059   0.288360
    32  H    0.163691  -0.054501
    33  H   -0.113986   0.221256
    34  H   -0.111196   0.285012
    35  H    0.008857   0.138289
    36  H   -0.145451   0.296973
 Sum of Mulliken charges =  -1.00000   1.00000

 Dipole moment (field-independent basis, Debye):
    X=             -0.8711    Y=             -6.7059    Z=              1.9737  Tot=              7.0444
 Quadrupole moment (field-independent basis, Debye-Ang):
   XX=           -137.9721   YY=           -161.3441   ZZ=           -118.9488
   XY=             -8.4151   XZ=              2.0105   YZ=              8.4940

 Summary of Natural Population Analysis:

                                       Natural Population
                Natural  -----------------------------------------------
    Atom  No    Charge         Core      Valence    Rydberg      Total
 -----------------------------------------------------------------------
      C    1   -0.28659      0.99967     2.28288    0.00405     3.28659
      C    2   -0.19053      0.99964     2.18391    0.00698     3.19053
      C    3   -0.19258      0.99960     2.18546    0.00752     3.19258
      C    4   -0.09791      0.99957     2.08719    0.01115     3.09791
      C    5   -0.22313      0.99957     2.21428    0.00928     3.22313
      C    6   -0.09129      0.99915     2.08337    0.00877     3.09129
      C    7    0.16048      0.99891     1.83026    0.01036     2.83952
      O    8   -0.32744      0.99986     3.31967    0.00791     4.32744
      C    9   -0.10253      0.99957     2.09177    0.01119     3.10253
      C   10   -0.19288      0.99960     2.18347    0.00981     3.19288
      C   11   -0.19232      0.99962     2.18283    0.00987     3.19232
      C   12   -0.18758      0.99963     2.18021    0.00775     3.18758
      C   13   -0.19026      0.99962     2.18357    0.00707     3.19026
      C   14   -0.19028      0.99961     2.18114    0.00953     3.19028
      H   15    0.09469      0.00000     0.40421    0.00109     0.40531
      H   16    0.09632      0.00000     0.40278    0.00089     0.40368
      H   17    0.09466      0.00000     0.40415    0.00119     0.40534
      H   18    0.09957      0.00000     0.39913    0.00129     0.40043
      H   19    0.09388      0.00000     0.40505    0.00107     0.40612
      H   20    0.10448      0.00000     0.39370    0.00182     0.39552
      H   21    0.09535      0.00000     0.40314    0.00151     0.40465
      H   22    0.09356      0.00000     0.40444    0.00200     0.40644
      H   23    0.10728      0.00000     0.39137    0.00134     0.39272
      H   24    0.10892      0.00000     0.38989    0.00119     0.39108
      H   25    0.25576      0.00000     0.20804    0.03620     0.24424
      H   26    0.09486      0.00000     0.40364    0.00150     0.40514
      H   27    0.09190      0.00000     0.40685    0.00125     0.40810
      H   28    0.10975      0.00000     0.38890    0.00135     0.39025
      H   29    0.09549      0.00000     0.40248    0.00204     0.40451
      H   30    0.10071      0.00000     0.39769    0.00160     0.39929
      H   31    0.09678      0.00000     0.40230    0.00092     0.40322
      H   32    0.08911      0.00000     0.40964    0.00125     0.41089
      H   33    0.09404      0.00000     0.40425    0.00171     0.40596
      H   34    0.09472      0.00000     0.40427    0.00102     0.40528
      H   35    0.09761      0.00000     0.40134    0.00105     0.40239
      H   36    0.09541      0.00000     0.40348    0.00111     0.40459
 =======================================================================
   * Total *   -0.00000     13.99362    39.82075    0.18564    54.00000

 Normal termination of Gaussian 16 at Thu Dec 10 10:09:37 2020.
