 Gaussian 16, Revision A.03,

 -----------------------------------------------------------
 # opt freq B3LYP/6-31G(d) empiricaldispersion=gd3bj scf=xqc
 -----------------------------------------------------------

 -------------------------------
 CID_136410809_JID_8163_neutraal
 -------------------------------
 Symbolic Z-matrix:
 Charge =  0 Multiplicity = 1

 SCF Done:  E(RB3LYP) =  -828.823017058     A.U. after   15 cycles
 SCF Done:  E(RB3LYP) =  -828.847077892     A.U. after   13 cycles
 SCF Done:  E(RB3LYP) =  -828.859420476     A.U. after   13 cycles
 SCF Done:  E(RB3LYP) =  -828.859781034     A.U. after    9 cycles
 SCF Done:  E(RB3LYP) =  -828.861029781     A.U. after   11 cycles
 SCF Done:  E(RB3LYP) =  -828.862933992     A.U. after   11 cycles
 SCF Done:  E(RB3LYP) =  -828.864002082     A.U. after   11 cycles
 SCF Done:  E(RB3LYP) =  -828.864133406     A.U. after   10 cycles
 SCF Done:  E(RB3LYP) =  -828.864248925     A.U. after   11 cycles
 SCF Done:  E(RB3LYP) =  -828.864321884     A.U. after   11 cycles
 SCF Done:  E(RB3LYP) =  -828.870357181     A.U. after    9 cycles
 SCF Done:  E(RB3LYP) =  -828.870357953     A.U. after    9 cycles
 SCF Done:  E(RB3LYP) =  -828.870358267     A.U. after    8 cycles
 SCF Done:  E(RB3LYP) =  -828.870358439     A.U. after    8 cycles
 SCF Done:  E(RB3LYP) =  -828.870358512     A.U. after    7 cycles
 Optimization completed.
    -- Stationary point found.
 Normal termination of Gaussian 16 at Fri Dec 11 20:14:14 2020.

 --------------------------------------------------------------------
 #N Geom=AllCheck Guess=TCheck SCRF=Check GenChk RB3LYP/6-31G(d) Freq
 --------------------------------------------------------------------

 Structure from the checkpoint file:  "JID_8163.chk"
 -------------------------------
 CID_136410809_JID_8163_neutraal
 -------------------------------
 Charge =  0 Multiplicity = 1

 SCF Done:  E(RB3LYP) =  -828.870358512     A.U. after    1 cycles

  Exact polarizability: 139.855  25.337 147.978  -9.781  -7.834 135.358
 Approx polarizability: 214.257  45.424 250.442 -21.082 -23.788 270.698

                      1                      2                      3
                      A                      A                      A
 Frequencies --     11.2328                24.6844                28.6676
 Red. masses --      4.7814                 5.2950                 6.9117
 Frc consts  --      0.0004                 0.0019                 0.0033
 IR Inten    --      0.3577                 0.3144                 0.8075

                      4                      5                      6
                      A                      A                      A
 Frequencies --     37.4557                75.8317                82.0903
 Red. masses --      4.7763                 7.4037                 4.8786
 Frc consts  --      0.0039                 0.0251                 0.0194
 IR Inten    --      0.0284                 0.0739                 0.8289

                      7                      8                      9
                      A                      A                      A
 Frequencies --    147.1831               167.8801               190.3441
 Red. masses --      7.1239                 7.6805                 3.1408
 Frc consts  --      0.0909                 0.1275                 0.0670
 IR Inten    --     12.6183                 1.8396                 4.7710

                     10                     11                     12
                      A                      A                      A
 Frequencies --    206.1150               327.4962               339.1846
 Red. masses --      6.4448                 8.7242                 3.6482
 Frc consts  --      0.1613                 0.5513                 0.2473
 IR Inten    --      1.7037                 0.8339                13.3818

                     13                     14                     15
                      A                      A                      A
 Frequencies --    343.1792               351.9481               397.3133
 Red. masses --      1.1014                 2.8641                 8.7154
 Frc consts  --      0.0764                 0.2090                 0.8106
 IR Inten    --     86.9571                 2.7958                 7.9733

                     16                     17                     18
                      A                      A                      A
 Frequencies --    448.8220               455.5123               485.9304
 Red. masses --      3.9956                 3.5151                 9.5004
 Frc consts  --      0.4742                 0.4297                 1.3217
 IR Inten    --     21.1839                 1.0352                 2.2655

                     19                     20                     21
                      A                      A                      A
 Frequencies --    533.3575               558.5985               585.9263
 Red. masses --      7.7836                 1.9759                 6.1807
 Frc consts  --      1.3046                 0.3632                 1.2502
 IR Inten    --      4.4207                40.7637                 2.6731

                     22                     23                     24
                      A                      A                      A
 Frequencies --    596.3888               605.4857               635.1809
 Red. masses --      1.3336                 1.4483                 6.7338
 Frc consts  --      0.2795                 0.3128                 1.6007
 IR Inten    --     27.3751               347.5021                 8.9551

                     25                     26                     27
                      A                      A                      A
 Frequencies --    681.9313               685.4465               703.5763
 Red. masses --      4.3014                 6.6057                 4.2699
 Frc consts  --      1.1785                 1.8286                 1.2453
 IR Inten    --     16.3355                 1.2925                 1.7841

                     28                     29                     30
                      A                      A                      A
 Frequencies --    709.7725               718.3728               739.1398
 Red. masses --      2.2335                 6.0232                 5.1335
 Frc consts  --      0.6629                 1.8314                 1.6524
 IR Inten    --    102.2998                71.0357                48.3421

                     31                     32                     33
                      A                      A                      A
 Frequencies --    757.5991               807.6714               852.7943
 Red. masses --      1.1718                12.0125                 7.5839
 Frc consts  --      0.3963                 4.6169                 3.2496
 IR Inten    --     39.3703                16.4049                 5.2402

                     34                     35                     36
                      A                      A                      A
 Frequencies --    887.8627               902.4730               931.9449
 Red. masses --      4.9379                 1.2685                 1.3709
 Frc consts  --      2.2934                 0.6087                 0.7015
 IR Inten    --      2.4648                 0.0159                 0.0062

                     37                     38                     39
                      A                      A                      A
 Frequencies --    985.7197               996.8855              1015.6121
 Red. masses --      1.2519                12.0190                 5.9615
 Frc consts  --      0.7167                 7.0373                 3.6230
 IR Inten    --      0.1095                13.3011                 2.6661

                     40                     41                     42
                      A                      A                      A
 Frequencies --   1026.0871              1031.5561              1037.2741
 Red. masses --      2.4164                 1.1975                 1.3004
 Frc consts  --      1.4990                 0.7508                 0.8243
 IR Inten    --      8.4606                 1.2695                 1.3080

                     43                     44                     45
                      A                      A                      A
 Frequencies --   1047.1318              1114.0061              1118.6735
 Red. masses --      2.8802                 1.3007                 2.7347
 Frc consts  --      1.8607                 0.9510                 2.0164
 IR Inten    --     12.4006                17.2281                11.6954

                     46                     47                     48
                      A                      A                      A
 Frequencies --   1140.1560              1150.3330              1163.5018
 Red. masses --      1.7485                 2.8034                 3.8002
 Frc consts  --      1.3392                 2.1857                 3.0310
 IR Inten    --      1.3221                 0.9787                12.1637

                     49                     50                     51
                      A                      A                      A
 Frequencies --   1192.7093              1192.8139              1214.5354
 Red. masses --      1.3465                 2.4526                 4.6409
 Frc consts  --      1.1286                 2.0560                 4.0334
 IR Inten    --     39.2952                80.4561                 3.3739

                     52                     53                     54
                      A                      A                      A
 Frequencies --   1302.7015              1324.8807              1348.8087
 Red. masses --      9.0719                 1.3944                 1.9048
 Frc consts  --      9.0707                 1.4421                 2.0417
 IR Inten    --      5.5401                 1.3948                51.0575

                     55                     56                     57
                      A                      A                      A
 Frequencies --   1397.2794              1404.5120              1452.0785
 Red. masses --     11.1933                 3.9186                 2.6537
 Frc consts  --     12.8759                 4.5544                 3.2967
 IR Inten    --      7.3775                 0.7343                 9.6157

                     58                     59                     60
                      A                      A                      A
 Frequencies --   1489.6417              1498.9084              1500.8019
 Red. masses --      1.7752                 2.1684                 2.2922
 Frc consts  --      2.3209                 2.8704                 3.0420
 IR Inten    --      6.8878                18.5460                14.6085

                     61                     62                     63
                      A                      A                      A
 Frequencies --   1528.6739              1550.2155              1600.5697
 Red. masses --      1.2436                 5.9167                 4.7693
 Frc consts  --      1.7122                 8.3775                 7.1987
 IR Inten    --     36.9632               133.7234                32.6302

                     64                     65                     66
                      A                      A                      A
 Frequencies --   1628.4522              1650.7080              1702.2677
 Red. masses --      6.8531                 1.9151                 2.2884
 Frc consts  --     10.7075                 3.0745                 3.9069
 IR Inten    --      4.4707               140.2497               466.3026

                     67                     68                     69
                      A                      A                      A
 Frequencies --   1757.0553              1825.3096              3058.0989
 Red. masses --      9.5695                 9.7497                 1.0550
 Frc consts  --     17.4065                19.1389                 5.8130
 IR Inten    --     13.2130               411.7044                79.1121

                     70                     71                     72
                      A                      A                      A
 Frequencies --   3134.7146              3179.2976              3192.1942
 Red. masses --      1.1096                 1.0857                 1.0900
 Frc consts  --      6.4241                 6.4659                 6.5443
 IR Inten    --     15.2752                 0.4139                23.8408

                     73                     74                     75
                      A                      A                      A
 Frequencies --   3203.0696              3222.4968              3562.6646
 Red. masses --      1.0952                 1.0943                 1.0478
 Frc consts  --      6.6202                 6.6953                 7.8358
 IR Inten    --     37.6464                 6.8703                44.1272

                     76                     77                     78
                      A                      A                      A
 Frequencies --   3593.2078              3659.9267              3669.7251
 Red. masses --      1.0773                 1.0824                 1.0999
 Frc consts  --      8.1952                 8.5424                 8.7270
 IR Inten    --     45.9400               141.3686                32.8814

 - Thermochemistry -
 -------------------
 Temperature   298.150 Kelvin.  Pressure   1.00000 Atm.
 Atom     1 has atomic number  6 and mass  12.00000

 Molecular mass:   242.09161 amu.
 Principal axes and moments of inertia in atomic units:
                           1         2         3
     Eigenvalues --  2885.000295645.171866173.22643
           X            0.99982   0.01923   0.00004
           Y           -0.01922   0.99975  -0.01109
           Z           -0.00025   0.01109   0.99994
 This molecule is an asymmetric top.
 Rotational symmetry number  1.
 Warning -- assumption of classical behavior for rotation
           may cause significant error
 Rotational temperatures (Kelvin)      0.03002     0.01534     0.01403
 Rotational constants (GHZ):           0.62556     0.31970     0.29235
 Zero-point vibrational energy     555543.7 (Joules/Mol)
                                  132.77812 (Kcal/Mol)
 Warning -- explicit consideration of  23 degrees of freedom as
           vibrations may cause significant error
 Vibrational temperatures:     16.16    35.52    41.25    53.89   109.10
          (Kelvin)            118.11   211.76   241.54   273.86   296.55
                              471.19   488.01   493.76   506.37   571.65
                              645.75   655.38   699.15   767.38   803.70
                              843.02   858.07   871.16   913.88   981.15
                              986.20  1012.29  1021.20  1033.58  1063.46
                             1090.02  1162.06  1226.98  1277.44  1298.46
                             1340.86  1418.23  1434.30  1461.24  1476.31
                             1484.18  1492.41  1506.59  1602.81  1609.52
                             1640.43  1655.07  1674.02  1716.04  1716.19
                             1747.45  1874.30  1906.21  1940.63  2010.37
                             2020.78  2089.22  2143.26  2156.59  2159.32
                             2199.42  2230.41  2302.86  2342.98  2375.00
                             2449.18  2528.01  2626.21  4399.92  4510.16
                             4574.30  4592.86  4608.50  4636.45  5125.88
                             5169.82  5265.82  5279.92

 Zero-point correction=                           0.211595 (Hartree/Particle)
 Thermal correction to Energy=                    0.227028
 Thermal correction to Enthalpy=                  0.227972
 Thermal correction to Gibbs Free Energy=         0.164814
 Sum of electronic and zero-point Energies=           -828.658763
 Sum of electronic and thermal Energies=              -828.643331
 Sum of electronic and thermal Enthalpies=            -828.642387
 Sum of electronic and thermal Free Energies=         -828.705545

                     E (Thermal)             CV                S
                      KCal/Mol        Cal/Mol-Kelvin    Cal/Mol-Kelvin
 Total                  142.462             57.486            132.927
 Electronic               0.000              0.000              0.000
 Translational            0.889              2.981             42.353
 Rotational               0.889              2.981             32.975
 Vibrational            140.684             51.524             57.599
 Vibration     1          0.593              1.987              7.780
 Vibration     2          0.593              1.985              6.216
 Vibration     3          0.593              1.984              5.920
 Vibration     4          0.594              1.982              5.389
 Vibration     5          0.599              1.965              3.996
 Vibration     6          0.600              1.961              3.840
 Vibration     7          0.617              1.906              2.708
 Vibration     8          0.625              1.882              2.459
 Vibration     9          0.634              1.853              2.224
 Vibration    10          0.641              1.831              2.078
 Vibration    11          0.711              1.621              1.272
 Vibration    12          0.719              1.597              1.216
 Vibration    13          0.722              1.589              1.197
 Vibration    14          0.728              1.571              1.157
 Vibration    15          0.764              1.476              0.973
 Vibration    16          0.808              1.363              0.799
 Vibration    17          0.814              1.349              0.779
 Vibration    18          0.842              1.281              0.694
 Vibration    19          0.888              1.176              0.580
 Vibration    20          0.914              1.121              0.527
 Vibration    21          0.943              1.062              0.475
 Vibration    22          0.954              1.039              0.456
 Vibration    23          0.964              1.020              0.440

                           ! Non-Optimized Parameters !
 Normal termination of Gaussian 16 at Fri Dec 11 20:25:11 2020.

 ----------------------------------------------------------------------
 # B3LYP/6-311++G(d,p) empiricaldispersion=gd3bj scf=xqc pop=npa geom=c
 heck
 ----------------------------------------------------------------------

 ---------------------------------------
 CID_136410809_JID_8163_Energie_neutraal
 ---------------------------------------
 Structure from the checkpoint file:  "JID_8163.chk"
 Charge =  0 Multiplicity = 1

 SCF Done:  E(RB3LYP) =  -829.101879188     A.U. after   16 cycles
 Normal termination of Gaussian 16 at Fri Dec 11 20:29:17 2020.

 ----------------------------------------------------------------------
 # B3LYP/6-311++G(d,p) empiricaldispersion=gd3bj scf=xqc pop=npa geom=c
 heck
 ----------------------------------------------------------------------

 -------------------------------------
 CID_136410809_JID_8163_Energie_kation
 -------------------------------------
 Structure from the checkpoint file:  "JID_8163.chk"
 Charge =  1 Multiplicity = 2

 SCF Done:  E(UB3LYP) =  -828.800349540     A.U. after   28 cycles
 Normal termination of Gaussian 16 at Fri Dec 11 20:38:58 2020.
 Gaussian 16:  ES64L-G16RevA.03 25-Dec-2016

 ----------------------------------------------------------------------
 # B3LYP/6-311++G(d,p) empiricaldispersion=gd3bj scf=xqc pop=npa geom=c
 heck
 ----------------------------------------------------------------------

 ------------------------------------
 CID_136410809_JID_8163_Energie_anion
 ------------------------------------
 Structure from the checkpoint file:  "JID_8163.chk"
 Charge = -1 Multiplicity = 2

                         Standard orientation:
 ---------------------------------------------------------------------
 Center     Atomic      Atomic             Coordinates (Angstroms)
 Number     Number       Type             X           Y           Z
 ---------------------------------------------------------------------
      1          6           0       -1.008990    1.375709   -1.034170
      2          6           0       -2.474217    1.088161   -0.902721
      3          6           0       -3.843324    0.926359   -0.940343
      4          6           0       -4.325358    0.023774    0.031130
      5          6           0       -3.472177   -0.633928    0.930710
      6          6           0       -2.074484   -0.441041    0.928008
      7          6           0       -1.653685    0.453024   -0.036732
      8          6           0        1.318368   -1.128739    0.308256
      9          7           0        0.915202   -2.390677    0.100411
     10          7           0        1.174032   -2.548940   -1.186734
     11          7           0        1.707816   -1.522480   -1.862775
     12          6           0        1.811710   -0.585882   -0.906243
     13          7           0        2.273082    0.689907   -1.081254
     14          6           0        2.250081    1.407892    0.005569
     15          7           0        1.806683    0.957250    1.238246
     16          6           0        1.283288   -0.328247    1.515768
     17          8           0        0.889660   -0.616417    2.631822
     18          7           0        2.735752    2.695964   -0.013147
     19          1           0       -0.442577    0.960382   -1.870526
     20          1           0       -0.613993    2.341281   -0.701740
     21          1           0       -4.514350    1.426404   -1.633470
     22          1           0       -5.393085   -0.172566    0.086376
     23          1           0       -3.906447   -1.318306    1.654860
     24          1           0       -1.426510   -0.955973    1.629776
     25          1           0        0.971048   -3.422495   -1.652066
     26          1           0        1.871552    1.561149    2.049565
     27          1           0        2.272916    3.374642    0.578292
     28          1           0        2.908928    3.027159   -0.954247
 ---------------------------------------------------------------------

 SCF Done:  E(UB3LYP) =  -829.108125288     A.U. after   33 cycles
 SCF Done:  E(UB3LYP) =  -829.108125288     a.u. after    1 cycles

 The electronic state is 2-A.
 Alpha  occ. eigenvalues --  -18.96724 -14.28764 -14.24578 -14.22332 -14.21646
 Alpha  occ. eigenvalues --  -14.21272 -14.18250 -10.17611 -10.15101 -10.10905
 Alpha  occ. eigenvalues --  -10.10469 -10.09308 -10.08571 -10.08327 -10.08177
 Alpha  occ. eigenvalues --  -10.07816 -10.07626 -10.07338  -0.98101  -0.92729
 Alpha  occ. eigenvalues --   -0.88701  -0.79973  -0.79549  -0.79004  -0.76241
 Alpha  occ. eigenvalues --   -0.71179  -0.69268  -0.65190  -0.58240  -0.57341
 Alpha  occ. eigenvalues --   -0.54322  -0.49966  -0.48566  -0.48386  -0.44998
 Alpha  occ. eigenvalues --   -0.43396  -0.43113  -0.41326  -0.39281  -0.37001
 Alpha  occ. eigenvalues --   -0.36328  -0.35669  -0.35564  -0.35209  -0.34425
 Alpha  occ. eigenvalues --   -0.32611  -0.31125  -0.30791  -0.29870  -0.27312
 Alpha  occ. eigenvalues --   -0.25814  -0.23616  -0.22643  -0.20731  -0.19019
 Alpha  occ. eigenvalues --   -0.18084  -0.17188  -0.16954  -0.16270  -0.16027
 Alpha  occ. eigenvalues --   -0.14702  -0.14404  -0.11055   0.03982
 Alpha virt. eigenvalues --    0.05839   0.06967   0.07484   0.08628   0.08707
 Alpha virt. eigenvalues --    0.08761   0.09402   0.10234   0.10734   0.11741
 Alpha virt. eigenvalues --    0.12077   0.13096   0.14112   0.14265   0.14450

  Beta  occ. eigenvalues --  -18.96532 -14.28425 -14.24575 -14.22256 -14.21255
  Beta  occ. eigenvalues --  -14.21130 -14.18199 -10.17567 -10.14901 -10.10947
  Beta  occ. eigenvalues --  -10.10455 -10.09297 -10.08570 -10.08316 -10.08174
  Beta  occ. eigenvalues --  -10.07814 -10.07625 -10.07383  -0.97620  -0.92431
  Beta  occ. eigenvalues --   -0.88538  -0.79953  -0.79388  -0.78867  -0.75824
  Beta  occ. eigenvalues --   -0.71163  -0.68946  -0.65168  -0.57784  -0.57321
  Beta  occ. eigenvalues --   -0.54196  -0.49847  -0.48559  -0.48360  -0.44836
  Beta  occ. eigenvalues --   -0.43215  -0.42922  -0.41314  -0.39130  -0.36744
  Beta  occ. eigenvalues --   -0.35923  -0.35607  -0.35451  -0.34998  -0.34211
  Beta  occ. eigenvalues --   -0.31845  -0.31069  -0.30552  -0.29812  -0.26585
  Beta  occ. eigenvalues --   -0.25776  -0.23304  -0.22612  -0.20179  -0.18980
  Beta  occ. eigenvalues --   -0.17796  -0.16857  -0.16423  -0.16023  -0.15264
  Beta  occ. eigenvalues --   -0.14521  -0.14348  -0.10283
  Beta virt. eigenvalues --    0.06833   0.07257   0.07756   0.08591   0.08717
  Beta virt. eigenvalues --    0.08793   0.09085   0.10159   0.10322   0.11057
  Beta virt. eigenvalues --    0.11946   0.12593   0.13221   0.14218   0.14353

 Mulliken charges and spin densities:
               1          2
     1  C   -0.282425  -0.240755
     2  C    1.162412   0.134592
     3  C   -0.439058  -0.080693
     4  C   -0.178351  -0.054426
     5  C   -0.429780   0.020409
     6  C   -1.456160   0.060096
     7  C    0.665635   0.178364
     8  C    0.280134   0.013593
     9  N   -0.188823   0.191702
    10  N    0.052341   0.106009
    11  N   -0.142620   0.069825
    12  C   -0.259290  -0.397233
    13  N   -0.096100   0.025131
    14  C    0.696351  -0.819470
    15  N   -0.271891   0.005181
    16  C    0.021223   0.002709
    17  O   -0.343777   0.071977
    18  N   -0.446327   0.224844
    19  H    0.239602  -0.019993
    20  H   -0.029359   0.190545
    21  H    0.106505   0.032039
    22  H    0.130002   0.000309
    23  H    0.162364  -0.000466
    24  H    0.190302  -0.005041
    25  H    0.296879  -0.006981
    26  H    0.080095   0.241427
    27  H   -0.504389   0.754788
    28  H   -0.015494   0.301518
 Sum of Mulliken charges =  -1.00000   1.00000

 Dipole moment (field-independent basis, Debye):
    X=             -5.1440    Y=             -3.0718    Z=             -2.1950  Tot=              6.3808
 Quadrupole moment (field-independent basis, Debye-Ang):
   XX=           -135.1599   YY=           -140.3936   ZZ=           -134.5752
   XY=             -6.2102   XZ=              1.8642   YZ=              2.2006

 Summary of Natural Population Analysis:

                                       Natural Population
                Natural  -----------------------------------------------
    Atom  No    Charge         Core      Valence    Rydberg      Total
 -----------------------------------------------------------------------
      C    1   -0.18031      0.99961     2.17164    0.00905     3.18031
      C    2   -0.01711      0.99934     2.00809    0.00967     3.01711
      C    3   -0.11098      0.99951     2.10281    0.00866     3.11098
      C    4   -0.10619      0.99959     2.09816    0.00844     3.10619
      C    5   -0.10323      0.99959     2.09561    0.00803     3.10323
      C    6   -0.09618      0.99950     2.08679    0.00990     3.09618
      C    7   -0.00881      0.99934     1.99951    0.00996     3.00881
      C    8   -0.03448      0.99944     2.01981    0.01523     3.03448
      N    9   -0.06991      0.99971     2.55601    0.01419     3.56991
      N   10   -0.02579      0.99975     2.51138    0.01466     3.52579
      N   11   -0.14347      0.99971     2.63257    0.01119     3.64347
      C   12    0.13923      0.99950     1.84060    0.02067     2.86077
      N   13   -0.28717      0.99963     2.77779    0.00976     3.78717
      C   14    0.31403      0.99963     1.66785    0.01849     2.68597
      N   15   -0.31810      0.99965     2.80961    0.00884     3.81810
      C   16    0.34863      0.99961     1.62797    0.02379     2.65137
      O   17   -0.29832      0.99988     3.29326    0.00518     4.29832
      N   18   -0.39744      0.99971     2.88768    0.01006     3.89744
      H   19    0.10896      0.00000     0.38951    0.00152     0.39104
      H   20    0.10203      0.00000     0.39614    0.00183     0.39797
      H   21    0.09656      0.00000     0.40229    0.00115     0.40344
      H   22    0.09453      0.00000     0.40462    0.00084     0.40547
      H   23    0.09696      0.00000     0.40223    0.00081     0.40304
      H   24    0.11903      0.00000     0.37962    0.00136     0.38097
      H   25    0.18700      0.00000     0.31187    0.00114     0.31300
      H   26    0.20114      0.00000     0.29649    0.00237     0.29886
      H   27    0.19381      0.00000     0.29018    0.01601     0.30619
      H   28    0.19558      0.00000     0.30174    0.00268     0.30442
 =======================================================================
   * Total *   -0.00000     17.99268    44.76184    0.24548    63.00000

 Normal termination of Gaussian 16 at Fri Dec 11 20:50:24 2020.
