 Gaussian 16, Revision A.03,

 -----------------------------------------------------------
 # opt freq B3LYP/6-31G(d) empiricaldispersion=gd3bj scf=xqc
 -----------------------------------------------------------

 -----------------------------
 CID_88943917_JID_475_neutraal
 -----------------------------
 Symbolic Z-matrix:
 Charge =  0 Multiplicity = 1

 SCF Done:  E(RB3LYP) =  -426.601593996     A.U. after   14 cycles
 SCF Done:  E(RB3LYP) =  -426.602751764     A.U. after   13 cycles
 SCF Done:  E(RB3LYP) =  -426.602520808     A.U. after   14 cycles
 SCF Done:  E(RB3LYP) =  -426.605070850     A.U. after   12 cycles
 SCF Done:  E(RB3LYP) =  -426.605254041     A.U. after   11 cycles
 SCF Done:  E(RB3LYP) =  -426.605349498     A.U. after   12 cycles
 SCF Done:  E(RB3LYP) =  -426.605373586     A.U. after   11 cycles
 SCF Done:  E(RB3LYP) =  -426.605381953     A.U. after   11 cycles
 SCF Done:  E(RB3LYP) =  -426.605384364     A.U. after   10 cycles
 SCF Done:  E(RB3LYP) =  -426.605385897     A.U. after   10 cycles
 SCF Done:  E(RB3LYP) =  -426.605387235     A.U. after   10 cycles
 SCF Done:  E(RB3LYP) =  -426.605387393     A.U. after    8 cycles
 Optimization completed.
    -- Stationary point found.

 1\1\GINC-NODE315\FOpt\RB3LYP\6-31G(d)\C9H14O1\VSC10255\08-Dec-2020\0\\
 # opt freq B3LYP/6-31G(d) empiricaldispersion=gd3bj scf=xqc\\CID_88943
 917_JID_475_neutraal\\0,1\C,0.9228979726,0.1162438113,-0.0629438393\C,
 0.7885865742,1.0118144197,1.1811302598\C,0.9628358145,2.4698403909,0.8
 682016464\C,0.0187845306,3.4292420066,0.8488517853\C,0.394185324,4.870
 319221,0.5496769909\C,-0.1958602151,5.3118396013,-0.7792517762\O,-0.92
 33570603,6.2664759523,-0.9305879125\C,-1.4211598833,3.2256928222,1.094
 2595576\C,-2.1838752275,2.2368649397,0.6073896115\C,-3.6525768949,2.08

 Normal termination of Gaussian 16 at Tue Dec  8 10:39:06 2020.

 --------------------------------------------------------------------
 #N Geom=AllCheck Guess=TCheck SCRF=Check GenChk RB3LYP/6-31G(d) Freq
 --------------------------------------------------------------------

 Structure from the checkpoint file:  "JID_475.chk"
 -----------------------------
 CID_88943917_JID_475_neutraal
 -----------------------------
 Charge =  0 Multiplicity = 1

 SCF Done:  E(RB3LYP) =  -426.605387393     A.U. after    1 cycles

  Exact polarizability: 113.822  -7.706 111.943   7.220   4.333  73.785
 Approx polarizability: 158.921 -16.520 159.177  13.796  10.248 109.129

                      1                      2                      3
                      A                      A                      A
 Frequencies --     39.5671                47.2942                81.5441
 Red. masses --      4.0367                 6.5569                 2.3436
 Frc consts  --      0.0037                 0.0086                 0.0092
 IR Inten    --      1.4945                 5.0730                 1.0084

                      4                      5                      6
                      A                      A                      A
 Frequencies --     97.3254               114.3202               154.1139
 Red. masses --      2.2051                 2.1263                 2.1228
 Frc consts  --      0.0123                 0.0164                 0.0297
 IR Inten    --      0.4720                 1.6685                 0.3691

                      7                      8                      9
                      A                      A                      A
 Frequencies --    186.7551               212.4661               219.9502
 Red. masses --      1.6852                 1.2669                 1.7799
 Frc consts  --      0.0346                 0.0337                 0.0507
 IR Inten    --      0.5909                 0.5281                 1.4504

                     10                     11                     12
                      A                      A                      A
 Frequencies --    267.0005               296.3022               362.5499
 Red. masses --      2.2483                 2.6210                 3.3822
 Frc consts  --      0.0944                 0.1356                 0.2619
 IR Inten    --      2.6463                 2.8743                 0.5051

                     13                     14                     15
                      A                      A                      A
 Frequencies --    428.9325               443.9768               472.6761
 Red. masses --      2.7001                 2.4974                 3.0207
 Frc consts  --      0.2927                 0.2900                 0.3976
 IR Inten    --      0.3479                 1.3632                14.6381

                     16                     17                     18
                      A                      A                      A
 Frequencies --    599.8475               606.4668               790.7097
 Red. masses --      2.8876                 2.3003                 1.3112
 Frc consts  --      0.6122                 0.4985                 0.4830
 IR Inten    --      7.8776                 2.4177                 4.9905

                     19                     20                     21
                      A                      A                      A
 Frequencies --    822.1505               835.1786               869.7545
 Red. masses --      1.6776                 2.1158                 1.6876
 Frc consts  --      0.6681                 0.8695                 0.7522
 IR Inten    --      0.6108                 0.6833                 0.6911

                     22                     23                     24
                      A                      A                      A
 Frequencies --    893.0948               932.8115               970.1114
 Red. masses --      1.3870                 1.7011                 2.5258
 Frc consts  --      0.6518                 0.8721                 1.4005
 IR Inten    --      8.7915                 8.8369                 7.8900

                     25                     26                     27
                      A                      A                      A
 Frequencies --   1005.7282              1028.7132              1061.5675
 Red. masses --      1.1867                 1.5476                 2.7032
 Frc consts  --      0.7072                 0.9649                 1.7948
 IR Inten    --     17.6153                 6.9571                28.6313

                     28                     29                     30
                      A                      A                      A
 Frequencies --   1075.5966              1078.6701              1102.5080
 Red. masses --      2.7522                 1.5370                 1.6151
 Frc consts  --      1.8760                 1.0536                 1.1567
 IR Inten    --      7.7824                 0.8444                 2.2792

                     31                     32                     33
                      A                      A                      A
 Frequencies --   1118.0213              1146.6644              1196.8289
 Red. masses --      1.9805                 2.3270                 1.7471
 Frc consts  --      1.4585                 1.8027                 1.4744
 IR Inten    --      0.2856                 0.5439                12.8795

                     34                     35                     36
                      A                      A                      A
 Frequencies --   1239.5127              1303.4426              1307.3330
 Red. masses --      1.3960                 1.2529                 1.3964
 Frc consts  --      1.2637                 1.2542                 1.4062
 IR Inten    --      4.0700                 0.1864                 0.9462

                     37                     38                     39
                      A                      A                      A
 Frequencies --   1339.9934              1352.6329              1366.5692
 Red. masses --      1.2919                 1.2751                 1.4330
 Frc consts  --      1.3667                 1.3745                 1.5767
 IR Inten    --      2.5557                 3.8623                 1.3170

                     40                     41                     42
                      A                      A                      A
 Frequencies --   1424.0887              1430.6074              1437.0405
 Red. masses --      1.5108                 1.1854                 1.2388
 Frc consts  --      1.8052                 1.4294                 1.5072
 IR Inten    --      1.1254                 4.9151                 1.3786

                     43                     44                     45
                      A                      A                      A
 Frequencies --   1442.1231              1485.1545              1508.0027
 Red. masses --      1.2621                 1.0963                 1.0454
 Frc consts  --      1.5465                 1.4247                 1.4006
 IR Inten    --      0.6702                 8.3732                 6.7304

                     46                     47                     48
                      A                      A                      A
 Frequencies --   1517.0913              1520.4068              1526.0262
 Red. masses --      1.0686                 1.0588                 1.0425
 Frc consts  --      1.4490                 1.4420                 1.4304
 IR Inten    --      1.1253                 8.1473                 5.2926

                     49                     50                     51
                      A                      A                      A
 Frequencies --   1536.8440              1716.6527              1737.3926
 Red. masses --      1.0741                 7.4109                 5.4783
 Frc consts  --      1.4947                12.8673                 9.7430
 IR Inten    --      3.5400                 2.3157                 9.4959

                     52                     53                     54
                      A                      A                      A
 Frequencies --   1835.9881              2900.8993              3029.6013
 Red. masses --      9.8066                 1.0842                 1.0686
 Frc consts  --     19.4765                 5.3755                 5.7786
 IR Inten    --    189.4158                97.2929                39.3141

                     55                     56                     57
                      A                      A                      A
 Frequencies --   3032.8274              3043.0221              3046.8421
 Red. masses --      1.0379                 1.0591                 1.0347
 Frc consts  --      5.6250                 5.7785                 5.6595
 IR Inten    --     32.1708                16.1471                30.6030

                     58                     59                     60
                      A                      A                      A
 Frequencies --   3078.9145              3096.6810              3099.5777
 Red. masses --      1.0998                 1.0937                 1.1033
 Frc consts  --      6.1427                 6.1792                 6.2450
 IR Inten    --     21.0734                 1.4974                12.3285

                     61                     62                     63
                      A                      A                      A
 Frequencies --   3117.4867              3118.6983              3121.2538
 Red. masses --      1.1004                 1.1030                 1.0996
 Frc consts  --      6.3010                 6.3209                 6.3114
 IR Inten    --     22.7831                47.9473                 8.9030

                     64                     65                     66
                      A                      A                      A
 Frequencies --   3126.4758              3137.1657              3172.8302
 Red. masses --      1.0878                 1.0890                 1.0883
 Frc consts  --      6.2651                 6.3146                 6.4551
 IR Inten    --     32.7581                38.3604                20.6361

 - Thermochemistry -
 -------------------
 Temperature   298.150 Kelvin.  Pressure   1.00000 Atm.
 Atom     1 has atomic number  6 and mass  12.00000

 Molecular mass:   138.10447 amu.
 Principal axes and moments of inertia in atomic units:
                           1         2         3
     Eigenvalues --  1319.457792121.463413032.84152
           X            0.99968  -0.01458   0.02053
           Y            0.01466   0.99989  -0.00385
           Z           -0.02047   0.00415   0.99978
 This molecule is an asymmetric top.
 Rotational symmetry number  1.
 Warning -- assumption of classical behavior for rotation
           may cause significant error
 Rotational temperatures (Kelvin)      0.06564     0.04083     0.02856
 Rotational constants (GHZ):           1.36779     0.85071     0.59507
 Zero-point vibrational energy     548537.9 (Joules/Mol)
                                  131.10371 (Kcal/Mol)
 Warning -- explicit consideration of  17 degrees of freedom as
           vibrations may cause significant error
 Vibrational temperatures:     56.93    68.05   117.32   140.03   164.48
          (Kelvin)            221.74   268.70   305.69   316.46   384.15
                              426.31   521.63   617.14   638.78   680.08
                              863.05   872.57  1137.65  1182.89  1201.64
                             1251.38  1284.96  1342.11  1395.77  1447.02
                             1480.09  1527.36  1547.54  1551.97  1586.26
                             1608.58  1649.79  1721.97  1783.38  1875.36
                             1880.96  1927.95  1946.14  1966.19  2048.95
                             2058.32  2067.58  2074.89  2136.81  2169.68
                             2182.76  2187.53  2195.61  2211.18  2469.88
                             2499.72  2641.58  4173.75  4358.92  4363.56
                             4378.23  4383.73  4429.87  4455.43  4459.60
                             4485.37  4487.11  4490.79  4498.30  4513.68
                             4564.99

 Zero-point correction=                           0.208927 (Hartree/Particle)
 Thermal correction to Energy=                    0.221100
 Thermal correction to Enthalpy=                  0.222044
 Thermal correction to Gibbs Free Energy=         0.169642
 Sum of electronic and zero-point Energies=           -426.396460
 Sum of electronic and thermal Energies=              -426.384287
 Sum of electronic and thermal Enthalpies=            -426.383343
 Sum of electronic and thermal Free Energies=         -426.435746

                     E (Thermal)             CV                S
                      KCal/Mol        Cal/Mol-Kelvin    Cal/Mol-Kelvin
 Total                  138.742             42.425            110.291
 Electronic               0.000              0.000              0.000
 Translational            0.889              2.981             40.680
 Rotational               0.889              2.981             30.519
 Vibrational            136.965             36.463             39.091
 Vibration     1          0.594              1.981              5.281
 Vibration     2          0.595              1.979              4.927
 Vibration     3          0.600              1.962              3.853
 Vibration     4          0.603              1.951              3.507
 Vibration     5          0.607              1.938              3.194
 Vibration     6          0.620              1.898              2.621
 Vibration     7          0.632              1.858              2.260
 Vibration     8          0.644              1.822              2.022
 Vibration     9          0.647              1.811              1.960
 Vibration    10          0.672              1.734              1.616
 Vibration    11          0.690              1.681              1.438
 Vibration    12          0.736              1.549              1.111
 Vibration    13          0.790              1.407              0.862
 Vibration    14          0.803              1.374              0.814
 Vibration    15          0.830              1.311              0.730
 Vibration    16          0.958              1.032              0.450
 Vibration    17          0.965              1.018              0.439

                           ! Non-Optimized Parameters !

 1\1\GINC-NODE315\Freq\RB3LYP\6-31G(d)\C9H14O1\VSC10255\08-Dec-2020\0\\
 #N Geom=AllCheck Guess=TCheck SCRF=Check GenChk RB3LYP/6-31G(d) Freq\\
 CID_88943917_JID_475_neutraal\\0,1\C,0.9228979726,0.1162438113,-0.0629
 438393\C,0.7885865742,1.0118144197,1.1811302598\C,0.9628358145,2.46984
 03909,0.8682016464\C,0.0187845306,3.4292420066,0.8488517853\C,0.394185
 324,4.870319221,0.5496769909\C,-0.1958602151,5.3118396013,-0.779251776
 2\O,-0.9233570603,6.2664759523,-0.9305879125\C,-1.4211598833,3.2256928
 222,1.0942595576\C,-2.1838752275,2.2368649397,0.6073896115\C,-3.652576

 Normal termination of Gaussian 16 at Tue Dec  8 10:44:38 2020.

 ----------------------------------------------------------------------
 # B3LYP/6-311++G(d,p) empiricaldispersion=gd3bj scf=xqc pop=npa geom=c
 heck
 ----------------------------------------------------------------------

 -------------------------------------
 CID_88943917_JID_475_Energie_neutraal
 -------------------------------------
 Structure from the checkpoint file:  "JID_475.chk"
 Charge =  0 Multiplicity = 1

 SCF Done:  E(RB3LYP) =  -426.729669434     A.U. after   14 cycles
 Normal termination of Gaussian 16 at Tue Dec  8 10:46:36 2020.

 ----------------------------------------------------------------------
 # B3LYP/6-311++G(d,p) empiricaldispersion=gd3bj scf=xqc pop=npa geom=c
 heck
 ----------------------------------------------------------------------

 -----------------------------------
 CID_88943917_JID_475_Energie_kation
 -----------------------------------
 Structure from the checkpoint file:  "JID_475.chk"
 Charge =  1 Multiplicity = 2

 SCF Done:  E(UB3LYP) =  -426.426799184     A.U. after   21 cycles
 Normal termination of Gaussian 16 at Tue Dec  8 10:51:39 2020.
 Gaussian 16:  ES64L-G16RevA.03 25-Dec-2016

 ----------------------------------
 CID_88943917_JID_475_Energie_anion
 ----------------------------------
 Structure from the checkpoint file:  "JID_475.chk"
 Charge = -1 Multiplicity = 2

                         Standard orientation:
 ---------------------------------------------------------------------
 Center     Atomic      Atomic             Coordinates (Angstroms)
 Number     Number       Type             X           Y           Z
 ---------------------------------------------------------------------
      1          6           0        2.933138   -1.137777    0.956734
      2          6           0        2.298876   -0.965156   -0.434568
      3          6           0        0.850529   -1.359474   -0.465108
      4          6           0       -0.223071   -0.553847   -0.567117
      5          6           0       -1.622125   -1.142316   -0.626187
      6          6           0       -2.407366   -0.781346    0.623709
      7          8           0       -3.470735   -0.204558    0.630637
      8          6           0       -0.191774    0.919465   -0.626011
      9          6           0        0.552165    1.735011    0.134251
     10          6           0        0.529190    3.231617    0.050922
     11          1           0        2.444584   -0.491873    1.694704
     12          1           0        3.999659   -0.887226    0.935132
     13          1           0        2.836704   -2.171051    1.309843
     14          1           0        2.414802    0.070556   -0.768511
     15          1           0        2.848061   -1.596900   -1.147079
     16          1           0        0.663918   -2.433239   -0.412194
     17          1           0       -2.182805   -0.773397   -1.493034
     18          1           0       -1.566747   -2.237504   -0.687011
     19          1           0       -1.910481   -1.084597    1.573331
     20          1           0       -0.899219    1.372635   -1.323891
     21          1           0        1.210236    1.303910    0.887096
     22          1           0        0.237615    3.677275    1.011273
     23          1           0        1.523910    3.630358   -0.190162
     24          1           0       -0.171723    3.580451   -0.714335
 ---------------------------------------------------------------------

 SCF Done:  E(UB3LYP) =  -426.720863628     A.U. after   32 cycles

 The electronic state is 2-A.
 Alpha  occ. eigenvalues --  -18.97664 -10.10938 -10.05664 -10.04999 -10.04511
 Alpha  occ. eigenvalues --  -10.04461 -10.04222 -10.04142 -10.03767 -10.03097
 Alpha  occ. eigenvalues --   -0.90947  -0.70353  -0.65945  -0.64335  -0.58200
 Alpha  occ. eigenvalues --   -0.55921  -0.49483  -0.45549  -0.43913  -0.40118
 Alpha  occ. eigenvalues --   -0.35107  -0.34417  -0.31783  -0.31266  -0.30814
 Alpha  occ. eigenvalues --   -0.30248  -0.29277  -0.28444  -0.27325  -0.25666
 Alpha  occ. eigenvalues --   -0.25079  -0.23452  -0.22946  -0.21752  -0.20079
 Alpha  occ. eigenvalues --   -0.16109  -0.12440  -0.10012   0.05245
 Alpha virt. eigenvalues --    0.07550   0.08189   0.09383   0.09851   0.10312
 Alpha virt. eigenvalues --    0.10966   0.11187   0.11544   0.12087   0.12659
 Alpha virt. eigenvalues --    0.13514   0.14126   0.14865   0.15265   0.15993

  Beta  occ. eigenvalues --  -18.97419 -10.10723 -10.05672 -10.05024 -10.04522
  Beta  occ. eigenvalues --  -10.04354 -10.04214 -10.03975 -10.03696 -10.02938
  Beta  occ. eigenvalues --   -0.90482  -0.70098  -0.65722  -0.64161  -0.58042
  Beta  occ. eigenvalues --   -0.55738  -0.49281  -0.45259  -0.43472  -0.39935
  Beta  occ. eigenvalues --   -0.34940  -0.34251  -0.31575  -0.31113  -0.30574
  Beta  occ. eigenvalues --   -0.30064  -0.29106  -0.28265  -0.27141  -0.25264
  Beta  occ. eigenvalues --   -0.24889  -0.23073  -0.22589  -0.21584  -0.19906
  Beta  occ. eigenvalues --   -0.15506  -0.12164  -0.09224
  Beta virt. eigenvalues --    0.07854   0.08571   0.09061   0.10004   0.10282
  Beta virt. eigenvalues --    0.11056   0.11336   0.11592   0.11655   0.12169
  Beta virt. eigenvalues --    0.13125   0.13596   0.14343   0.14886   0.15405

 Mulliken charges and spin densities:
               1          2
     1  C    1.314760  -1.906779
     2  C   -1.296757   1.106120
     3  C   -0.003789   0.000754
     4  C    1.138907  -0.434190
     5  C   -0.326834  -0.011313
     6  C   -0.254113   0.170675
     7  O   -0.303987   0.076157
     8  C   -0.571771   0.239665
     9  C   -0.182103   0.168638
    10  C   -0.238367  -0.465588
    11  H   -0.177108   0.299412
    12  H   -0.722049   0.855073
    13  H   -0.247001   0.374750
    14  H    0.086912   0.064498
    15  H   -0.043636   0.172449
    16  H    0.112848   0.013054
    17  H    0.120012   0.022497
    18  H    0.100948   0.027568
    19  H    0.033606   0.019522
    20  H    0.152657   0.006517
    21  H    0.182075  -0.074102
    22  H    0.098880   0.032772
    23  H   -0.101939   0.244956
    24  H    0.127847  -0.003104
 Sum of Mulliken charges =  -1.00000   1.00000

 Dipole moment (field-independent basis, Debye):
    X=             -2.7871    Y=              0.7946    Z=             -2.6078  Tot=              3.8987
 Quadrupole moment (field-independent basis, Debye-Ang):
   XX=           -133.7038   YY=            -86.6348   ZZ=            -81.1788
   XY=              5.0219   XZ=             -3.3225   YZ=              2.8792

 Summary of Natural Population Analysis:

                                       Natural Population
                Natural  -----------------------------------------------
    Atom  No    Charge         Core      Valence    Rydberg      Total
 -----------------------------------------------------------------------
      C    1   -0.27734      0.99966     2.27273    0.00495     3.27734
      C    2   -0.21185      0.99963     2.20221    0.01001     3.21185
      C    3   -0.05668      0.99947     2.04724    0.00997     3.05668
      C    4   -0.01816      0.99946     2.00763    0.01107     3.01816
      C    5   -0.24018      0.99959     2.23249    0.00811     3.24018
      C    6    0.25386      0.99974     1.72322    0.02318     2.74614
      O    7   -0.26690      0.99988     3.26005    0.00698     4.26690
      C    8   -0.11815      0.99949     2.10847    0.01018     3.11815
      C    9   -0.04959      0.99953     2.04192    0.00814     3.04959
      C   10   -0.30070      0.99966     2.29552    0.00552     3.30070
      H   11    0.09460      0.00000     0.40389    0.00151     0.40540
      H   12    0.09794      0.00000     0.39841    0.00364     0.40206
      H   13    0.09381      0.00000     0.40481    0.00138     0.40619
      H   14    0.10196      0.00000     0.39665    0.00139     0.39804
      H   15    0.09392      0.00000     0.40503    0.00104     0.40608
      H   16    0.08495      0.00000     0.41400    0.00104     0.41505
      H   17    0.10067      0.00000     0.39783    0.00150     0.39933
      H   18    0.10605      0.00000     0.39306    0.00089     0.39395
      H   19    0.03754      0.00000     0.45994    0.00252     0.46246
      H   20    0.09010      0.00000     0.40874    0.00116     0.40990
      H   21    0.08874      0.00000     0.40935    0.00190     0.41126
      H   22    0.09844      0.00000     0.40071    0.00085     0.40156
      H   23    0.10122      0.00000     0.39748    0.00130     0.39878
      H   24    0.09574      0.00000     0.40348    0.00078     0.40426
 =======================================================================
   * Total *   -0.00000      9.99610    27.88488    0.11903    38.00000

 Normal termination of Gaussian 16 at Tue Dec  8 10:58:47 2020.
