 Gaussian 16, Revision A.03,

 -----------------------------------------------------------
 # opt freq B3LYP/6-31G(d) empiricaldispersion=gd3bj scf=xqc
 -----------------------------------------------------------

 -------------------------------
 CID_154700593_JID_2665_neutraal
 -------------------------------
 Symbolic Z-matrix:
 Charge =  0 Multiplicity = 1

 SCF Done:  E(RB3LYP) =  -552.196623335     A.U. after   15 cycles
 SCF Done:  E(RB3LYP) =  -552.205931018     A.U. after   12 cycles
 SCF Done:  E(RB3LYP) =  -552.206550477     A.U. after   11 cycles
 SCF Done:  E(RB3LYP) =  -552.206603807     A.U. after   10 cycles
 SCF Done:  E(RB3LYP) =  -552.206623665     A.U. after   10 cycles
 SCF Done:  E(RB3LYP) =  -552.206676603     A.U. after   11 cycles
 SCF Done:  E(RB3LYP) =  -552.206748812     A.U. after   12 cycles
 SCF Done:  E(RB3LYP) =  -552.206975011     A.U. after   12 cycles
 SCF Done:  E(RB3LYP) =  -552.167576797     A.U. after   14 cycles
 SCF Done:  E(RB3LYP) =  -552.208402550     A.U. after   13 cycles
 SCF Done:  E(RB3LYP) =  -552.210025393     A.U. after    7 cycles
 SCF Done:  E(RB3LYP) =  -552.210025614     A.U. after    8 cycles
 SCF Done:  E(RB3LYP) =  -552.210025808     A.U. after    7 cycles
 SCF Done:  E(RB3LYP) =  -552.210025950     A.U. after    7 cycles
 SCF Done:  E(RB3LYP) =  -552.210026044     A.U. after    7 cycles
 Optimization completed.
    -- Stationary point found.
 Normal termination of Gaussian 16 at Wed Dec  9 17:59:28 2020.

 --------------------------------------------------------------------
 #N Geom=AllCheck Guess=TCheck SCRF=Check GenChk RB3LYP/6-31G(d) Freq
 --------------------------------------------------------------------

 Structure from the checkpoint file:  "JID_2665.chk"
 -------------------------------
 CID_154700593_JID_2665_neutraal
 -------------------------------
 Charge =  0 Multiplicity = 1

 SCF Done:  E(RB3LYP) =  -552.210026044     A.U. after    1 cycles

  Exact polarizability: 190.604  -1.434 107.535  -0.001   0.000  62.340
 Approx polarizability: 273.357  -9.368 165.035  -0.003   0.002  92.516

                      1                      2                      3
                      A                      A                      A
 Frequencies --     59.2601                73.6690                91.3489
 Red. masses --      1.8823                 2.5734                 2.5321
 Frc consts  --      0.0039                 0.0082                 0.0124
 IR Inten    --      4.6533                 0.1805                 3.0669

                      4                      5                      6
                      A                      A                      A
 Frequencies --    127.2773               128.6069               152.6712
 Red. masses --      1.1489                 4.0089                 1.5585
 Frc consts  --      0.0110                 0.0391                 0.0214
 IR Inten    --      0.3952                 1.6999                 0.0841

                      7                      8                      9
                      A                      A                      A
 Frequencies --    164.7072               174.3902               201.9251
 Red. masses --      1.0164                 1.5597                 3.6753
 Frc consts  --      0.0162                 0.0279                 0.0883
 IR Inten    --      0.0346                 0.1328                 0.0307

                     10                     11                     12
                      A                      A                      A
 Frequencies --    249.6906               261.6886               289.9171
 Red. masses --      2.0553                 2.6216                 4.3060
 Frc consts  --      0.0755                 0.1058                 0.2132
 IR Inten    --      0.1334                 1.2460                 5.8885

                     13                     14                     15
                      A                      A                      A
 Frequencies --    317.0120               330.0935               373.9252
 Red. masses --      3.6253                 3.7345                 3.4870
 Frc consts  --      0.2147                 0.2397                 0.2873
 IR Inten    --      3.3871                13.6636                 1.4108

                     16                     17                     18
                      A                      A                      A
 Frequencies --    462.5507               498.5936               582.9915
 Red. masses --      2.8743                 3.9846                 4.8193
 Frc consts  --      0.3623                 0.5836                 0.9651
 IR Inten    --      1.8630                 1.2840                28.5521

                     19                     20                     21
                      A                      A                      A
 Frequencies --    619.6799               669.6537               745.0174
 Red. masses --      4.4817                 6.2829                 6.4205
 Frc consts  --      1.0140                 1.6600                 2.0997
 IR Inten    --     10.9441                 5.4437                 9.9137

                     22                     23                     24
                      A                      A                      A
 Frequencies --    757.9938               799.4974               874.3298
 Red. masses --      9.5884                 5.3728                 4.6513
 Frc consts  --      3.2458                 2.0234                 2.0949
 IR Inten    --      9.0309                 4.5083                 1.4056

                     25                     26                     27
                      A                      A                      A
 Frequencies --    950.3764               955.8848              1019.2638
 Red. masses --      2.9042                 1.3350                 2.8345
 Frc consts  --      1.5455                 0.7187                 1.7350
 IR Inten    --     26.9605                 2.9511                91.1890

                     28                     29                     30
                      A                      A                      A
 Frequencies --   1052.7984              1072.7796              1106.3178
 Red. masses --      1.9971                 1.5087                 1.5024
 Frc consts  --      1.3042                 1.0230                 1.0834
 IR Inten    --     38.9094                 3.3306                21.6387

                     31                     32                     33
                      A                      A                      A
 Frequencies --   1142.0927              1158.5318              1164.1906
 Red. masses --      1.2160                 1.8905                 1.2877
 Frc consts  --      0.9345                 1.4950                 1.0283
 IR Inten    --      0.1439               178.3885                 0.4752

                     34                     35                     36
                      A                      A                      A
 Frequencies --   1187.9387              1191.8462              1213.7285
 Red. masses --      1.3582                 2.9767                 2.4123
 Frc consts  --      1.1293                 2.4913                 2.0937
 IR Inten    --      2.4882                11.7408                25.1304

                     37                     38                     39
                      A                      A                      A
 Frequencies --   1293.8160              1329.0586              1416.3748
 Red. masses --      4.3278                 4.9106                 1.8046
 Frc consts  --      4.2684                 5.1106                 2.1330
 IR Inten    --     22.8410                55.9049                31.5034

                     40                     41                     42
                      A                      A                      A
 Frequencies --   1423.9866              1446.3708              1470.8612
 Red. masses --      1.5175                 1.5494                 2.4870
 Frc consts  --      1.8130                 1.9097                 3.1700
 IR Inten    --     63.1889                67.9135               145.3909

                     43                     44                     45
                      A                      A                      A
 Frequencies --   1481.3842              1485.1613              1498.5402
 Red. masses --      1.1579                 1.5721                 1.2578
 Frc consts  --      1.4971                 2.0431                 1.6642
 IR Inten    --      7.0666               101.9263                26.3106

                     46                     47                     48
                      A                      A                      A
 Frequencies --   1505.0397              1505.7987              1511.0764
 Red. masses --      1.0422                 1.0442                 1.2447
 Frc consts  --      1.3909                 1.3950                 1.6745
 IR Inten    --      6.8335                 2.3914                 0.5563

                     49                     50                     51
                      A                      A                      A
 Frequencies --   1528.4978              1531.8345              1535.4718
 Red. masses --      1.0442                 1.0550                 1.0438
 Frc consts  --      1.4373                 1.4586                 1.4500
 IR Inten    --     11.8016                15.6495                12.4900

                     52                     53                     54
                      A                      A                      A
 Frequencies --   1535.7972              1564.8564              1640.3651
 Red. masses --      1.0581                 1.2968                 5.8067
 Frc consts  --      1.4704                 1.8710                 9.2058
 IR Inten    --     26.5375                 0.7146                11.2229

                     55                     56                     57
                      A                      A                      A
 Frequencies --   1722.5858              1794.1763              3022.5446
 Red. masses --      6.7130                10.8083                 1.0371
 Frc consts  --     11.7362                20.4993                 5.5824
 IR Inten    --   1005.2385               236.7871                24.3235

                     58                     59                     60
                      A                      A                      A
 Frequencies --   3029.3422              3043.0161              3047.5950
 Red. masses --      1.0379                 1.0390                 1.0352
 Frc consts  --      5.6120                 5.6686                 5.6647
 IR Inten    --    219.2073                 5.2485                87.6187

                     61                     62                     63
                      A                      A                      A
 Frequencies --   3070.3170              3074.0837              3091.6545
 Red. masses --      1.1043                 1.1048                 1.1005
 Frc consts  --      6.1336                 6.1511                 6.1976
 IR Inten    --     68.0189                 5.3847                11.5363

                     64                     65                     66
                      A                      A                      A
 Frequencies --   3102.6045              3155.2121              3155.3320
 Red. masses --      1.1059                 1.0989                 1.1004
 Frc consts  --      6.2725                 6.4459                 6.4548
 IR Inten    --     34.0048                13.3204                 0.0738

                     67                     68                     69
                      A                      A                      A
 Frequencies --   3163.9306              3181.8908              3195.5686
 Red. masses --      1.0984                 1.1003                 1.0887
 Frc consts  --      6.4784                 6.5633                 6.5501
 IR Inten    --      7.3421                15.6044                 1.5836

 - Thermochemistry -
 -------------------
 Temperature   298.150 Kelvin.  Pressure   1.00000 Atm.
 Atom     1 has atomic number  6 and mass  12.00000

 Molecular mass:   167.10586 amu.
 Principal axes and moments of inertia in atomic units:
                           1         2         3
     Eigenvalues --  1017.234793166.898544138.69755
           X            0.99995   0.00981   0.00000
           Y           -0.00981   0.99995  -0.00001
           Z           -0.00000   0.00001   1.00000
 This molecule is an asymmetric top.
 Rotational symmetry number  1.
 Warning -- assumption of classical behavior for rotation
           may cause significant error
 Rotational temperatures (Kelvin)      0.08515     0.02735     0.02093
 Rotational constants (GHZ):           1.77416     0.56988     0.43607
 Zero-point vibrational energy     554926.0 (Joules/Mol)
                                  132.63050 (Kcal/Mol)
 Warning -- explicit consideration of  19 degrees of freedom as
           vibrations may cause significant error
 Vibrational temperatures:     85.26   105.99   131.43   183.12   185.04
          (Kelvin)            219.66   236.98   250.91   290.53   359.25
                              376.51   417.13   456.11   474.93   537.99
                              665.51   717.36   838.79   891.58   963.48
                             1071.91  1090.58  1150.30  1257.97  1367.38
                             1375.31  1466.49  1514.74  1543.49  1591.74
                             1643.22  1666.87  1675.01  1709.18  1714.80
                             1746.28  1861.51  1912.22  2037.85  2048.80
                             2081.00  2116.24  2131.38  2136.82  2156.07
                             2165.42  2166.51  2174.10  2199.17  2203.97
                             2209.20  2209.67  2251.48  2360.12  2478.42
                             2581.42  4348.77  4358.55  4378.22  4384.81
                             4417.50  4422.92  4448.20  4463.96  4539.65
                             4539.82  4552.19  4578.03  4597.71

 Zero-point correction=                           0.211360 (Hartree/Particle)
 Thermal correction to Energy=                    0.224504
 Thermal correction to Enthalpy=                  0.225448
 Thermal correction to Gibbs Free Energy=         0.171736
 Sum of electronic and zero-point Energies=           -551.998666
 Sum of electronic and thermal Energies=              -551.985522
 Sum of electronic and thermal Enthalpies=            -551.984578
 Sum of electronic and thermal Free Energies=         -552.038290

                     E (Thermal)             CV                S
                      KCal/Mol        Cal/Mol-Kelvin    Cal/Mol-Kelvin
 Total                  140.878             46.366            113.045
 Electronic               0.000              0.000              0.000
 Translational            0.889              2.981             41.249
 Rotational               0.889              2.981             30.967
 Vibrational            139.101             40.404             40.829
 Vibration     1          0.597              1.974              4.482
 Vibration     2          0.599              1.966              4.053
 Vibration     3          0.602              1.955              3.631
 Vibration     4          0.611              1.926              2.987
 Vibration     5          0.611              1.925              2.967
 Vibration     6          0.619              1.900              2.639
 Vibration     7          0.623              1.886              2.495
 Vibration     8          0.627              1.874              2.388
 Vibration     9          0.639              1.837              2.115
 Vibration    10          0.662              1.763              1.733
 Vibration    11          0.669              1.743              1.650
 Vibration    12          0.686              1.692              1.474
 Vibration    13          0.704              1.641              1.325
 Vibration    14          0.713              1.615              1.260
 Vibration    15          0.745              1.526              1.064
 Vibration    16          0.820              1.333              0.759
 Vibration    17          0.854              1.253              0.662
 Vibration    18          0.940              1.068              0.480
 Vibration    19          0.980              0.990              0.417

 Optimization completed.
    -- Stationary point found.
 Normal termination of Gaussian 16 at Wed Dec  9 18:04:29 2020.

 ----------------------------------------------------------------------
 # B3LYP/6-311++G(d,p) empiricaldispersion=gd3bj scf=xqc pop=npa geom=c
 heck
 ----------------------------------------------------------------------

 ---------------------------------------
 CID_154700593_JID_2665_Energie_neutraal
 ---------------------------------------
 Structure from the checkpoint file:  "JID_2665.chk"
 Charge =  0 Multiplicity = 1

 SCF Done:  E(RB3LYP) =  -552.362877653     A.U. after   14 cycles
 Normal termination of Gaussian 16 at Wed Dec  9 18:06:34 2020.

 ----------------------------------------------------------------------
 # B3LYP/6-311++G(d,p) empiricaldispersion=gd3bj scf=xqc pop=npa geom=c
 heck
 ----------------------------------------------------------------------

 -------------------------------------
 CID_154700593_JID_2665_Energie_kation
 -------------------------------------
 Structure from the checkpoint file:  "JID_2665.chk"
 Charge =  1 Multiplicity = 2

 SCF Done:  E(UB3LYP) =  -552.106798233     A.U. after   21 cycles
 Normal termination of Gaussian 16 at Wed Dec  9 18:11:53 2020.
 Gaussian 16:  ES64L-G16RevA.03 25-Dec-2016

 ----------------------------------------------------------------------
 # B3LYP/6-311++G(d,p) empiricaldispersion=gd3bj scf=xqc pop=npa geom=c
 heck
 ----------------------------------------------------------------------

 ------------------------------------
 CID_154700593_JID_2665_Energie_anion
 ------------------------------------
 Structure from the checkpoint file:  "JID_2665.chk"
 Charge = -1 Multiplicity = 2

                         Standard orientation:
 ---------------------------------------------------------------------
 Center     Atomic      Atomic             Coordinates (Angstroms)
 Number     Number       Type             X           Y           Z
 ---------------------------------------------------------------------
      1          6           0        2.529077    2.135352    0.000158
      2          6           0        1.569632    0.994583    0.000049
      3          7           0        0.272888    1.112494    0.000004
      4          6           0       -0.232067   -0.200804   -0.000099
      5          6           0       -1.531412   -0.630521   -0.000002
      6          7           0       -2.686239    0.064556    0.000033
      7          6           0       -3.965952   -0.619694    0.000353
      8          6           0       -2.749004    1.519275   -0.000345
      9          6           0        0.871392   -1.166304   -0.000125
     10          8           0        0.900237   -2.394040   -0.000186
     11          7           0        2.004519   -0.325198   -0.000037
     12          6           0        3.360534   -0.824307    0.000095
     13          1           0        3.179848    2.112620    0.883476
     14          1           0        3.179674    2.112925   -0.883298
     15          1           0        1.965763    3.070202    0.000368
     16          1           0       -1.649321   -1.711438    0.000040
     17          1           0       -4.550685   -0.346463    0.889213
     18          1           0       -4.551019   -0.346684   -0.888356
     19          1           0       -3.813463   -1.700644    0.000466
     20          1           0       -3.290595    1.869160    0.888821
     21          1           0       -1.739357    1.928066   -0.000417
     22          1           0       -3.290572    1.868678   -0.889715
     23          1           0        3.289480   -1.914542    0.000071
     24          1           0        3.908579   -0.498996   -0.891486
     25          1           0        3.908396   -0.499010    0.891793
 ---------------------------------------------------------------------

 SCF Done:  E(UB3LYP) =  -552.350958639     A.U. after   33 cycles
 SCF Done:  E(UB3LYP) =  -552.350958639     a.u. after    1 cycles

 The electronic state is 2-A.
 Alpha  occ. eigenvalues --  -18.98207 -14.26407 -14.25275 -14.19383 -10.16013
 Alpha  occ. eigenvalues --  -10.14116 -10.12722 -10.11040 -10.10935 -10.09768
 Alpha  occ. eigenvalues --  -10.08431 -10.08186  -0.93877  -0.88586  -0.87152
 Alpha  occ. eigenvalues --   -0.78608  -0.68542  -0.64964  -0.63457  -0.62061
 Alpha  occ. eigenvalues --   -0.57826  -0.51526  -0.46546  -0.45951  -0.41881
 Alpha  occ. eigenvalues --   -0.40041  -0.38419  -0.37813  -0.36232  -0.33923
 Alpha  occ. eigenvalues --   -0.32790  -0.32593  -0.31360  -0.30995  -0.30835
 Alpha  occ. eigenvalues --   -0.30530  -0.29798  -0.29428  -0.28497  -0.24110
 Alpha  occ. eigenvalues --   -0.22555  -0.19730  -0.16079  -0.14795  -0.09352
 Alpha  occ. eigenvalues --    0.04082
 Alpha virt. eigenvalues --    0.05366   0.05825   0.07756   0.08427   0.08693
 Alpha virt. eigenvalues --    0.09258   0.09677   0.10933   0.11642   0.11720
 Alpha virt. eigenvalues --    0.12081   0.12338   0.12998   0.14149   0.14750

  Beta  occ. eigenvalues --  -18.98205 -14.26406 -14.25273 -14.19371 -10.16013
  Beta  occ. eigenvalues --  -10.14115 -10.12712 -10.11007 -10.10872 -10.09735
  Beta  occ. eigenvalues --  -10.08431 -10.08146  -0.93872  -0.88580  -0.87138
  Beta  occ. eigenvalues --   -0.78597  -0.68517  -0.64918  -0.63393  -0.62015
  Beta  occ. eigenvalues --   -0.57769  -0.51490  -0.46500  -0.45921  -0.41844
  Beta  occ. eigenvalues --   -0.39979  -0.38389  -0.37778  -0.36212  -0.33887
  Beta  occ. eigenvalues --   -0.32754  -0.32566  -0.31315  -0.30950  -0.30791
  Beta  occ. eigenvalues --   -0.30503  -0.29755  -0.29402  -0.28467  -0.24098
  Beta  occ. eigenvalues --   -0.22532  -0.19696  -0.16064  -0.14780  -0.09338
  Beta virt. eigenvalues --    0.05893   0.06314   0.06842   0.08227   0.09013
  Beta virt. eigenvalues --    0.09589   0.10179   0.10314   0.11157   0.12030
  Beta virt. eigenvalues --    0.12043   0.12303   0.12916   0.13242   0.14254

 Mulliken charges and spin densities:
               1          2
     1  C    1.490556  -1.965713
     2  C   -1.202954   1.057452
     3  N   -0.154201   0.048064
     4  C    0.454182  -0.323502
     5  C    0.301565  -0.239944
     6  N   -0.274147   0.322390
     7  C    1.436036  -1.698638
     8  C    0.521808  -0.879777
     9  C   -1.222746   0.962205
    10  O   -0.398989  -0.010000
    11  N   -0.224575   0.118189
    12  C    0.631772  -0.933939
    13  H   -0.243229   0.404917
    14  H   -0.243158   0.404877
    15  H   -0.115529   0.281713
    16  H    0.137947   0.084361
    17  H   -0.528270   0.689238
    18  H   -0.528298   0.689232
    19  H   -0.350956   0.469688
    20  H   -0.234874   0.379114
    21  H    0.273333  -0.045334
    22  H   -0.234824   0.379088
    23  H    0.078085   0.111104
    24  H   -0.184288   0.347626
    25  H   -0.184246   0.347590
 Sum of Mulliken charges =  -1.00000   1.00000

 Dipole moment (field-independent basis, Debye):
    X=              3.3238    Y=             -0.1617    Z=             -0.0007  Tot=              3.3277
 Quadrupole moment (field-independent basis, Debye-Ang):
   XX=           -166.7215   YY=           -113.9478   ZZ=           -100.4663
   XY=             -3.3981   XZ=              0.0026   YZ=             -0.0016

 Summary of Natural Population Analysis:

                                       Natural Population
                Natural  -----------------------------------------------
    Atom  No    Charge         Core      Valence    Rydberg      Total
 -----------------------------------------------------------------------
      C    1   -0.30910      0.99963     2.30427    0.00520     3.30910
      C    2    0.22371      0.99961     1.76068    0.01600     2.77629
      N    3   -0.27215      0.99966     2.76196    0.01052     3.77215
      C    4   -0.04271      0.99947     2.03085    0.01238     3.04271
      C    5    0.06632      0.99949     1.92268    0.01151     2.93368
      N    6   -0.21384      0.99968     2.70443    0.00973     3.71384
      C    7   -0.17003      0.99964     2.16268    0.00772     3.17003
      C    8   -0.18387      0.99963     2.17612    0.00812     3.18387
      C    9    0.31881      0.99959     1.65946    0.02214     2.68119
      O   10   -0.33629      0.99988     3.33076    0.00566     4.33629
      N   11   -0.25132      0.99960     2.74214    0.00957     3.75132
      C   12   -0.18107      0.99964     2.17320    0.00823     3.18107
      H   13    0.10822      0.00000     0.39008    0.00170     0.39178
      H   14    0.10822      0.00000     0.39008    0.00170     0.39178
      H   15    0.11411      0.00000     0.38479    0.00110     0.38589
      H   16    0.10666      0.00000     0.39188    0.00146     0.39334
      H   17    0.09816      0.00000     0.39877    0.00307     0.40184
      H   18    0.09816      0.00000     0.39877    0.00307     0.40184
      H   19    0.09997      0.00000     0.39876    0.00127     0.40003
      H   20    0.09427      0.00000     0.40428    0.00145     0.40573
      H   21    0.12275      0.00000     0.37481    0.00244     0.37725
      H   22    0.09427      0.00000     0.40429    0.00145     0.40573
      H   23    0.11333      0.00000     0.38547    0.00119     0.38667
      H   24    0.09670      0.00000     0.40199    0.00131     0.40330
      H   25    0.09670      0.00000     0.40199    0.00131     0.40330
 =======================================================================
   * Total *   -0.00000     11.99552    32.85518    0.14929    45.00000

 Normal termination of Gaussian 16 at Wed Dec  9 18:19:54 2020.
