 Gaussian 16, Revision A.03,

 -----------------------------------------------------------
 # opt freq B3LYP/6-31G(d) empiricaldispersion=gd3bj scf=xqc
 -----------------------------------------------------------

 -------------------------------
 CID_104539572_JID_8681_neutraal
 -------------------------------
 Symbolic Z-matrix:
 Charge =  0 Multiplicity = 1

 SCF Done:  E(RB3LYP) =  -1205.33499653     A.U. after   15 cycles
 SCF Done:  E(RB3LYP) =  -1205.34084294     A.U. after   13 cycles
 SCF Done:  E(RB3LYP) =  -1205.32556550     A.U. after   15 cycles
 SCF Done:  E(RB3LYP) =  -1205.33567477     A.U. after   13 cycles
 SCF Done:  E(RB3LYP) =  -1205.34400013     A.U. after   11 cycles
 SCF Done:  E(RB3LYP) =  -1205.34506633     A.U. after   13 cycles
 SCF Done:  E(RB3LYP) =  -1205.34589873     A.U. after   13 cycles
 SCF Done:  E(RB3LYP) =  -1205.34638905     A.U. after   12 cycles
 SCF Done:  E(RB3LYP) =  -1205.34676817     A.U. after   11 cycles
 SCF Done:  E(RB3LYP) =  -1205.34723157     A.U. after   13 cycles
 SCF Done:  E(RB3LYP) =  -1205.34848457     A.U. after   11 cycles
 SCF Done:  E(RB3LYP) =  -1205.34848725     A.U. after   10 cycles
 SCF Done:  E(RB3LYP) =  -1205.34848877     A.U. after    8 cycles
 SCF Done:  E(RB3LYP) =  -1205.34848887     A.U. after    8 cycles
 SCF Done:  E(RB3LYP) =  -1205.34848895     A.U. after    8 cycles
 Optimization completed.
    -- Stationary point found.
 Normal termination of Gaussian 16 at Fri Dec 11 21:47:50 2020.

 --------------------------------------------------------------------
 #N Geom=AllCheck Guess=TCheck SCRF=Check GenChk RB3LYP/6-31G(d) Freq
 --------------------------------------------------------------------

 Structure from the checkpoint file:  "JID_8681.chk"
 -------------------------------
 CID_104539572_JID_8681_neutraal
 -------------------------------
 Charge =  0 Multiplicity = 1

 SCF Done:  E(RB3LYP) =  -1205.34848895     A.U. after    1 cycles

  Exact polarizability: 166.812  -9.362 164.273  19.656  12.495 141.519
 Approx polarizability: 248.114 -28.649 271.606  46.793  32.884 237.190

                      1                      2                      3
                      A                      A                      A
 Frequencies --     27.4048                49.9020                75.3306
 Red. masses --      3.8883                 4.2810                 5.1721
 Frc consts  --      0.0017                 0.0063                 0.0173
 IR Inten    --      1.4032                 0.8805                 0.0622

                      4                      5                      6
                      A                      A                      A
 Frequencies --     87.5110               106.5238               119.1932
 Red. masses --      3.0898                 2.6922                 4.0487
 Frc consts  --      0.0139                 0.0180                 0.0339
 IR Inten    --      0.3969                 0.1158                 1.1356

                      7                      8                      9
                      A                      A                      A
 Frequencies --    135.4444               144.8311               158.1673
 Red. masses --      1.8823                 2.7023                 2.5544
 Frc consts  --      0.0203                 0.0334                 0.0377
 IR Inten    --      1.7151                 1.7411                 0.1328

                     10                     11                     12
                      A                      A                      A
 Frequencies --    173.3605               198.4744               209.1102
 Red. masses --      4.4962                 1.3298                 1.6360
 Frc consts  --      0.0796                 0.0309                 0.0421
 IR Inten    --      1.5012                 0.4248                 0.9224

                     13                     14                     15
                      A                      A                      A
 Frequencies --    229.4087               237.4797               244.7179
 Red. masses --      3.1390                 3.9320                 2.6029
 Frc consts  --      0.0973                 0.1307                 0.0918
 IR Inten    --      0.7605                 0.5809                 2.6376

                     16                     17                     18
                      A                      A                      A
 Frequencies --    285.6647               300.4038               311.3854
 Red. masses --      3.8341                 5.7068                 4.5013
 Frc consts  --      0.1843                 0.3034                 0.2571
 IR Inten    --      1.0048                 1.9163                 0.7684

                     19                     20                     21
                      A                      A                      A
 Frequencies --    322.0008               348.0278               374.8007
 Red. masses --      3.1748                 3.4375                 2.5755
 Frc consts  --      0.1939                 0.2453                 0.2132
 IR Inten    --      0.9254                 1.1829                 9.9748

                     22                     23                     24
                      A                      A                      A
 Frequencies --    432.5307               461.3875               480.1985
 Red. masses --      3.3829                 2.4926                 2.8240
 Frc consts  --      0.3729                 0.3126                 0.3837
 IR Inten    --     15.2209                 0.7416                26.7220

                     25                     26                     27
                      A                      A                      A
 Frequencies --    499.0469               517.9846               533.9446
 Red. masses --      6.9886                 4.2271                 3.5560
 Frc consts  --      1.0255                 0.6682                 0.5973
 IR Inten    --     30.9594                13.5785                 2.1720

                     28                     29                     30
                      A                      A                      A
 Frequencies --    535.6765               547.5859               549.7969
 Red. masses --      2.9078                 4.2830                 4.8200
 Frc consts  --      0.4916                 0.7567                 0.8584
 IR Inten    --    111.9448                 2.6998                32.7517

                     31                     32                     33
                      A                      A                      A
 Frequencies --    592.5801               646.9078               696.4578
 Red. masses --      2.3778                 2.9585                 4.4623
 Frc consts  --      0.4919                 0.7295                 1.2752
 IR Inten    --     39.9402                51.0239                 0.6261

                     34                     35                     36
                      A                      A                      A
 Frequencies --    710.2682               774.4125               784.0663
 Red. masses --      4.7729                 4.0219                 1.6559
 Frc consts  --      1.4186                 1.4211                 0.5998
 IR Inten    --      2.8528                 1.6858                22.1630

                     37                     38                     39
                      A                      A                      A
 Frequencies --    793.1096               836.0652               847.7064
 Red. masses --      1.2225                 4.4455                 4.5201
 Frc consts  --      0.4531                 1.8309                 1.9138
 IR Inten    --     19.8391                76.9065                 3.5485

                     40                     41                     42
                      A                      A                      A
 Frequencies --    864.2789               888.8467               904.8619
 Red. masses --      2.1643                 2.0826                 1.3012
 Frc consts  --      0.9525                 0.9694                 0.6277
 IR Inten    --      6.9341                 5.8462                 0.1121

                     43                     44                     45
                      A                      A                      A
 Frequencies --    958.6162               967.3332               975.1526
 Red. masses --      2.0941                 1.9974                 1.2782
 Frc consts  --      1.1338                 1.1012                 0.7161
 IR Inten    --      3.4085                 0.8602                 0.4716

                     46                     47                     48
                      A                      A                      A
 Frequencies --   1029.5908              1054.5959              1066.5567
 Red. masses --      1.5660                 2.1420                 1.5865
 Frc consts  --      0.9781                 1.4036                 1.0633
 IR Inten    --      1.4191                 3.1090                 0.9021

                     49                     50                     51
                      A                      A                      A
 Frequencies --   1073.2830              1082.3153              1096.6441
 Red. masses --      1.5216                 1.5217                 8.8065
 Frc consts  --      1.0327                 1.0502                 6.2400
 IR Inten    --      6.7569                 4.3396               175.3604

                     52                     53                     54
                      A                      A                      A
 Frequencies --   1109.5642              1129.7776              1146.5562
 Red. masses --      1.7619                 1.8367                 2.2915
 Frc consts  --      1.2780                 1.3812                 1.7749
 IR Inten    --     29.1460                 2.6397                 0.6855

                     55                     56                     57
                      A                      A                      A
 Frequencies --   1186.5623              1203.3836              1204.3863
 Red. masses --      1.2395                 1.8921                 1.3810
 Frc consts  --      1.0282                 1.6144                 1.1802
 IR Inten    --     10.0330               103.5983                30.9316

                     58                     59                     60
                      A                      A                      A
 Frequencies --   1218.3010              1246.3517              1285.4200
 Red. masses --      2.8662                 1.3442                 2.4940
 Frc consts  --      2.5065                 1.2302                 2.4280
 IR Inten    --      4.6449                14.9205                 2.7652

                     61                     62                     63
                      A                      A                      A
 Frequencies --   1287.2671              1291.7688              1297.6103
 Red. masses --      1.7018                 1.4459                 1.7238
 Frc consts  --      1.6615                 1.4216                 1.7101
 IR Inten    --     13.2676                10.9188                 6.4732

                     64                     65                     66
                      A                      A                      A
 Frequencies --   1316.1666              1351.0955              1354.0550
 Red. masses --      3.9770                 1.3080                 4.2848
 Frc consts  --      4.0591                 1.4068                 4.6286
 IR Inten    --    105.5077                 5.8753                 0.4876

                     67                     68                     69
                      A                      A                      A
 Frequencies --   1384.3381              1396.2419              1440.7175
 Red. masses --      1.8760                 1.5323                 1.2250
 Frc consts  --      2.1182                 1.7600                 1.4982
 IR Inten    --     19.0580                 7.1025                 1.2062

                     70                     71                     72
                      A                      A                      A
 Frequencies --   1448.9124              1454.0877              1473.7146
 Red. masses --      1.2388                 1.2232                 1.6108
 Frc consts  --      1.5322                 1.5238                 2.0611
 IR Inten    --      3.6983                 4.6316                 4.0233

                     73                     74                     75
                      A                      A                      A
 Frequencies --   1500.4884              1510.9643              1520.5202
 Red. masses --      1.4236                 1.5520                 1.0698
 Frc consts  --      1.8885                 2.0876                 1.4573
 IR Inten    --     11.1518                 3.7135                 6.9890

                     76                     77                     78
                      A                      A                      A
 Frequencies --   1523.6733              1526.6348              1529.9709
 Red. masses --      1.1527                 1.0704                 1.0885
 Frc consts  --      1.5768                 1.4699                 1.5013
 IR Inten    --      7.0601                 6.4009                 1.5943

                     79                     80                     81
                      A                      A                      A
 Frequencies --   1532.8036              1540.5234              1542.3797
 Red. masses --      1.2477                 1.0629                 1.1426
 Frc consts  --      1.7271                 1.4862                 1.6014
 IR Inten    --     18.5423                 2.1797                 9.7777

                     82                     83                     84
                      A                      A                      A
 Frequencies --   1641.4696              1654.7662              1836.3756
 Red. masses --      6.4891                 5.2940                10.3157
 Frc consts  --     10.3015                 8.5411                20.4962
 IR Inten    --      5.5838                 3.7911               192.7122

                     85                     86                     87
                      A                      A                      A
 Frequencies --   3048.2830              3051.6068              3055.6278
 Red. masses --      1.0442                 1.0443                 1.0366
 Frc consts  --      5.7169                 5.7299                 5.7024
 IR Inten    --     19.5302                21.6749                29.2386

                     88                     89                     90
                      A                      A                      A
 Frequencies --   3076.8535              3095.6125              3106.6330
 Red. masses --      1.0831                 1.0634                 1.0700
 Frc consts  --      6.0415                 6.0039                 6.0842
 IR Inten    --      1.4899                 3.9661                 5.4885

                     91                     92                     93
                      A                      A                      A
 Frequencies --   3110.2427              3118.6796              3119.8192
 Red. masses --      1.0856                 1.1013                 1.0923
 Frc consts  --      6.1872                 6.3111                 6.2639
 IR Inten    --     12.0221                15.9973                15.5492

                     94                     95                     96
                      A                      A                      A
 Frequencies --   3135.4068              3138.6802              3152.4616
 Red. masses --      1.1003                 1.1018                 1.1017
 Frc consts  --      6.3733                 6.3951                 6.4510
 IR Inten    --     21.1664                18.0874                 5.2957

                     97                     98                     99
                      A                      A                      A
 Frequencies --   3156.7582              3181.7631              3188.5889
 Red. masses --      1.1026                 1.0857                 1.1008
 Frc consts  --      6.4737                 6.4760                 6.5943
 IR Inten    --     10.3263                 0.6636                 0.6912

                    100                    101                    102
                      A                      A                      A
 Frequencies --   3192.9614              3205.7869              3691.8737
 Red. masses --      1.0908                 1.0967                 1.0640
 Frc consts  --      6.5521                 6.6409                 8.5442
 IR Inten    --     20.3066                24.6081                43.1218

 - Thermochemistry -
 -------------------
 Temperature   298.150 Kelvin.  Pressure   1.00000 Atm.
 Atom     1 has atomic number  6 and mass  12.00000

 Molecular mass:   270.09258 amu.
 Principal axes and moments of inertia in atomic units:
                           1         2         3
     Eigenvalues --  3546.004224906.538385355.25985
           X            0.99738   0.07219  -0.00377
           Y           -0.07187   0.99592   0.05464
           Z            0.00770  -0.05423   0.99850
 This molecule is an asymmetric top.
 Rotational symmetry number  1.
 Warning -- assumption of classical behavior for rotation
           may cause significant error
 Rotational temperatures (Kelvin)      0.02443     0.01765     0.01617
 Rotational constants (GHZ):           0.50895     0.36782     0.33700
 Zero-point vibrational energy     779100.5 (Joules/Mol)
                                  186.20949 (Kcal/Mol)
 Warning -- explicit consideration of  31 degrees of freedom as
           vibrations may cause significant error
 Vibrational temperatures:     39.43    71.80   108.38   125.91   153.26
          (Kelvin)            171.49   194.87   208.38   227.57   249.43
                              285.56   300.86   330.07   341.68   352.09
                              411.01   432.21   448.01   463.29   500.73
                              539.25   622.32   663.83   690.90   718.02
                              745.26   768.23   770.72   787.85   791.04
                              852.59   930.76  1002.05  1021.92  1114.21
                             1128.10  1141.11  1202.91  1219.66  1243.50
                             1278.85  1301.89  1379.23  1391.78  1403.03
                             1481.35  1517.33  1534.54  1544.21  1557.21
                             1577.83  1596.42  1625.50  1649.64  1707.20
                             1731.40  1732.84  1752.86  1793.22  1849.43
                             1852.09  1858.57  1866.97  1893.67  1943.93
                             1948.18  1991.75  2008.88  2072.87  2084.66
                             2092.11  2120.35  2158.87  2173.94  2187.69
                             2192.23  2196.49  2201.29  2205.36  2216.47
                             2219.14  2361.71  2380.84  2642.13  4385.80
                             4390.58  4396.37  4426.91  4453.90  4469.75
                             4474.95  4487.08  4488.72  4511.15  4515.86
                             4535.69  4541.87  4577.85  4587.67  4593.96
                             4612.41  5311.78

 Zero-point correction=                           0.296744 (Hartree/Particle)
 Thermal correction to Energy=                    0.315461
 Thermal correction to Enthalpy=                  0.316406
 Thermal correction to Gibbs Free Energy=         0.250420
 Sum of electronic and zero-point Energies=          -1205.051745
 Sum of electronic and thermal Energies=             -1205.033028
 Sum of electronic and thermal Enthalpies=           -1205.032083
 Sum of electronic and thermal Free Energies=        -1205.098069

                     E (Thermal)             CV                S
                      KCal/Mol        Cal/Mol-Kelvin    Cal/Mol-Kelvin
 Total                  197.955             70.771            138.878
 Electronic               0.000              0.000              0.000
 Translational            0.889              2.981             42.680
 Rotational               0.889              2.981             32.899
 Vibrational            196.178             64.810             63.299
 Vibration     1          0.593              1.984              6.009
 Vibration     2          0.595              1.978              4.821
 Vibration     3          0.599              1.965              4.009
 Vibration     4          0.601              1.958              3.715
 Vibration     5          0.605              1.944              3.331
 Vibration     6          0.609              1.933              3.113
 Vibration     7          0.613              1.918              2.867
 Vibration     8          0.616              1.908              2.739
 Vibration     9          0.621              1.893              2.572
 Vibration    10          0.627              1.875              2.399
 Vibration    11          0.637              1.842              2.147
 Vibration    12          0.642              1.827              2.051
 Vibration    13          0.652              1.796              1.884
 Vibration    14          0.656              1.783              1.822
 Vibration    15          0.660              1.772              1.768
 Vibration    16          0.683              1.700              1.500
 Vibration    17          0.693              1.673              1.415
 Vibration    18          0.700              1.652              1.355
 Vibration    19          0.707              1.631              1.300
 Vibration    20          0.726              1.579              1.175
 Vibration    21          0.746              1.524              1.060
 Vibration    22          0.793              1.399              0.850
 Vibration    23          0.819              1.336              0.762
 Vibration    24          0.837              1.294              0.710
 Vibration    25          0.854              1.252              0.661
 Vibration    26          0.873              1.210              0.615
 Vibration    27          0.889              1.175              0.578
 Vibration    28          0.891              1.171              0.575
 Vibration    29          0.903              1.145              0.549
 Vibration    30          0.905              1.140              0.545
 Vibration    31          0.950              1.048              0.463

                           ! Non-Optimized Parameters !
 Normal termination of Gaussian 16 at Fri Dec 11 22:07:42 2020.

 ----------------------------------------------------------------------
 # B3LYP/6-311++G(d,p) empiricaldispersion=gd3bj scf=xqc pop=npa geom=c
 heck
 ----------------------------------------------------------------------

 ---------------------------------------
 CID_104539572_JID_8681_Energie_neutraal
 ---------------------------------------
 Structure from the checkpoint file:  "JID_8681.chk"
 Charge =  0 Multiplicity = 1

 SCF Done:  E(RB3LYP) =  -1205.60914706     A.U. after   16 cycles
 Normal termination of Gaussian 16 at Fri Dec 11 22:15:42 2020.

 ----------------------------------------------------------------------
 # B3LYP/6-311++G(d,p) empiricaldispersion=gd3bj scf=xqc pop=npa geom=c
 heck
 ----------------------------------------------------------------------

 -------------------------------------
 CID_104539572_JID_8681_Energie_kation
 -------------------------------------
 Structure from the checkpoint file:  "JID_8681.chk"
 Charge =  1 Multiplicity = 2

 SCF Done:  E(UB3LYP) =  -1205.28781860     A.U. after   32 cycles
 Normal termination of Gaussian 16 at Fri Dec 11 22:36:53 2020.
 Gaussian 16:  ES64L-G16RevA.03 25-Dec-2016

 ----------------------------------------------------------------------
 # B3LYP/6-311++G(d,p) empiricaldispersion=gd3bj scf=xqc pop=npa geom=c
 heck
 ----------------------------------------------------------------------

 ------------------------------------
 CID_104539572_JID_8681_Energie_anion
 ------------------------------------
 Structure from the checkpoint file:  "JID_8681.chk"
 Charge = -1 Multiplicity = 2

                         Standard orientation:
 ---------------------------------------------------------------------
 Center     Atomic      Atomic             Coordinates (Angstroms)
 Number     Number       Type             X           Y           Z
 ---------------------------------------------------------------------
      1          6           0       -2.564343   -2.686099    0.909798
      2          6           0       -1.927843   -1.671765   -0.047472
      3          6           0       -1.664932   -0.332110    0.639696
      4          6           0       -0.528157   -0.298565    1.650449
      5          8           0       -0.332110    0.601624    2.433801
      6          8           0        0.235177   -1.412293    1.599241
      7         16           0       -1.587755    1.104536   -0.561047
      8          8           0       -2.634258    0.827831   -1.561079
      9          8           0       -1.649147    2.328835    0.250010
     10          6           0        0.029836    1.121096   -1.485533
     11          6           0        1.196213    0.431059   -0.844734
     12          6           0        1.924271    1.068551    0.183912
     13          6           0        2.973437    0.371534    0.793341
     14          6           0        3.313612   -0.916213    0.386438
     15          6           0        2.621581   -1.516827   -0.662628
     16          6           0        1.566315   -0.855841   -1.294768
     17          6           0        0.884352   -1.518728   -2.470876
     18          6           0        1.602365    2.469597    0.641299
     19          1           0       -1.905293   -2.905471    1.754927
     20          1           0       -2.765076   -3.626714    0.386559
     21          1           0       -3.516997   -2.311910    1.302291
     22          1           0       -0.989783   -2.071508   -0.437430
     23          1           0       -2.598084   -1.490937   -0.892354
     24          1           0       -2.558209   -0.002198    1.184057
     25          1           0        0.993093   -1.253715    2.192620
     26          1           0       -0.231206    0.699669   -2.454449
     27          1           0        0.183996    2.197371   -1.598846
     28          1           0        3.531306    0.854959    1.590540
     29          1           0        4.132769   -1.441931    0.869697
     30          1           0        2.903664   -2.510014   -1.000690
     31          1           0       -0.204090   -1.561481   -2.368319
     32          1           0        1.096666   -0.983848   -3.405688
     33          1           0        1.243936   -2.543997   -2.593342
     34          1           0        1.614704    3.177481   -0.196948
     35          1           0        0.613519    2.530747    1.103023
     36          1           0        2.341611    2.808807    1.371776
 ---------------------------------------------------------------------

 SCF Done:  E(UB3LYP) =  -1205.61161214     A.U. after   33 cycles
 SCF Done:  E(UB3LYP) =  -1205.61161214     a.u. after    1 cycles

 The electronic state is 2-A.
 Alpha  occ. eigenvalues --  -88.89712 -19.03799 -18.98418 -18.98281 -18.97423
 Alpha  occ. eigenvalues --  -10.16504 -10.09351 -10.07880 -10.06570 -10.06272
 Alpha  occ. eigenvalues --  -10.05590 -10.05302 -10.05274 -10.04824 -10.04306
 Alpha  occ. eigenvalues --  -10.03983 -10.03717 -10.03601  -7.96507  -5.92720
 Alpha  occ. eigenvalues --   -5.92595  -5.92556  -0.98019  -0.97342  -0.88813
 Alpha  occ. eigenvalues --   -0.87310  -0.74003  -0.70323  -0.66552  -0.66065
 Alpha  occ. eigenvalues --   -0.62156  -0.60612  -0.56501  -0.55532  -0.51998
 Alpha  occ. eigenvalues --   -0.51111  -0.47365  -0.45352  -0.44616  -0.38821
 Alpha  occ. eigenvalues --   -0.38212  -0.37128  -0.36752  -0.35906  -0.34931
 Alpha  occ. eigenvalues --   -0.33079  -0.32473  -0.32160  -0.31888  -0.31039
 Alpha  occ. eigenvalues --   -0.29966  -0.29545  -0.28833  -0.28736  -0.28395
 Alpha  occ. eigenvalues --   -0.27902  -0.27635  -0.26436  -0.25367  -0.24610
 Alpha  occ. eigenvalues --   -0.24150  -0.23043  -0.21658  -0.21429  -0.20627
 Alpha  occ. eigenvalues --   -0.19491  -0.18823  -0.17513  -0.16875  -0.14830
 Alpha  occ. eigenvalues --   -0.12193  -0.11801   0.04787
 Alpha virt. eigenvalues --    0.07284   0.08154   0.08613   0.09232   0.09870
 Alpha virt. eigenvalues --    0.10273   0.10718   0.11007   0.11220   0.11417
 Alpha virt. eigenvalues --    0.11733   0.13204   0.13332   0.13598   0.13866

  Beta  occ. eigenvalues --  -88.89589 -19.03746 -18.98349 -18.98255 -18.97254
  Beta  occ. eigenvalues --  -10.16268 -10.09285 -10.07798 -10.06574 -10.06259
  Beta  occ. eigenvalues --  -10.05595 -10.05217 -10.05117 -10.04682 -10.04367
  Beta  occ. eigenvalues --  -10.03988 -10.03722 -10.03311  -7.96360  -5.92622
  Beta  occ. eigenvalues --   -5.92494  -5.92352  -0.97787  -0.97152  -0.88557
  Beta  occ. eigenvalues --   -0.87166  -0.73705  -0.70138  -0.66206  -0.65850
  Beta  occ. eigenvalues --   -0.61901  -0.60390  -0.56285  -0.55473  -0.51682
  Beta  occ. eigenvalues --   -0.50875  -0.47011  -0.45223  -0.44322  -0.38679
  Beta  occ. eigenvalues --   -0.37989  -0.36967  -0.36539  -0.35664  -0.34766
  Beta  occ. eigenvalues --   -0.32964  -0.32298  -0.31698  -0.31533  -0.30791
  Beta  occ. eigenvalues --   -0.29848  -0.29442  -0.28743  -0.28664  -0.28262
  Beta  occ. eigenvalues --   -0.27809  -0.27467  -0.26280  -0.25305  -0.24531
  Beta  occ. eigenvalues --   -0.24087  -0.22487  -0.21536  -0.21183  -0.20305
  Beta  occ. eigenvalues --   -0.19161  -0.18483  -0.17424  -0.16514  -0.14615
  Beta  occ. eigenvalues --   -0.11394  -0.10916
  Beta virt. eigenvalues --    0.07217   0.08143   0.08534   0.09067   0.09820
  Beta virt. eigenvalues --    0.10169   0.10603   0.10994   0.11031   0.11351
  Beta virt. eigenvalues --    0.11645   0.12296   0.13150   0.13271   0.13488

 Mulliken charges and spin densities:
               1          2
     1  C   -0.332599  -0.302653
     2  C   -0.694993   0.251289
     3  C    0.329097  -0.038001
     4  C   -0.462736   0.145519
     5  O   -0.209782   0.056981
     6  O   -0.005487   0.001495
     7  S    0.181251   0.126481
     8  O   -0.166467   0.012163
     9  O   -0.104527   0.011468
    10  C   -0.827459  -0.050884
    11  C    0.164724   0.130224
    12  C    0.120919   0.189073
    13  C   -0.228068  -0.033058
    14  C   -0.338131   0.167054
    15  C   -0.523998   0.016962
    16  C    0.319300   0.354952
    17  C   -0.009334  -0.535971
    18  C   -0.722234  -0.067275
    19  H    0.152319   0.001216
    20  H   -0.045160   0.172349
    21  H    0.098556   0.028078
    22  H    0.271248  -0.082310
    23  H    0.138909   0.041605
    24  H    0.314626  -0.016112
    25  H    0.255918  -0.001750
    26  H    0.250486   0.009934
    27  H    0.171788   0.029210
    28  H    0.105099   0.007363
    29  H    0.124252  -0.017072
    30  H    0.064259   0.043767
    31  H    0.150885   0.018202
    32  H   -0.030664   0.205900
    33  H    0.067464   0.056493
    34  H    0.075048   0.066665
    35  H    0.230450   0.007543
    36  H    0.115041  -0.006902
 Sum of Mulliken charges =  -1.00000   1.00000

 Dipole moment (field-independent basis, Debye):
    X=              1.5272    Y=             -2.9977    Z=              0.4286  Tot=              3.3916
 Quadrupole moment (field-independent basis, Debye-Ang):
   XX=           -152.4140   YY=           -141.9614   ZZ=           -140.9467
   XY=              5.9961   XZ=             -0.2616   YZ=             -3.7338

 Summary of Natural Population Analysis:

                                       Natural Population
                Natural  -----------------------------------------------
    Atom  No    Charge         Core      Valence    Rydberg      Total
 -----------------------------------------------------------------------
      C    1   -0.28173      0.99967     2.27777    0.00430     3.28173
      C    2   -0.21208      0.99961     2.20138    0.01110     3.21208
      C    3   -0.23033      0.99948     2.21466    0.01619     3.23033
      C    4    0.42319      0.99968     1.55111    0.02602     2.57681
      O    5   -0.29359      0.99987     3.28768    0.00604     4.29359
      O    6   -0.34867      0.99987     3.34105    0.00775     4.34867
      S    7    1.04398      4.99929     1.86728    0.08946     6.95602
      O    8   -0.47832      0.99991     3.47253    0.00588     4.47832
      O    9   -0.46935      0.99991     3.46324    0.00621     4.46935
      C   10   -0.27558      0.99954     2.26309    0.01296     3.27558
      C   11   -0.02664      0.99942     2.01642    0.01080     3.02664
      C   12    0.01550      0.99948     1.97359    0.01143     2.98450
      C   13   -0.11901      0.99952     2.11096    0.00853     3.11901
      C   14   -0.04881      0.99957     2.04005    0.00919     3.04881
      C   15   -0.12187      0.99952     2.11399    0.00836     3.12187
      C   16    0.02100      0.99947     1.96915    0.01038     2.97900
      C   17   -0.29669      0.99964     2.29230    0.00475     3.29669
      C   18   -0.30059      0.99963     2.29588    0.00508     3.30059
      H   19    0.10200      0.00000     0.39698    0.00101     0.39800
      H   20    0.09666      0.00000     0.40237    0.00097     0.40334
      H   21    0.09253      0.00000     0.40650    0.00097     0.40747
      H   22    0.10806      0.00000     0.38986    0.00208     0.39194
      H   23    0.11012      0.00000     0.38852    0.00135     0.38988
      H   24    0.12079      0.00000     0.37781    0.00140     0.37921
      H   25    0.24255      0.00000     0.25489    0.00255     0.25745
      H   26    0.11520      0.00000     0.38343    0.00137     0.38480
      H   27    0.11661      0.00000     0.38190    0.00149     0.38339
      H   28    0.09210      0.00000     0.40669    0.00121     0.40790
      H   29    0.08795      0.00000     0.41070    0.00135     0.41205
      H   30    0.09095      0.00000     0.40772    0.00133     0.40905
      H   31    0.10267      0.00000     0.39627    0.00106     0.39733
      H   32    0.10356      0.00000     0.39518    0.00126     0.39644
      H   33    0.09903      0.00000     0.40014    0.00083     0.40097
      H   34    0.09685      0.00000     0.40206    0.00109     0.40315
      H   35    0.12643      0.00000     0.37210    0.00147     0.37357
      H   36    0.09554      0.00000     0.40364    0.00082     0.40446
 =======================================================================
   * Total *    0.00000     21.99306    49.72889    0.27805    72.00000

 Normal termination of Gaussian 16 at Fri Dec 11 22:58:43 2020.
