 Gaussian 16, Revision A.03,

 -----------------------------------------------------------
 # opt freq B3LYP/6-31G(d) empiricaldispersion=gd3bj scf=xqc
 -----------------------------------------------------------

 -------------------------------
 CID_151463077_JID_5830_neutraal
 -------------------------------
 Symbolic Z-matrix:
 Charge =  0 Multiplicity = 1

 SCF Done:  E(RB3LYP) =  -1098.28826176     A.U. after   15 cycles
 SCF Done:  E(RB3LYP) =  -1098.29426588     A.U. after   15 cycles
 SCF Done:  E(RB3LYP) =  -1098.29499061     A.U. after   13 cycles
 SCF Done:  E(RB3LYP) =  -1098.29596219     A.U. after   13 cycles
 SCF Done:  E(RB3LYP) =  -1098.29640518     A.U. after   13 cycles
 SCF Done:  E(RB3LYP) =  -1098.29806558     A.U. after   16 cycles
 SCF Done:  E(RB3LYP) =  -1098.29927995     A.U. after   16 cycles
 SCF Done:  E(RB3LYP) =  -1098.30136717     A.U. after   15 cycles
 SCF Done:  E(RB3LYP) =  -1098.30431187     A.U. after   16 cycles
 SCF Done:  E(RB3LYP) =  -1098.30482981     A.U. after   13 cycles
 SCF Done:  E(RB3LYP) =  -1098.30528395     A.U. after   10 cycles
 SCF Done:  E(RB3LYP) =  -1098.30528495     A.U. after   10 cycles
 SCF Done:  E(RB3LYP) =  -1098.30528534     A.U. after    9 cycles
 SCF Done:  E(RB3LYP) =  -1098.30528540     A.U. after    9 cycles
 SCF Done:  E(RB3LYP) =  -1098.30528547     A.U. after    8 cycles
 Optimization completed.
    -- Stationary point found.
 Normal termination of Gaussian 16 at Thu Dec 10 17:30:22 2020.

 --------------------------------------------------------------------
 #N Geom=AllCheck Guess=TCheck SCRF=Check GenChk RB3LYP/6-31G(d) Freq
 --------------------------------------------------------------------

 Structure from the checkpoint file:  "JID_5830.chk"
 -------------------------------
 CID_151463077_JID_5830_neutraal
 -------------------------------
 Charge =  0 Multiplicity = 1

 SCF Done:  E(RB3LYP) =  -1098.30528547     A.U. after    1 cycles

  Exact polarizability: 211.373  16.242 120.674  -3.733   9.135  73.254
 Approx polarizability: 295.254  50.410 238.475 -11.766  26.923 118.170

                      1                      2                      3
                      A                      A                      A
 Frequencies --     23.7000                28.0162                45.7016
 Red. masses --      5.4705                 3.0420                 5.1771
 Frc consts  --      0.0018                 0.0014                 0.0064
 IR Inten    --      0.7879                 0.2569                 0.2663

                      4                      5                      6
                      A                      A                      A
 Frequencies --     76.2561               102.0051               110.0764
 Red. masses --      5.3682                 4.1664                 9.4335
 Frc consts  --      0.0184                 0.0255                 0.0673
 IR Inten    --      0.4907                 0.2120                 2.2461

                      7                      8                      9
                      A                      A                      A
 Frequencies --    174.7331               184.2705               222.3087
 Red. masses --      5.6581                 6.4060                 1.7545
 Frc consts  --      0.1018                 0.1282                 0.0511
 IR Inten    --      3.5208                 2.2736                 3.1002

                     10                     11                     12
                      A                      A                      A
 Frequencies --    267.4423               282.6802               319.3552
 Red. masses --      5.3790                 2.3277                 6.2008
 Frc consts  --      0.2267                 0.1096                 0.3726
 IR Inten    --      1.3284                 3.8050                 8.2347

                     13                     14                     15
                      A                      A                      A
 Frequencies --    355.6278               404.9895               418.6208
 Red. masses --      7.2195                 5.9334                 3.0925
 Frc consts  --      0.5380                 0.5734                 0.3193
 IR Inten    --      0.4788                 1.5006                 0.0662

                     16                     17                     18
                      A                      A                      A
 Frequencies --    437.8004               473.7040               497.7799
 Red. masses --      3.8412                 8.5286                 7.3770
 Frc consts  --      0.4338                 1.1276                 1.0770
 IR Inten    --      8.9642                 5.4740                16.2625

                     19                     20                     21
                      A                      A                      A
 Frequencies --    526.2588               533.8949               543.7920
 Red. masses --      4.3756                 5.2735                11.3837
 Frc consts  --      0.7140                 0.8856                 1.9834
 IR Inten    --     27.3473                13.9640                14.7265

                     22                     23                     24
                      A                      A                      A
 Frequencies --    639.4102               645.7546               698.8381
 Red. masses --      8.7629                 7.1579                 5.6764
 Frc consts  --      2.1108                 1.7586                 1.6333
 IR Inten    --     54.6129                 0.0490                88.3965

                     25                     26                     27
                      A                      A                      A
 Frequencies --    718.6082               743.0790               821.5589
 Red. masses --      5.2837                 8.1031                 1.1402
 Frc consts  --      1.6076                 2.6362                 0.4534
 IR Inten    --     22.2104               240.9779                 0.6023

                     28                     29                     30
                      A                      A                      A
 Frequencies --    838.6307               843.4539               854.3230
 Red. masses --      1.3226                 7.2300                 1.4697
 Frc consts  --      0.5481                 3.0305                 0.6320
 IR Inten    --      7.0349                12.5694                23.1151

                     31                     32                     33
                      A                      A                      A
 Frequencies --    894.2531               968.3620               980.6264
 Red. masses --      3.1219                 1.2995                 1.3036
 Frc consts  --      1.4709                 0.7180                 0.7386
 IR Inten    --    243.7957                 0.0629                 0.3617

                     34                     35                     36
                      A                      A                      A
 Frequencies --   1034.4311              1036.1030              1102.7064
 Red. masses --      3.5859                 3.6840                 4.1957
 Frc consts  --      2.2608                 2.3301                 3.0059
 IR Inten    --     21.0459               196.6200                31.3117

                     37                     38                     39
                      A                      A                      A
 Frequencies --   1127.7456              1146.9801              1155.3251
 Red. masses --      1.9468                 1.3123                 6.4327
 Frc consts  --      1.4588                 1.0171                 5.0589
 IR Inten    --     21.7647                13.3495               241.4132

                     40                     41                     42
                      A                      A                      A
 Frequencies --   1173.1105              1198.9472              1216.7208
 Red. masses --      3.9985                 1.6442                 1.2366
 Frc consts  --      3.2421                 1.3925                 1.0786
 IR Inten    --     16.2805                20.8304                 6.4492

                     43                     44                     45
                      A                      A                      A
 Frequencies --   1325.2454              1332.0578              1341.4379
 Red. masses --      3.1592                 1.3451                 1.4449
 Frc consts  --      3.2690                 1.4062                 1.5319
 IR Inten    --    124.0789                30.7827                 7.5081

                     46                     47                     48
                      A                      A                      A
 Frequencies --   1359.7249              1378.4117              1412.9111
 Red. masses --     10.6896                 8.2291                 1.2312
 Frc consts  --     11.6443                 9.2122                 1.4482
 IR Inten    --     48.9049               207.2127                17.3637

                     49                     50                     51
                      A                      A                      A
 Frequencies --   1448.5977              1459.7118              1517.4879
 Red. masses --      1.2663                 3.0720                 1.0410
 Frc consts  --      1.5655                 3.8566                 1.4124
 IR Inten    --     20.5275                 8.8681                 5.9589

                     52                     53                     54
                      A                      A                      A
 Frequencies --   1523.0930              1533.7488              1541.9832
 Red. masses --      1.0644                 1.0741                 2.3195
 Frc consts  --      1.4548                 1.4886                 3.2493
 IR Inten    --      0.4900                 5.8261                74.7055

                     55                     56                     57
                      A                      A                      A
 Frequencies --   1630.4309              1654.4991              2270.9163
 Red. masses --      7.0403                 5.6630                13.9827
 Frc consts  --     11.0267                 9.1334                42.4858
 IR Inten    --      8.9074               125.4182               805.1875

                     58                     59                     60
                      A                      A                      A
 Frequencies --   3063.8036              3092.7346              3134.3448
 Red. masses --      1.0373                 1.0596                 1.0997
 Frc consts  --      5.7367                 5.9716                 6.3651
 IR Inten    --     14.6580                19.9346                24.2118

                     61                     62                     63
                      A                      A                      A
 Frequencies --   3137.4125              3160.5380              3204.9629
 Red. masses --      1.1064                 1.1066                 1.0896
 Frc consts  --      6.4166                 6.5124                 6.5939
 IR Inten    --      2.9522                21.6503                 3.4436

                     64                     65                     66
                      A                      A                      A
 Frequencies --   3224.6996              3233.0781              3239.4558
 Red. masses --      1.0893                 1.0932                 1.0947
 Frc consts  --      6.6737                 6.7326                 6.7685
 IR Inten    --      1.4287                 0.5986                 1.5289

 - Thermochemistry -
 -------------------
 Temperature   298.150 Kelvin.  Pressure   1.00000 Atm.
 Atom     1 has atomic number  6 and mass  12.00000

 Molecular mass:   227.03646 amu.
 Principal axes and moments of inertia in atomic units:
                           1         2         3
     Eigenvalues --  1081.057847734.071138011.40434
           X            0.99992  -0.00619   0.01076
           Y            0.00604   0.99990   0.01305
           Z           -0.01084  -0.01298   0.99986
 This molecule is an asymmetric top.
 Rotational symmetry number  1.
 Warning -- assumption of classical behavior for rotation
           may cause significant error
 Rotational temperatures (Kelvin)      0.08012     0.01120     0.01081
 Rotational constants (GHZ):           1.66942     0.23335     0.22527
 Zero-point vibrational energy     461096.2 (Joules/Mol)
                                  110.20464 (Kcal/Mol)
 Warning -- explicit consideration of  21 degrees of freedom as
           vibrations may cause significant error
 Vibrational temperatures:     34.10    40.31    65.75   109.72   146.76
          (Kelvin)            158.38   251.40   265.12   319.85   384.79
                              406.71   459.48   511.67   582.69   602.30
                              629.90   681.55   716.19   757.17   768.16
                              782.40   919.97   929.10  1005.47  1033.92
                             1069.12  1182.04  1206.60  1213.54  1229.18
                             1286.63  1393.26  1410.90  1488.32  1490.72
                             1586.55  1622.57  1650.25  1662.26  1687.84
                             1725.02  1750.59  1906.73  1916.53  1930.03
                             1956.34  1983.23  2032.86  2084.21  2100.20
                             2183.33  2191.39  2206.72  2218.57  2345.83
                             2380.46  3267.34  4408.13  4449.76  4509.62
                             4514.04  4547.31  4611.23  4639.62  4651.68
                             4660.85

 Zero-point correction=                           0.175622 (Hartree/Particle)
 Thermal correction to Energy=                    0.189899
 Thermal correction to Enthalpy=                  0.190844
 Thermal correction to Gibbs Free Energy=         0.131906
 Sum of electronic and zero-point Energies=          -1098.129663
 Sum of electronic and thermal Energies=             -1098.115386
 Sum of electronic and thermal Enthalpies=           -1098.114442
 Sum of electronic and thermal Free Energies=        -1098.173380

                     E (Thermal)             CV                S
                      KCal/Mol        Cal/Mol-Kelvin    Cal/Mol-Kelvin
 Total                  119.164             51.830            124.045
 Electronic               0.000              0.000              0.000
 Translational            0.889              2.981             42.162
 Rotational               0.889              2.981             32.571
 Vibrational            117.386             45.869             49.312
 Vibration     1          0.593              1.985              6.297
 Vibration     2          0.593              1.984              5.965
 Vibration     3          0.595              1.979              4.995
 Vibration     4          0.599              1.965              3.985
 Vibration     5          0.604              1.948              3.416
 Vibration     6          0.606              1.941              3.268
 Vibration     7          0.627              1.874              2.384
 Vibration     8          0.631              1.861              2.285
 Vibration     9          0.648              1.807              1.940
 Vibration    10          0.673              1.733              1.613
 Vibration    11          0.682              1.706              1.517
 Vibration    12          0.705              1.637              1.313
 Vibration    13          0.731              1.564              1.141
 Vibration    14          0.770              1.459              0.944
 Vibration    15          0.781              1.430              0.897
 Vibration    16          0.798              1.388              0.834
 Vibration    17          0.830              1.308              0.727
 Vibration    18          0.853              1.255              0.664
 Vibration    19          0.881              1.192              0.596
 Vibration    20          0.889              1.175              0.579
 Vibration    21          0.899              1.153              0.557

 Optimization completed.
    -- Stationary point found.
 Normal termination of Gaussian 16 at Thu Dec 10 17:36:25 2020.

 ----------------------------------------------------------------------
 # B3LYP/6-311++G(d,p) empiricaldispersion=gd3bj scf=xqc pop=npa geom=c
 heck
 ----------------------------------------------------------------------

 ---------------------------------------
 CID_151463077_JID_5830_Energie_neutraal
 ---------------------------------------
 Structure from the checkpoint file:  "JID_5830.chk"
 Charge =  0 Multiplicity = 1

 SCF Done:  E(RB3LYP) =  -1098.52384470     A.U. after   17 cycles
 Normal termination of Gaussian 16 at Thu Dec 10 17:39:33 2020.

 ----------------------------------------------------------------------
 # B3LYP/6-311++G(d,p) empiricaldispersion=gd3bj scf=xqc pop=npa geom=c
 heck
 ----------------------------------------------------------------------

 -------------------------------------
 CID_151463077_JID_5830_Energie_kation
 -------------------------------------
 Structure from the checkpoint file:  "JID_5830.chk"
 Charge =  1 Multiplicity = 2

 SCF Done:  E(UB3LYP) =  -1098.19743410     A.U. after   26 cycles
 Normal termination of Gaussian 16 at Thu Dec 10 17:45:39 2020.
 Gaussian 16:  ES64L-G16RevA.03 25-Dec-2016

 ----------------------------------------------------------------------
 # B3LYP/6-311++G(d,p) empiricaldispersion=gd3bj scf=xqc pop=npa geom=c
 heck
 ----------------------------------------------------------------------

 ------------------------------------
 CID_151463077_JID_5830_Energie_anion
 ------------------------------------
 Structure from the checkpoint file:  "JID_5830.chk"
 Charge = -1 Multiplicity = 2

                         Standard orientation:
 ---------------------------------------------------------------------
 Center     Atomic      Atomic             Coordinates (Angstroms)
 Number     Number       Type             X           Y           Z
 ---------------------------------------------------------------------
      1          6           0       -4.713211    0.125302   -0.882552
      2          6           0       -3.517616    1.047747   -1.047077
      3          8           0       -2.248561    0.336305   -0.944093
      4         16           0       -1.801067   -0.134100    0.562020
      5          8           0       -2.082975    0.964126    1.488733
      6          8           0       -2.325666   -1.472736    0.823878
      7          6           0       -0.052040   -0.245466    0.276849
      8          6           0        0.743644    0.883033    0.477114
      9          6           0        2.112253    0.798685    0.254133
     10          6           0        2.674082   -0.416178   -0.167632
     11          6           0        1.865387   -1.544417   -0.358077
     12          6           0        0.497494   -1.461121   -0.133313
     13          7           0        4.053138   -0.597843   -0.419707
     14          7           0        4.805489    0.374538   -0.260638
     15          7           0        5.605253    1.179003   -0.155265
     16          1           0       -4.653564   -0.710506   -1.585825
     17          1           0       -5.634770    0.684934   -1.079559
     18          1           0       -4.766973   -0.281148    0.130910
     19          1           0       -3.474455    1.478528   -2.049768
     20          1           0       -3.520019    1.857833   -0.312439
     21          1           0        0.292409    1.809119    0.815292
     22          1           0        2.741825    1.669181    0.411135
     23          1           0        2.326099   -2.473165   -0.675686
     24          1           0       -0.142980   -2.326138   -0.261930
 ---------------------------------------------------------------------

 SCF Done:  E(UB3LYP) =  -1098.54172782     A.U. after   33 cycles
 SCF Done:  E(UB3LYP) =  -1098.54172782     a.u. after    1 cycles

 The electronic state is 2-A.
 Alpha  occ. eigenvalues --  -88.94249 -19.04869 -18.99868 -18.99571 -14.33009
 Alpha  occ. eigenvalues --  -14.23908 -14.23254 -10.13379 -10.07756 -10.07164
 Alpha  occ. eigenvalues --  -10.05146 -10.05034 -10.04369 -10.04164 -10.04044
 Alpha  occ. eigenvalues --   -8.00343  -5.96743  -5.96581  -5.96340  -1.01950
 Alpha  occ. eigenvalues --   -1.00494  -0.91968  -0.89026  -0.85078  -0.73230
 Alpha  occ. eigenvalues --   -0.67930  -0.64497  -0.62293  -0.57783  -0.53213
 Alpha  occ. eigenvalues --   -0.49099  -0.47544  -0.43084  -0.42421  -0.39689
 Alpha  occ. eigenvalues --   -0.38244  -0.38196  -0.36937  -0.35560  -0.34014
 Alpha  occ. eigenvalues --   -0.32788  -0.32396  -0.31174  -0.30887  -0.29947
 Alpha  occ. eigenvalues --   -0.29371  -0.27994  -0.26385  -0.25672  -0.23018
 Alpha  occ. eigenvalues --   -0.22751  -0.22081  -0.20052  -0.19723  -0.18251
 Alpha  occ. eigenvalues --   -0.17805  -0.17503  -0.13464  -0.10057   0.04037
 Alpha virt. eigenvalues --    0.06751   0.09103   0.09182   0.09960   0.10137
 Alpha virt. eigenvalues --    0.11033   0.11205   0.11606   0.13240   0.13266
 Alpha virt. eigenvalues --    0.13740   0.13917   0.14863   0.15310   0.15872

  Beta  occ. eigenvalues --  -88.94228 -19.04810 -18.99834 -18.99536 -14.32637
  Beta  occ. eigenvalues --  -14.23469 -14.23461 -10.13342 -10.07754 -10.06724
  Beta  occ. eigenvalues --  -10.05095 -10.04743 -10.04214 -10.04144 -10.04087
  Beta  occ. eigenvalues --   -8.00322  -5.96669  -5.96568  -5.96333  -1.01815
  Beta  occ. eigenvalues --   -0.99866  -0.91837  -0.88953  -0.84844  -0.72810
  Beta  occ. eigenvalues --   -0.67798  -0.63913  -0.61977  -0.57492  -0.52813
  Beta  occ. eigenvalues --   -0.48999  -0.47415  -0.42806  -0.42248  -0.39564
  Beta  occ. eigenvalues --   -0.37979  -0.36813  -0.36563  -0.35455  -0.33897
  Beta  occ. eigenvalues --   -0.32226  -0.32002  -0.30980  -0.30666  -0.29859
  Beta  occ. eigenvalues --   -0.29317  -0.27840  -0.26307  -0.24444  -0.22874
  Beta  occ. eigenvalues --   -0.22616  -0.21892  -0.19990  -0.19260  -0.17904
  Beta  occ. eigenvalues --   -0.17571  -0.16832  -0.12551  -0.08646
  Beta virt. eigenvalues --    0.06666   0.09048   0.09356   0.09914   0.10070
  Beta virt. eigenvalues --    0.10151   0.11210   0.11307   0.11579   0.13204
  Beta virt. eigenvalues --    0.13390   0.13800   0.14746   0.15191   0.15693

 Mulliken charges and spin densities:
               1          2
     1  C   -0.324101  -0.023552
     2  C   -0.108806  -0.045911
     3  O    0.012295   0.009736
     4  S    0.010663   0.027550
     5  O   -0.232368   0.002410
     6  O   -0.142692   0.001927
     7  C   -0.654942   0.107840
     8  C   -0.111178   0.080417
     9  C    0.123339   0.051280
    10  C   -1.045768   0.260554
    11  C   -0.226033  -0.010669
    12  C    0.428214   0.167672
    13  N    0.280727  -0.116050
    14  N    0.128360   0.136111
    15  N   -0.479246   0.235686
    16  H    0.143809   0.002745
    17  H    0.085937   0.026207
    18  H    0.184393   0.012899
    19  H    0.085307   0.070398
    20  H    0.158561   0.006082
    21  H    0.192746   0.003207
    22  H    0.142540  -0.002461
    23  H    0.153370   0.001426
    24  H    0.194871  -0.005503
 Sum of Mulliken charges =  -1.00000   1.00000

 Dipole moment (field-independent basis, Debye):
    X=             -5.9776    Y=              0.6691    Z=             -2.0665  Tot=              6.3600
 Quadrupole moment (field-independent basis, Debye-Ang):
   XX=           -158.3488   YY=           -106.8872   ZZ=           -107.8372
   XY=            -10.0411   XZ=              8.8337   YZ=              0.2346

 Summary of Natural Population Analysis:

                                       Natural Population
                Natural  -----------------------------------------------
    Atom  No    Charge         Core      Valence    Rydberg      Total
 -----------------------------------------------------------------------
      C    1   -0.30250      0.99966     2.29798    0.00486     3.30250
      C    2   -0.01690      0.99961     2.00555    0.01173     3.01690
      O    3   -0.36999      0.99991     3.36137    0.00871     4.36999
      S    4    1.14207      4.99921     1.75751    0.10121     6.85793
      O    5   -0.46701      0.99990     3.46206    0.00505     4.46701
      O    6   -0.46179      0.99990     3.45671    0.00518     4.46179
      C    7   -0.10881      0.99935     2.09587    0.01359     3.10881
      C    8   -0.07651      0.99953     2.06721    0.00978     3.07651
      C    9   -0.12945      0.99954     2.12160    0.00831     3.12945
      C   10    0.14100      0.99943     1.84833    0.01123     2.85900
      C   11   -0.12211      0.99953     2.11373    0.00885     3.12211
      C   12   -0.05883      0.99952     2.04986    0.00946     3.05883
      N   13   -0.21800      0.99966     2.70508    0.01326     3.71800
      N   14    0.15254      0.99971     2.33129    0.01645     3.34746
      N   15    0.00440      0.99982     2.48267    0.01312     3.49560
      H   16    0.10118      0.00000     0.39740    0.00142     0.39882
      H   17    0.09480      0.00000     0.40398    0.00122     0.40520
      H   18    0.10703      0.00000     0.39072    0.00224     0.39297
      H   19    0.08837      0.00000     0.41001    0.00162     0.41163
      H   20    0.09310      0.00000     0.40482    0.00208     0.40690
      H   21    0.10510      0.00000     0.39381    0.00110     0.39490
      H   22    0.09829      0.00000     0.40002    0.00169     0.40171
      H   23    0.09909      0.00000     0.39982    0.00110     0.40091
      H   24    0.10495      0.00000     0.39394    0.00111     0.39505
 =======================================================================
   * Total *   -0.00000     18.99429    39.75132    0.25439    59.00000

 Normal termination of Gaussian 16 at Thu Dec 10 17:52:33 2020.
