 Gaussian 16, Revision A.03,

 -----------------------------------------------------------
 # opt freq B3LYP/6-31G(d) empiricaldispersion=gd3bj scf=xqc
 -----------------------------------------------------------

 ------------------------------
 CID_91095711_JID_2829_neutraal
 ------------------------------
 Symbolic Z-matrix:
 Charge =  0 Multiplicity = 1

 SCF Done:  E(RB3LYP) =  -1333.10549187     A.U. after   15 cycles
 SCF Done:  E(RB3LYP) =  -1333.11010346     A.U. after   14 cycles
 SCF Done:  E(RB3LYP) =  -1333.10684719     A.U. after   15 cycles
 SCF Done:  E(RB3LYP) =  -1333.10990240     A.U. after   14 cycles
 SCF Done:  E(RB3LYP) =  -1333.11128242     A.U. after   10 cycles
 SCF Done:  E(RB3LYP) =  -1333.11187308     A.U. after   13 cycles
 SCF Done:  E(RB3LYP) =  -1333.11222534     A.U. after   13 cycles
 SCF Done:  E(RB3LYP) =  -1333.11335478     A.U. after   12 cycles
 SCF Done:  E(RB3LYP) =  -1333.11442870     A.U. after   13 cycles
 SCF Done:  E(RB3LYP) =  -1333.11494634     A.U. after   14 cycles
 SCF Done:  E(RB3LYP) =  -1333.11628447     A.U. after   12 cycles
 SCF Done:  E(RB3LYP) =  -1333.11638432     A.U. after   11 cycles
 SCF Done:  E(RB3LYP) =  -1333.11640968     A.U. after   11 cycles
 SCF Done:  E(RB3LYP) =  -1333.11641621     A.U. after    9 cycles
 SCF Done:  E(RB3LYP) =  -1333.11641845     A.U. after    9 cycles
 SCF Done:  E(RB3LYP) =  -1333.11641883     A.U. after    8 cycles
 Optimization completed.
    -- Stationary point found.
 Normal termination of Gaussian 16 at Wed Dec  9 18:06:56 2020.

 --------------------------------------------------------------------
 #N Geom=AllCheck Guess=TCheck SCRF=Check GenChk RB3LYP/6-31G(d) Freq
 --------------------------------------------------------------------

 Structure from the checkpoint file:  "JID_2829.chk"
 ------------------------------
 CID_91095711_JID_2829_neutraal
 ------------------------------
 Charge =  0 Multiplicity = 1

 SCF Done:  E(RB3LYP) =  -1333.11641883     A.U. after    1 cycles

  Exact polarizability: 119.411   1.761 102.793   3.456  -7.900 101.934
 Approx polarizability: 156.466   3.028 163.754  -0.646 -27.730 177.021

                      1                      2                      3
                      A                      A                      A
 Frequencies --     36.5341                53.2560                58.9936
 Red. masses --      3.7545                 5.3672                 6.9055
 Frc consts  --      0.0030                 0.0090                 0.0142
 IR Inten    --      0.5777                 4.0254                 0.5362

                      4                      5                      6
                      A                      A                      A
 Frequencies --     94.3829               125.1546               141.0926
 Red. masses --      4.5845                 6.0529                 3.2242
 Frc consts  --      0.0241                 0.0559                 0.0378
 IR Inten    --      0.0625                 4.6080                 2.9936

                      7                      8                      9
                      A                      A                      A
 Frequencies --    168.4840               195.0712               251.8299
 Red. masses --      5.6016                 2.5337                 2.3876
 Frc consts  --      0.0937                 0.0568                 0.0892
 IR Inten    --      5.4456                 1.1662                 0.2362

                     10                     11                     12
                      A                      A                      A
 Frequencies --    269.6426               290.2321               318.4384
 Red. masses --      1.9495                 3.3065                 3.0966
 Frc consts  --      0.0835                 0.1641                 0.1850
 IR Inten    --      0.8862                 3.2690                 3.1788

                     13                     14                     15
                      A                      A                      A
 Frequencies --    378.1099               384.7385               416.0439
 Red. masses --      3.1787                 2.2945                 3.3971
 Frc consts  --      0.2678                 0.2001                 0.3464
 IR Inten    --     13.6545                 4.5020                10.2069

                     16                     17                     18
                      A                      A                      A
 Frequencies --    458.1476               475.2299               515.2259
 Red. masses --      6.8401                 4.1852                 2.2923
 Frc consts  --      0.8459                 0.5569                 0.3585
 IR Inten    --     17.6968                 8.3081                53.6544

                     19                     20                     21
                      A                      A                      A
 Frequencies --    531.7697               555.1332               656.2480
 Red. masses --      3.5098                 1.6355                 4.6828
 Frc consts  --      0.5848                 0.2970                 1.1882
 IR Inten    --     84.5749                89.2423                 5.4822

                     22                     23                     24
                      A                      A                      A
 Frequencies --    680.5670               699.2150               806.7265
 Red. masses --      3.5438                 4.7618                 1.5490
 Frc consts  --      0.9671                 1.3716                 0.5939
 IR Inten    --     20.9936                30.1897                 6.6847

                     25                     26                     27
                      A                      A                      A
 Frequencies --    814.7414               863.8766               872.3185
 Red. masses --      7.3712                 1.9677                 2.4848
 Frc consts  --      2.8829                 0.8652                 1.1140
 IR Inten    --    123.2582                14.4258                 2.3599

                     28                     29                     30
                      A                      A                      A
 Frequencies --    921.1978               992.4755              1010.2341
 Red. masses --      1.5525                 1.7636                 2.5092
 Frc consts  --      0.7762                 1.0235                 1.5088
 IR Inten    --      6.9385                12.1056                38.4264

                     31                     32                     33
                      A                      A                      A
 Frequencies --   1047.9856              1074.5947              1107.7942
 Red. masses --      2.1180                 2.4544                 1.7660
 Frc consts  --      1.3705                 1.6698                 1.2769
 IR Inten    --     17.6393                16.7364                10.8907

                     34                     35                     36
                      A                      A                      A
 Frequencies --   1113.4997              1152.3119              1202.9244
 Red. masses --      2.0715                 9.5617                 1.3811
 Frc consts  --      1.5133                 7.4804                 1.1774
 IR Inten    --     45.1205               217.8316                18.8108

                     37                     38                     39
                      A                      A                      A
 Frequencies --   1214.2445              1226.2318              1240.8913
 Red. masses --      1.2308                 1.8503                 2.6369
 Frc consts  --      1.0691                 1.6392                 2.3923
 IR Inten    --     10.7979               204.2754                55.9924

                     40                     41                     42
                      A                      A                      A
 Frequencies --   1291.5349              1301.7602              1327.7518
 Red. masses --      1.2302                 1.2483                 1.7931
 Frc consts  --      1.2091                 1.2464                 1.8624
 IR Inten    --      8.0076                 3.1554               170.0407

                     43                     44                     45
                      A                      A                      A
 Frequencies --   1352.1251              1368.6991              1393.9546
 Red. masses --      1.6774                 1.2721                 1.7781
 Frc consts  --      1.8068                 1.4040                 2.0356
 IR Inten    --     28.1886                17.1492                74.2020

                     46                     47                     48
                      A                      A                      A
 Frequencies --   1397.2057              1438.1079              1453.8037
 Red. masses --      2.3547                 1.4826                 1.2468
 Frc consts  --      2.7084                 1.8066                 1.5526
 IR Inten    --    142.2886                39.1826                 2.9073

                     49                     50                     51
                      A                      A                      A
 Frequencies --   1470.2437              1505.0923              1519.6742
 Red. masses --      1.1004                 1.1098                 1.0794
 Frc consts  --      1.4015                 1.4812                 1.4688
 IR Inten    --      5.7919                 4.3313                 4.4969

                     52                     53                     54
                      A                      A                      A
 Frequencies --   1523.4965              1533.5072              1542.1714
 Red. masses --      1.0993                 1.0494                 1.0517
 Frc consts  --      1.5033                 1.4540                 1.4737
 IR Inten    --      7.2426                 5.4183                 7.3056

                     55                     56                     57
                      A                      A                      A
 Frequencies --   3053.0333              3058.6899              3072.3840
 Red. masses --      1.0393                 1.0607                 1.0616
 Frc consts  --      5.7075                 5.8468                 5.9040
 IR Inten    --     16.9222                29.2287                 8.2374

                     58                     59                     60
                      A                      A                      A
 Frequencies --   3098.2094              3098.3622              3103.4671
 Red. masses --      1.0601                 1.0987                 1.0602
 Frc consts  --      5.9953                 6.2141                 6.0162
 IR Inten    --      9.8957                10.9354                 9.1280

                     61                     62                     63
                      A                      A                      A
 Frequencies --   3120.1052              3131.1528              3138.6595
 Red. masses --      1.1009                 1.1049                 1.1021
 Frc consts  --      6.3147                 6.3824                 6.3968
 IR Inten    --     25.9579                12.3598                22.0547

                     64                     65                     66
                      A                      A                      A
 Frequencies --   3156.8879              3164.8473              3434.4432
 Red. masses --      1.1096                 1.1052                 1.0673
 Frc consts  --      6.5153                 6.5223                 7.4174
 IR Inten    --      1.8784                 0.2303               445.4082

 - Thermochemistry -
 -------------------
 Temperature   298.150 Kelvin.  Pressure   1.00000 Atm.
 Atom     1 has atomic number  6 and mass  12.00000

 Molecular mass:   212.01770 amu.
 Principal axes and moments of inertia in atomic units:
                           1         2         3
     Eigenvalues --  1615.385113865.408154258.38411
           X            0.99931   0.03536   0.01129
           Y           -0.03584   0.99831   0.04581
           Z           -0.00965  -0.04618   0.99889
 This molecule is an asymmetric top.
 Rotational symmetry number  1.
 Warning -- assumption of classical behavior for rotation
           may cause significant error
 Rotational temperatures (Kelvin)      0.05362     0.02241     0.02034
 Rotational constants (GHZ):           1.11722     0.46690     0.42381
 Zero-point vibrational energy     499231.3 (Joules/Mol)
                                  119.31915 (Kcal/Mol)
 Warning -- explicit consideration of  20 degrees of freedom as
           vibrations may cause significant error
 Vibrational temperatures:     52.56    76.62    84.88   135.80   180.07
          (Kelvin)            203.00   242.41   280.66   362.33   387.96
                              417.58   458.16   544.02   553.55   598.59
                              659.17   683.75   741.30   765.10   798.71
                              944.19   979.18  1006.01  1160.70  1172.23
                             1242.93  1255.07  1325.40  1427.95  1453.50
                             1507.82  1546.10  1593.87  1602.08  1657.92
                             1730.74  1747.03  1764.27  1785.37  1858.23
                             1872.94  1910.34  1945.41  1969.25  2005.59
                             2010.27  2069.12  2091.70  2115.35  2165.49
                             2186.47  2191.97  2206.37  2218.84  4392.63
                             4400.77  4420.48  4457.63  4457.85  4465.20
                             4489.14  4505.03  4515.83  4542.06  4553.51
                             4941.40

 Zero-point correction=                           0.190147 (Hartree/Particle)
 Thermal correction to Energy=                    0.203638
 Thermal correction to Enthalpy=                  0.204583
 Thermal correction to Gibbs Free Energy=         0.148848
 Sum of electronic and zero-point Energies=          -1332.926272
 Sum of electronic and thermal Energies=             -1332.912780
 Sum of electronic and thermal Enthalpies=           -1332.911836
 Sum of electronic and thermal Free Energies=        -1332.967571

                     E (Thermal)             CV                S
                      KCal/Mol        Cal/Mol-Kelvin    Cal/Mol-Kelvin
 Total                  127.785             48.732            117.303
 Electronic               0.000              0.000              0.000
 Translational            0.889              2.981             41.958
 Rotational               0.889              2.981             31.653
 Vibrational            126.008             42.770             43.692
 Vibration     1          0.594              1.982              5.439
 Vibration     2          0.596              1.976              4.693
 Vibration     3          0.596              1.974              4.491
 Vibration     4          0.603              1.953              3.567
 Vibration     5          0.610              1.928              3.019
 Vibration     6          0.615              1.912              2.789
 Vibration     7          0.625              1.881              2.452
 Vibration     8          0.636              1.847              2.179
 Vibration     9          0.664              1.760              1.718
 Vibration    10          0.674              1.729              1.598
 Vibration    11          0.686              1.692              1.473
 Vibration    12          0.705              1.638              1.318
 Vibration    13          0.748              1.517              1.047
 Vibration    14          0.754              1.503              1.020
 Vibration    15          0.779              1.435              0.906
 Vibration    16          0.816              1.343              0.772
 Vibration    17          0.832              1.305              0.723
 Vibration    18          0.870              1.216              0.621
 Vibration    19          0.887              1.180              0.583
 Vibration    20          0.911              1.128              0.534

                           ! Non-Optimized Parameters !
 Normal termination of Gaussian 16 at Wed Dec  9 18:12:23 2020.

 ----------------------------------------------------------------------
 # B3LYP/6-311++G(d,p) empiricaldispersion=gd3bj scf=xqc pop=npa geom=c
 heck
 ----------------------------------------------------------------------

 --------------------------------------
 CID_91095711_JID_2829_Energie_neutraal
 --------------------------------------
 Structure from the checkpoint file:  "JID_2829.chk"
 Charge =  0 Multiplicity = 1

 SCF Done:  E(RB3LYP) =  -1333.33473981     A.U. after   15 cycles
 Normal termination of Gaussian 16 at Wed Dec  9 18:15:19 2020.

 ----------------------------------------------------------------------
 # B3LYP/6-311++G(d,p) empiricaldispersion=gd3bj scf=xqc pop=npa geom=c
 heck
 ----------------------------------------------------------------------

 ------------------------------------
 CID_91095711_JID_2829_Energie_kation
 ------------------------------------
 Structure from the checkpoint file:  "JID_2829.chk"
 Charge =  1 Multiplicity = 2

 SCF Done:  E(UB3LYP) =  -1332.99409157     A.U. after   24 cycles
 Normal termination of Gaussian 16 at Wed Dec  9 18:21:38 2020.
 Gaussian 16:  ES64L-G16RevA.03 25-Dec-2016

 ----------------------------------------------------------------------
 # B3LYP/6-311++G(d,p) empiricaldispersion=gd3bj scf=xqc pop=npa geom=c
 heck
 ----------------------------------------------------------------------

 -----------------------------------
 CID_91095711_JID_2829_Energie_anion
 -----------------------------------
 Structure from the checkpoint file:  "JID_2829.chk"
 Charge = -1 Multiplicity = 2

                         Standard orientation:
 ---------------------------------------------------------------------
 Center     Atomic      Atomic             Coordinates (Angstroms)
 Number     Number       Type             X           Y           Z
 ---------------------------------------------------------------------
      1          6           0       -2.130381   -2.261342   -0.032834
      2          6           0       -3.122234   -1.168351   -0.434720
      3          6           0       -3.007300    0.117580    0.416967
      4          6           0       -1.656947    0.766874    0.276167
      5         16           0       -1.207867    1.659652   -1.047296
      6          8           0       -0.894301    0.480985    1.330177
      7          6           0        0.429831    1.031026    1.512475
      8          6           0        1.480380   -0.069563    1.433802
      9         16           0        2.221170   -0.290637   -0.206473
     10          8           0        2.676194    1.019414   -0.664345
     11          8           0        3.104332   -1.442695   -0.139628
     12          8           0        0.945282   -0.748268   -1.109867
     13          1           0       -1.096056   -1.958266   -0.222267
     14          1           0       -2.314294   -3.175944   -0.605963
     15          1           0       -2.224118   -2.508218    1.031606
     16          1           0       -2.986984   -0.900108   -1.488531
     17          1           0       -4.150094   -1.534917   -0.327883
     18          1           0       -3.764238    0.835279    0.088325
     19          1           0       -3.176690   -0.120005    1.472608
     20          1           0        0.611378    1.829127    0.789318
     21          1           0        0.413361    1.447448    2.521827
     22          1           0        2.333195    0.178771    2.072345
     23          1           0        1.077592   -1.034608    1.748755
     24          1           0        0.451939    0.064378   -1.381678
 ---------------------------------------------------------------------

 SCF Done:  E(UB3LYP) =  -1333.35674447     A.U. after   23 cycles

 The electronic state is 2-A.
 Alpha  occ. eigenvalues --  -88.96776 -88.63780 -19.04905 -19.02030 -19.01777
 Alpha  occ. eigenvalues --  -19.01546 -10.12209 -10.11058 -10.07150 -10.04098
 Alpha  occ. eigenvalues --  -10.03773 -10.03450  -8.02856  -7.72564  -5.99230
 Alpha  occ. eigenvalues --   -5.99070  -5.98899  -5.68866  -5.68464  -5.68186
 Alpha  occ. eigenvalues --   -1.03784  -0.94200  -0.92184  -0.91196  -0.70404
 Alpha  occ. eigenvalues --   -0.66676  -0.61363  -0.57311  -0.54851  -0.51982
 Alpha  occ. eigenvalues --   -0.47202  -0.43932  -0.42906  -0.40220  -0.37982
 Alpha  occ. eigenvalues --   -0.35869  -0.34972  -0.33341  -0.33048  -0.31449
 Alpha  occ. eigenvalues --   -0.31247  -0.29079  -0.27660  -0.26048  -0.25322
 Alpha  occ. eigenvalues --   -0.25070  -0.23146  -0.22298  -0.21962  -0.21451
 Alpha  occ. eigenvalues --   -0.21180  -0.20602  -0.19871  -0.17400  -0.10916
 Alpha  occ. eigenvalues --   -0.07053   0.03955
 Alpha virt. eigenvalues --    0.07471   0.08736   0.10207   0.10688   0.11256
 Alpha virt. eigenvalues --    0.11817   0.12528   0.13336   0.13739   0.14229
 Alpha virt. eigenvalues --    0.15252   0.15677   0.16024   0.16345   0.16783

  Beta  occ. eigenvalues --  -88.96773 -88.63737 -19.04877 -19.01770 -19.01758
  Beta  occ. eigenvalues --  -19.01545 -10.12216 -10.11024 -10.06080 -10.04004
  Beta  occ. eigenvalues --  -10.03775 -10.03527  -8.02853  -7.72526  -5.99228
  Beta  occ. eigenvalues --   -5.99068  -5.98897  -5.68880  -5.68305  -5.68146
  Beta  occ. eigenvalues --   -1.03759  -0.93514  -0.92120  -0.91182  -0.70163
  Beta  occ. eigenvalues --   -0.66376  -0.60723  -0.57108  -0.54622  -0.51893
  Beta  occ. eigenvalues --   -0.46970  -0.43882  -0.42602  -0.40180  -0.37834
  Beta  occ. eigenvalues --   -0.35550  -0.34668  -0.33207  -0.32697  -0.31275
  Beta  occ. eigenvalues --   -0.31106  -0.28530  -0.27429  -0.25896  -0.25162
  Beta  occ. eigenvalues --   -0.23678  -0.23086  -0.22154  -0.21753  -0.21300
  Beta  occ. eigenvalues --   -0.21091  -0.20409  -0.19386  -0.16912  -0.09107
  Beta  occ. eigenvalues --   -0.06876
  Beta virt. eigenvalues --    0.07520   0.08439   0.09971   0.10598   0.11133
  Beta virt. eigenvalues --    0.11806   0.12411   0.13172   0.13464   0.14065
  Beta virt. eigenvalues --    0.14252   0.15255   0.15624   0.16004   0.16337

 Mulliken charges and spin densities:
               1          2
     1  C   -0.610613  -0.028157
     2  C   -0.019953  -0.075829
     3  C   -0.142478  -0.108375
     4  C    0.040681   0.577547
     5  S   -0.696494   0.192449
     6  O    0.123741   0.047206
     7  C   -0.507180   0.087644
     8  C   -0.441406  -0.181012
     9  S    0.367567  -0.085591
    10  O   -0.179384   0.010084
    11  O   -0.214910  -0.009563
    12  O   -0.085978  -0.011497
    13  H    0.213296   0.006953
    14  H    0.102406   0.004588
    15  H    0.108815  -0.003118
    16  H    0.131210  -0.025519
    17  H   -0.039157   0.165246
    18  H    0.060382   0.102871
    19  H    0.085222   0.030271
    20  H    0.242387  -0.022848
    21  H    0.068301   0.072118
    22  H    0.050647   0.141386
    23  H    0.259525   0.021947
    24  H    0.083375   0.091199
 Sum of Mulliken charges =  -1.00000   1.00000

 Dipole moment (field-independent basis, Debye):
    X=              1.0734    Y=             -2.2033    Z=              4.2922  Tot=              4.9427
 Quadrupole moment (field-independent basis, Debye-Ang):
   XX=           -131.3485   YY=           -112.1302   ZZ=            -98.9209
   XY=              6.8619   XZ=              2.6034   YZ=              4.8662

 Summary of Natural Population Analysis:

                                       Natural Population
                Natural  -----------------------------------------------
    Atom  No    Charge         Core      Valence    Rydberg      Total
 -----------------------------------------------------------------------
      C    1   -0.29162      0.99967     2.28645    0.00550     3.29162
      C    2   -0.17441      0.99964     2.16689    0.00788     3.17441
      C    3   -0.23052      0.99958     2.22040    0.01054     3.23052
      C    4    0.31959      0.99963     1.66003    0.02075     2.68041
      S    5   -0.15895      4.99951     3.14548    0.01396     8.15895
      O    6   -0.26248      0.99983     3.24984    0.01280     4.26248
      C    7   -0.03493      0.99955     2.02154    0.01384     3.03493
      C    8   -0.30061      0.99956     2.29015    0.01091     3.30061
      S    9    1.12617      4.99939     1.76947    0.10497     6.87383
      O   10   -0.45784      0.99990     3.45172    0.00621     4.45784
      O   11   -0.45992      0.99990     3.45377    0.00625     4.45992
      O   12   -0.45303      0.99990     3.44610    0.00703     4.45303
      H   13    0.10910      0.00000     0.38994    0.00096     0.39090
      H   14    0.09039      0.00000     0.40891    0.00070     0.40961
      H   15    0.09020      0.00000     0.40900    0.00080     0.40980
      H   16    0.09926      0.00000     0.39985    0.00089     0.40074
      H   17    0.08518      0.00000     0.41287    0.00195     0.41482
      H   18    0.11036      0.00000     0.38853    0.00111     0.38964
      H   19    0.09545      0.00000     0.40303    0.00152     0.40455
      H   20    0.11629      0.00000     0.38212    0.00159     0.38371
      H   21    0.09036      0.00000     0.40821    0.00143     0.40964
      H   22    0.11259      0.00000     0.38568    0.00173     0.38741
      H   23    0.12021      0.00000     0.37823    0.00157     0.37979
      H   24    0.25916      0.00000     0.23525    0.00559     0.24084
 =======================================================================
   * Total *   -0.00000     19.99607    35.76345    0.24048    56.00000

 Normal termination of Gaussian 16 at Wed Dec  9 18:26:22 2020.
