 Gaussian 16, Revision A.03,

 -----------------------------------------------------------
 # opt freq B3LYP/6-31G(d) empiricaldispersion=gd3bj scf=xqc
 -----------------------------------------------------------

 ------------------------------
 CID_116943165_JID_396_neutraal
 ------------------------------
 Symbolic Z-matrix:
 Charge =  0 Multiplicity = 1

 SCF Done:  E(RB3LYP) =  -445.054015834     A.U. after   13 cycles
 SCF Done:  E(RB3LYP) =  -445.057961010     A.U. after   11 cycles
 SCF Done:  E(RB3LYP) =  -445.058376297     A.U. after   10 cycles
 SCF Done:  E(RB3LYP) =  -445.058620963     A.U. after   11 cycles
 SCF Done:  E(RB3LYP) =  -445.058734728     A.U. after   10 cycles
 SCF Done:  E(RB3LYP) =  -445.058736280     A.U. after   10 cycles
 SCF Done:  E(RB3LYP) =  -445.058756791     A.U. after    9 cycles
 SCF Done:  E(RB3LYP) =  -445.058759875     A.U. after    7 cycles
 SCF Done:  E(RB3LYP) =  -445.058759366     A.U. after    7 cycles
 SCF Done:  E(RB3LYP) =  -445.058758852     A.U. after    7 cycles
 SCF Done:  E(RB3LYP) =  -445.058759637     A.U. after    8 cycles
 SCF Done:  E(RB3LYP) =  -445.058758302     A.U. after    8 cycles
 SCF Done:  E(RB3LYP) =  -445.058759552     A.U. after    7 cycles
 SCF Done:  E(RB3LYP) =  -445.058758384     A.U. after    7 cycles
 SCF Done:  E(RB3LYP) =  -445.058759487     A.U. after    7 cycles
 SCF Done:  E(RB3LYP) =  -445.058758417     A.U. after    7 cycles
 Optimization completed on the basis of negligible forces.
    -- Stationary point found.
 Normal termination of Gaussian 16 at Sun Dec 13 20:05:34 2020.

 --------------------------------------------------------------------
 #N Geom=AllCheck Guess=TCheck SCRF=Check GenChk RB3LYP/6-31G(d) Freq
 --------------------------------------------------------------------

 Structure from the checkpoint file:  "JID_396.chk"
 ------------------------------
 CID_116943165_JID_396_neutraal
 ------------------------------
 Charge =  0 Multiplicity = 1

 SCF Done:  E(RB3LYP) =  -445.058758417     A.U. after    1 cycles

  Exact polarizability:  97.868   3.971  86.496   0.408  -1.327  89.337
 Approx polarizability: 125.488   4.677 126.665   0.030  -0.766 129.659

                      1                      2                      3
                      A                      A                      A
 Frequencies --     59.3403                88.8190               109.9939
 Red. masses --      3.9937                 3.0067                 2.4684
 Frc consts  --      0.0083                 0.0140                 0.0176
 IR Inten    --      1.5619                 0.6578                 0.7406

                      4                      5                      6
                      A                      A                      A
 Frequencies --    150.2688               183.3109               206.8776
 Red. masses --      1.9529                 2.6413                 2.4656
 Frc consts  --      0.0260                 0.0523                 0.0622
 IR Inten    --      0.5331                 0.5387                 0.8237

                      7                      8                      9
                      A                      A                      A
 Frequencies --    232.4114               263.0715               281.0255
 Red. masses --      1.7497                 1.8381                 1.6969
 Frc consts  --      0.0557                 0.0749                 0.0790
 IR Inten    --      0.0884                26.2608                10.2235

                     10                     11                     12
                      A                      A                      A
 Frequencies --    304.9888               322.6921               352.7165
 Red. masses --      1.2982                 2.2925                 1.4793
 Frc consts  --      0.0711                 0.1406                 0.1084
 IR Inten    --     28.5481                 1.6948               108.8938

                     13                     14                     15
                      A                      A                      A
 Frequencies --    382.5807               407.0176               466.4298
 Red. masses --      1.8655                 2.5787                 2.5828
 Frc consts  --      0.1609                 0.2517                 0.3311
 IR Inten    --     34.1070                13.4386                 4.6433

                     16                     17                     18
                      A                      A                      A
 Frequencies --    514.5710               579.2479               702.4518
 Red. masses --      3.2548                 3.0799                 2.0694
 Frc consts  --      0.5078                 0.6089                 0.6016
 IR Inten    --      4.2231                 7.8669                20.4935

                     19                     20                     21
                      A                      A                      A
 Frequencies --    778.8073               804.1783               861.9955
 Red. masses --      1.3605                 1.0497                 1.6949
 Frc consts  --      0.4862                 0.4000                 0.7420
 IR Inten    --      3.6552                 2.2403                14.7219

                     22                     23                     24
                      A                      A                      A
 Frequencies --    881.5203               899.8999               943.6057
 Red. masses --      2.5033                 1.5305                 2.4859
 Frc consts  --      1.1461                 0.7303                 1.3041
 IR Inten    --      4.3931               157.8691                25.6620

                     25                     26                     27
                      A                      A                      A
 Frequencies --    946.2610               955.3511               957.1964
 Red. masses --      1.8305                 1.2725                 1.7655
 Frc consts  --      0.9657                 0.6843                 0.9530
 IR Inten    --      4.7047                 0.4193                35.3532

                     28                     29                     30
                      A                      A                      A
 Frequencies --    996.8843              1020.1812              1062.0519
 Red. masses --      2.1774                 1.7363                 1.4252
 Frc consts  --      1.2749                 1.0647                 0.9472
 IR Inten    --     14.4200                14.7172                 8.8877

                     31                     32                     33
                      A                      A                      A
 Frequencies --   1075.1922              1081.1768              1088.6763
 Red. masses --      3.6441                 2.5757                 1.4416
 Frc consts  --      2.4820                 1.7740                 1.0067
 IR Inten    --     74.2913                15.8218                 0.9140

                     34                     35                     36
                      A                      A                      A
 Frequencies --   1095.9086              1111.8600              1161.9562
 Red. masses --      1.3812                 1.7960                 2.2085
 Frc consts  --      0.9774                 1.3081                 1.7568
 IR Inten    --      0.2566                12.3108                 3.9102

                     37                     38                     39
                      A                      A                      A
 Frequencies --   1198.7754              1217.5394              1226.6522
 Red. masses --      1.2854                 1.3828                 1.4262
 Frc consts  --      1.0884                 1.2078                 1.2644
 IR Inten    --      3.3828                 7.4903                 4.4348

                     40                     41                     42
                      A                      A                      A
 Frequencies --   1266.7593              1304.6059              1331.5518
 Red. masses --      1.5405                 1.5742                 1.6518
 Frc consts  --      1.4564                 1.5786                 1.7255
 IR Inten    --      4.4174                10.7918                 0.9476

                     43                     44                     45
                      A                      A                      A
 Frequencies --   1347.5896              1378.0548              1395.5991
 Red. masses --      1.6537                 1.2630                 1.4926
 Frc consts  --      1.7694                 1.4132                 1.7128
 IR Inten    --      3.5079                 5.7564                 1.5640

                     46                     47                     48
                      A                      A                      A
 Frequencies --   1396.5093              1421.1883              1431.7111
 Red. masses --      1.2738                 1.2787                 1.4209
 Frc consts  --      1.4636                 1.5216                 1.7160
 IR Inten    --      3.9903                20.8742                 0.4233

                     49                     50                     51
                      A                      A                      A
 Frequencies --   1444.6769              1452.6681              1495.0752
 Red. masses --      1.2722                 1.4240                 1.0898
 Frc consts  --      1.5644                 1.7704                 1.4353
 IR Inten    --      6.5603                49.0905                 2.5443

                     52                     53                     54
                      A                      A                      A
 Frequencies --   1514.7349              1518.9837              1527.5564
 Red. masses --      1.0821                 1.0706                 1.2027
 Frc consts  --      1.4628                 1.4554                 1.6535
 IR Inten    --      2.8408                 1.5981                 2.1079

                     55                     56                     57
                      A                      A                      A
 Frequencies --   1532.1201              1536.7340              1539.5812
 Red. masses --      1.0667                 1.0709                 1.1553
 Frc consts  --      1.4752                 1.4901                 1.6134
 IR Inten    --      4.8195                 4.1130                 2.7923

                     58                     59                     60
                      A                      A                      A
 Frequencies --   1695.1671              2993.6098              3024.3393
 Red. masses --      1.0907                 1.0723                 1.0826
 Frc consts  --      1.8467                 5.6619                 5.8342
 IR Inten    --     23.6914                74.4780                19.8390

                     61                     62                     63
                      A                      A                      A
 Frequencies --   3044.4468              3046.4358              3050.3680
 Red. masses --      1.0619                 1.0389                 1.0632
 Frc consts  --      5.7989                 5.6809                 5.8289
 IR Inten    --     29.6998                32.6532                 9.0270

                     64                     65                     66
                      A                      A                      A
 Frequencies --   3074.9955              3087.3491              3099.9852
 Red. masses --      1.0968                 1.0912                 1.1013
 Frc consts  --      6.1105                 6.1279                 6.2353
 IR Inten    --     29.4209                36.5942                26.4575

                     67                     68                     69
                      A                      A                      A
 Frequencies --   3111.9933              3113.8599              3137.5013
 Red. masses --      1.1021                 1.1016                 1.0534
 Frc consts  --      6.2883                 6.2933                 6.1098
 IR Inten    --     49.1544                70.4531                17.0393

                     70                     71                     72
                      A                      A                      A
 Frequencies --   3141.4095              3213.3205              3226.3428
 Red. masses --      1.0578                 1.1175                 1.1145
 Frc consts  --      6.1504                 6.7985                 6.8353
 IR Inten    --     15.1895                 0.8027                22.0700

                     73                     74                     75
                      A                      A                      A
 Frequencies --   3453.0790              3540.6787              3739.3876
 Red. masses --      1.0488                 1.0924                 1.0657
 Frc consts  --      7.3684                 8.0686                 8.7799
 IR Inten    --      3.0472                 0.8360                 6.8793

 - Thermochemistry -
 -------------------
 Temperature   298.150 Kelvin.  Pressure   1.00000 Atm.
 Atom     1 has atomic number  6 and mass  12.00000

 Molecular mass:   143.13101 amu.
 Principal axes and moments of inertia in atomic units:
                           1         2         3
     Eigenvalues --  1227.424201858.679161902.10108
           X            0.99972   0.02004  -0.01234
           Y           -0.02195   0.98320  -0.18119
           Z            0.00850   0.18141   0.98337
 This molecule is an asymmetric top.
 Rotational symmetry number  1.
 Warning -- assumption of classical behavior for rotation
           may cause significant error
 Rotational temperatures (Kelvin)      0.07057     0.04660     0.04554
 Rotational constants (GHZ):           1.47035     0.97098     0.94881
 Zero-point vibrational energy     649592.9 (Joules/Mol)
                                  155.25643 (Kcal/Mol)
 Warning -- explicit consideration of  17 degrees of freedom as
           vibrations may cause significant error
 Vibrational temperatures:     85.38   127.79   158.26   216.20   263.74
          (Kelvin)            297.65   334.39   378.50   404.33   438.81
                              464.28   507.48   550.45   585.61   671.09
                              740.35   833.41  1010.67  1120.53  1157.03
                             1240.22  1268.31  1294.76  1357.64  1361.46
                             1374.54  1377.19  1434.29  1467.81  1528.06
                             1546.96  1555.57  1566.36  1576.77  1599.72
                             1671.80  1724.77  1751.77  1764.88  1822.58
                             1877.04  1915.81  1938.88  1982.71  2007.96
                             2009.27  2044.77  2059.91  2078.57  2090.07
                             2151.08  2179.37  2185.48  2197.81  2204.38
                             2211.02  2215.11  2438.97  4307.14  4351.35
                             4380.28  4383.14  4388.80  4424.23  4442.01
                             4460.19  4477.46  4480.15  4514.16  4519.79
                             4623.25  4641.99  4968.21  5094.25  5380.14

 Zero-point correction=                           0.247417 (Hartree/Particle)
 Thermal correction to Energy=                    0.259219
 Thermal correction to Enthalpy=                  0.260163
 Thermal correction to Gibbs Free Energy=         0.210519
 Sum of electronic and zero-point Energies=           -444.811342
 Sum of electronic and thermal Energies=              -444.799539
 Sum of electronic and thermal Enthalpies=            -444.798595
 Sum of electronic and thermal Free Energies=         -444.848240

                     E (Thermal)             CV                S
                      KCal/Mol        Cal/Mol-Kelvin    Cal/Mol-Kelvin
 Total                  162.662             44.691            104.486
 Electronic               0.000              0.000              0.000
 Translational            0.889              2.981             40.787
 Rotational               0.889              2.981             29.852
 Vibrational            160.885             38.730             33.847
 Vibration     1          0.597              1.974              4.479
 Vibration     2          0.602              1.957              3.686
 Vibration     3          0.606              1.941              3.269
 Vibration     4          0.618              1.902              2.669
 Vibration     5          0.631              1.863              2.294
 Vibration     6          0.641              1.830              2.071
 Vibration     7          0.653              1.791              1.860
 Vibration     8          0.670              1.741              1.641
 Vibration     9          0.681              1.709              1.527
 Vibration    10          0.696              1.664              1.389
 Vibration    11          0.708              1.630              1.296
 Vibration    12          0.729              1.570              1.154
 Vibration    13          0.752              1.507              1.029
 Vibration    14          0.772              1.455              0.937
 Vibration    15          0.824              1.325              0.748
 Vibration    16          0.870              1.218              0.623
 Vibration    17          0.936              1.076              0.487

 Optimization completed.
    -- Stationary point found.
 Normal termination of Gaussian 16 at Sun Dec 13 20:11:05 2020.

 ----------------------------------------------------------------------
 # B3LYP/6-311++G(d,p) empiricaldispersion=gd3bj scf=xqc pop=npa geom=c
 heck
 ----------------------------------------------------------------------

 --------------------------------------
 CID_116943165_JID_396_Energie_neutraal
 --------------------------------------
 Structure from the checkpoint file:  "JID_396.chk"
 Charge =  0 Multiplicity = 1

 SCF Done:  E(RB3LYP) =  -445.202384968     A.U. after   13 cycles
 Normal termination of Gaussian 16 at Sun Dec 13 20:13:22 2020.

 ----------------------------------------------------------------------
 # B3LYP/6-311++G(d,p) empiricaldispersion=gd3bj scf=xqc pop=npa geom=c
 heck
 ----------------------------------------------------------------------

 ------------------------------------
 CID_116943165_JID_396_Energie_kation
 ------------------------------------
 Structure from the checkpoint file:  "JID_396.chk"
 Charge =  1 Multiplicity = 2

 SCF Done:  E(UB3LYP) =  -444.877606464     A.U. after   25 cycles
 Normal termination of Gaussian 16 at Sun Dec 13 20:19:31 2020.
 Gaussian 16:  ES64L-G16RevA.03 25-Dec-2016

 ----------------------------------------------------------------------
 # B3LYP/6-311++G(d,p) empiricaldispersion=gd3bj scf=xqc pop=npa geom=c
 heck
 ----------------------------------------------------------------------

 -----------------------------------
 CID_116943165_JID_396_Energie_anion
 -----------------------------------
 Structure from the checkpoint file:  "JID_396.chk"
 Charge = -1 Multiplicity = 2

                         Standard orientation:
 ---------------------------------------------------------------------
 Center     Atomic      Atomic             Coordinates (Angstroms)
 Number     Number       Type             X           Y           Z
 ---------------------------------------------------------------------
      1          6           0       -2.936701   -0.014573    0.873663
      2          6           0       -2.067192   -0.756568   -0.145853
      3          6           0       -1.226845    0.160075   -1.044192
      4          6           0       -0.129965    0.972307   -0.336805
      5          6           0        0.962609    0.126302    0.337046
      6          6           0        1.723956    0.802014    1.457393
      7          6           0        0.759916   -0.311890    1.772903
      8          6           0        1.768903   -0.807982   -0.544355
      9          8           0        1.042820   -1.941322   -1.011717
     10          7           0        0.403455    1.943064   -1.303784
     11          1           0       -2.335054    0.555890    1.589938
     12          1           0       -3.556787   -0.712208    1.447872
     13          1           0       -3.606456    0.694711    0.372494
     14          1           0       -1.414631   -1.467472    0.375450
     15          1           0       -2.717098   -1.362005   -0.790610
     16          1           0       -0.759597   -0.448155   -1.826546
     17          1           0       -1.885685    0.881377   -1.543988
     18          1           0       -0.600061    1.565687    0.459848
     19          1           0        2.787667    0.603431    1.558116
     20          1           0        1.434944    1.815358    1.725372
     21          1           0       -0.176506   -0.056101    2.259285
     22          1           0        1.173127   -1.267661    2.089127
     23          1           0        2.102630   -0.284477   -1.447065
     24          1           0        2.674397   -1.126508   -0.003132
     25          1           0        0.628467   -2.348591   -0.234835
     26          1           0        1.211397    2.417010   -0.900730
     27          1           0        0.744419    1.450744   -2.129161
 ---------------------------------------------------------------------

 SCF Done:  E(UB3LYP) =  -445.185732830     A.U. after   29 cycles

 The electronic state is 2-A.
 Alpha  occ. eigenvalues --  -19.01663 -14.19114 -10.11138 -10.09600 -10.07974
 Alpha  occ. eigenvalues --  -10.06852 -10.06777 -10.06076 -10.05558 -10.05400
 Alpha  occ. eigenvalues --   -0.91842  -0.79562  -0.75214  -0.68252  -0.60692
 Alpha  occ. eigenvalues --   -0.59075  -0.53749  -0.50141  -0.48359  -0.44927
 Alpha  occ. eigenvalues --   -0.40930  -0.39251  -0.37389  -0.35879  -0.35226
 Alpha  occ. eigenvalues --   -0.33440  -0.32870  -0.30701  -0.29310  -0.27688
 Alpha  occ. eigenvalues --   -0.27267  -0.26459  -0.24421  -0.23225  -0.22983
 Alpha  occ. eigenvalues --   -0.22280  -0.19298  -0.18387  -0.16937  -0.14188
 Alpha  occ. eigenvalues --    0.04810
 Alpha virt. eigenvalues --    0.06782   0.07471   0.08058   0.09387   0.09814
 Alpha virt. eigenvalues --    0.09984   0.10867   0.11027   0.12604   0.12864
 Alpha virt. eigenvalues --    0.12963   0.13363   0.13866   0.14489   0.15783

  Beta  occ. eigenvalues --  -19.01644 -14.19097 -10.11109 -10.09590 -10.07975
  Beta  occ. eigenvalues --  -10.06823 -10.06738 -10.06060 -10.05551 -10.05368
  Beta  occ. eigenvalues --   -0.91804  -0.79537  -0.75186  -0.68221  -0.60646
  Beta  occ. eigenvalues --   -0.59010  -0.53697  -0.50039  -0.48306  -0.44879
  Beta  occ. eigenvalues --   -0.40882  -0.39201  -0.37341  -0.35834  -0.35178
  Beta  occ. eigenvalues --   -0.33397  -0.32835  -0.30663  -0.29275  -0.27655
  Beta  occ. eigenvalues --   -0.27233  -0.26415  -0.24393  -0.23199  -0.22946
  Beta  occ. eigenvalues --   -0.22250  -0.19260  -0.18361  -0.16912  -0.14167
  Beta virt. eigenvalues --    0.07159   0.07644   0.08448   0.08598   0.10168
  Beta virt. eigenvalues --    0.10224   0.10528   0.11299   0.11486   0.13011
  Beta virt. eigenvalues --    0.13247   0.13506   0.13842   0.14185   0.14744

 Mulliken charges and spin densities:
               1          2
     1  C    1.033693  -1.639994
     2  C   -0.924555   0.773306
     3  C   -0.013878  -0.296985
     4  C    1.641733  -1.778075
     5  C   -3.821512   4.115793
     6  C    1.171051  -1.607375
     7  C    1.362885  -1.802022
     8  C    1.321166  -1.970137
     9  O   -0.226681   0.045754
    10  N   -0.355228   0.066748
    11  H   -0.224056   0.350536
    12  H   -0.545766   0.687897
    13  H    0.028207   0.093355
    14  H   -0.077195   0.175202
    15  H   -0.295287   0.460732
    16  H    0.258208  -0.068922
    17  H    0.031213   0.136249
    18  H    0.272915  -0.038682
    19  H   -0.429786   0.595598
    20  H   -0.223371   0.352931
    21  H   -0.018409   0.153533
    22  H   -0.587472   0.763342
    23  H   -0.099541   0.263024
    24  H   -0.457763   0.641850
    25  H    0.039609   0.203754
    26  H    0.015484   0.211612
    27  H    0.124338   0.110973
 Sum of Mulliken charges =  -1.00000   1.00000

 Dipole moment (field-independent basis, Debye):
    X=             -0.9126    Y=              2.1356    Z=             -3.5568  Tot=              4.2479
 Quadrupole moment (field-independent basis, Debye-Ang):
   XX=           -121.1258   YY=           -106.3731   ZZ=           -105.9819
   XY=              1.8212   XZ=             -0.3592   YZ=              3.6540

 Summary of Natural Population Analysis:

                                       Natural Population
                Natural  -----------------------------------------------
    Atom  No    Charge         Core      Valence    Rydberg      Total
 -----------------------------------------------------------------------
      C    1   -0.28546      0.99966     2.28055    0.00524     3.28546
      C    2   -0.18960      0.99964     2.18132    0.00865     3.18960
      C    3   -0.19215      0.99960     2.18397    0.00858     3.19215
      C    4   -0.00814      0.99954     1.99516    0.01344     3.00814
      C    5   -0.06830      0.99952     2.05234    0.01644     3.06830
      C    6   -0.19339      0.99958     2.18370    0.01011     3.19339
      C    7   -0.19725      0.99957     2.18648    0.01120     3.19725
      C    8   -0.00636      0.99951     1.99265    0.01419     3.00636
      O    9   -0.37113      0.99990     3.36464    0.00658     4.37113
      N   10   -0.42028      0.99977     2.91073    0.00978     3.92028
      H   11    0.09542      0.00000     0.40326    0.00131     0.40458
      H   12    0.10041      0.00000     0.39826    0.00133     0.39959
      H   13    0.09352      0.00000     0.40547    0.00101     0.40648
      H   14    0.09416      0.00000     0.40397    0.00187     0.40584
      H   15    0.09413      0.00000     0.40487    0.00100     0.40587
      H   16    0.10470      0.00000     0.39391    0.00140     0.39530
      H   17    0.09740      0.00000     0.40131    0.00129     0.40260
      H   18    0.09100      0.00000     0.40666    0.00234     0.40900
      H   19    0.10538      0.00000     0.39279    0.00183     0.39462
      H   20    0.10191      0.00000     0.39684    0.00125     0.39809
      H   21    0.10620      0.00000     0.39213    0.00168     0.39380
      H   22    0.10617      0.00000     0.39124    0.00259     0.39383
      H   23    0.08529      0.00000     0.41314    0.00157     0.41471
      H   24    0.08277      0.00000     0.41503    0.00220     0.41723
      H   25    0.22873      0.00000     0.26710    0.00417     0.27127
      H   26    0.17462      0.00000     0.32357    0.00181     0.32538
      H   27    0.17025      0.00000     0.32785    0.00190     0.32975
 =======================================================================
   * Total *   -0.00000      9.99629    29.86895    0.13476    40.00000

 Normal termination of Gaussian 16 at Sun Dec 13 20:26:37 2020.
