 Gaussian 16, Revision A.03,

 -----------------------------------------------------------
 # opt freq B3LYP/6-31G(d) empiricaldispersion=gd3bj scf=xqc
 -----------------------------------------------------------

 ------------------------------
 CID_57119046_JID_3841_neutraal
 ------------------------------
 Symbolic Z-matrix:
 Charge =  0 Multiplicity = 1

 SCF Done:  E(RB3LYP) =  -581.707902756     A.U. after   14 cycles
 SCF Done:  E(RB3LYP) =  -581.712062827     A.U. after   12 cycles
 SCF Done:  E(RB3LYP) =  -581.711408506     A.U. after   12 cycles
 SCF Done:  E(RB3LYP) =  -581.712967959     A.U. after   12 cycles
 SCF Done:  E(RB3LYP) =  -581.714121623     A.U. after   13 cycles
 SCF Done:  E(RB3LYP) =  -581.715524207     A.U. after   13 cycles
 SCF Done:  E(RB3LYP) =  -581.716279188     A.U. after   13 cycles
 SCF Done:  E(RB3LYP) =  -581.717143098     A.U. after   13 cycles
 SCF Done:  E(RB3LYP) =  -581.718814490     A.U. after   13 cycles
 SCF Done:  E(RB3LYP) =  -581.721131471     A.U. after   15 cycles
 SCF Done:  E(RB3LYP) =  -581.727997668     A.U. after   11 cycles
 SCF Done:  E(RB3LYP) =  -581.728006869     A.U. after   10 cycles
 SCF Done:  E(RB3LYP) =  -581.728005261     A.U. after    9 cycles
 SCF Done:  E(RB3LYP) =  -581.728006938     A.U. after    9 cycles
 SCF Done:  E(RB3LYP) =  -581.728006972     A.U. after    6 cycles
 Optimization completed.
    -- Stationary point found.
 Normal termination of Gaussian 16 at Thu Dec 10 00:40:48 2020.

 --------------------------------------------------------------------
 #N Geom=AllCheck Guess=TCheck SCRF=Check GenChk RB3LYP/6-31G(d) Freq
 --------------------------------------------------------------------

 Structure from the checkpoint file:  "JID_3841.chk"
 ------------------------------
 CID_57119046_JID_3841_neutraal
 ------------------------------
 Charge =  0 Multiplicity = 1

 SCF Done:  E(RB3LYP) =  -581.728006972     A.U. after    1 cycles

  Exact polarizability: 139.814  -0.348 110.592   4.741  -1.847 101.683
 Approx polarizability: 156.775   1.329 184.059   3.113  -6.047 148.616

                      1                      2                      3
                      A                      A                      A
 Frequencies --     20.1411                24.6594                34.5237
 Red. masses --      3.8551                 3.9107                 3.3962
 Frc consts  --      0.0009                 0.0014                 0.0024
 IR Inten    --      0.4095                 0.2053                 0.2916

                      4                      5                      6
                      A                      A                      A
 Frequencies --     43.4065                49.2413                82.9698
 Red. masses --      3.0688                 4.2897                 4.5311
 Frc consts  --      0.0034                 0.0061                 0.0184
 IR Inten    --      0.5662                 4.5577                 0.1480

                      7                      8                      9
                      A                      A                      A
 Frequencies --    119.1436               124.0989               155.7901
 Red. masses --      1.8017                 1.3166                 2.0573
 Frc consts  --      0.0151                 0.0119                 0.0294
 IR Inten    --      0.9070                 0.4979                 0.5212

                     10                     11                     12
                      A                      A                      A
 Frequencies --    193.8191               223.7845               271.3712
 Red. masses --      2.9197                 1.9121                 1.7955
 Frc consts  --      0.0646                 0.0564                 0.0779
 IR Inten    --      2.3742                 8.1029                 0.5040

                     13                     14                     15
                      A                      A                      A
 Frequencies --    294.6807               313.7243               329.2114
 Red. masses --      2.2622                 2.1006                 2.2911
 Frc consts  --      0.1157                 0.1218                 0.1463
 IR Inten    --      5.5380                 2.8747                 1.6107

                     16                     17                     18
                      A                      A                      A
 Frequencies --    364.6773               401.2056               439.9186
 Red. masses --      2.2752                 2.2436                 2.2894
 Frc consts  --      0.1783                 0.2128                 0.2610
 IR Inten    --      2.2037                 5.6130                 0.8231

                     19                     20                     21
                      A                      A                      A
 Frequencies --    472.5774               473.9738               504.2004
 Red. masses --      2.1907                 2.0647                 2.6282
 Frc consts  --      0.2883                 0.2733                 0.3936
 IR Inten    --      0.2534                 1.5306                 1.2375

                     22                     23                     24
                      A                      A                      A
 Frequencies --    603.4662               633.4107               710.4276
 Red. masses --      3.1956                 2.5995                 1.5121
 Frc consts  --      0.6857                 0.6145                 0.4496
 IR Inten    --      8.2476                 0.4669                13.8562

                     25                     26                     27
                      A                      A                      A
 Frequencies --    752.4613               771.5260               788.1682
 Red. masses --      1.7185                 2.0629                 2.2873
 Frc consts  --      0.5733                 0.7235                 0.8372
 IR Inten    --      7.2054                 1.7917                 1.7335

                     28                     29                     30
                      A                      A                      A
 Frequencies --    816.9949               858.2352               872.5370
 Red. masses --      1.6903                 2.0757                 1.8561
 Frc consts  --      0.6648                 0.9008                 0.8326
 IR Inten    --     11.3968                 2.4903                 0.3948

                     31                     32                     33
                      A                      A                      A
 Frequencies --    902.7758               924.4904               947.0780
 Red. masses --      2.1980                 1.7693                 1.8116
 Frc consts  --      1.0554                 0.8910                 0.9574
 IR Inten    --      4.9738                 5.9998                 7.9750

                     34                     35                     36
                      A                      A                      A
 Frequencies --    979.1050               998.9347              1024.8249
 Red. masses --      1.9093                 1.7683                 1.6763
 Frc consts  --      1.0784                 1.0396                 1.0373
 IR Inten    --      4.7545                 1.1044                 6.5346

                     37                     38                     39
                      A                      A                      A
 Frequencies --   1054.0937              1065.3660              1072.4927
 Red. masses --      2.0030                 1.5841                 1.4928
 Frc consts  --      1.3112                 1.0593                 1.0117
 IR Inten    --     19.7031                28.9111                 5.5720

                     40                     41                     42
                      A                      A                      A
 Frequencies --   1083.6963              1123.6058              1137.3379
 Red. masses --      1.7075                 2.3269                 2.6004
 Frc consts  --      1.1815                 1.7308                 1.9818
 IR Inten    --      1.6210                 3.9908                 0.2953

                     43                     44                     45
                      A                      A                      A
 Frequencies --   1154.8705              1182.5756              1201.2248
 Red. masses --      1.9292                 1.5201                 1.3975
 Frc consts  --      1.5160                 1.2525                 1.1881
 IR Inten    --     34.7486                10.1138                50.5085

                     46                     47                     48
                      A                      A                      A
 Frequencies --   1211.4050              1239.9886              1269.0858
 Red. masses --      1.8164                 1.2785                 1.2872
 Frc consts  --      1.5705                 1.1582                 1.2215
 IR Inten    --     28.4075                 1.7848                 2.1394

                     49                     50                     51
                      A                      A                      A
 Frequencies --   1291.2615              1313.8114              1341.5129
 Red. masses --      1.3034                 1.2571                 1.1735
 Frc consts  --      1.2805                 1.2784                 1.2443
 IR Inten    --     14.2640                13.0481                 1.4844

                     52                     53                     54
                      A                      A                      A
 Frequencies --   1378.4614              1389.6603              1392.8027
 Red. masses --      1.4120                 1.3902                 1.5231
 Frc consts  --      1.5808                 1.5818                 1.7409
 IR Inten    --      4.6008                 9.6697                11.7538

                     55                     56                     57
                      A                      A                      A
 Frequencies --   1399.1202              1409.5880              1415.4987
 Red. masses --      1.3978                 1.4001                 1.5226
 Frc consts  --      1.6122                 1.6390                 1.7974
 IR Inten    --     12.3550                35.0558                 3.4246

                     58                     59                     60
                      A                      A                      A
 Frequencies --   1422.8708              1423.6040              1440.1291
 Red. masses --      1.5135                 1.5646                 1.2678
 Frc consts  --      1.8054                 1.8683                 1.5492
 IR Inten    --     26.5812                 7.2153                 6.2231

                     61                     62                     63
                      A                      A                      A
 Frequencies --   1479.5903              1482.1584              1487.7543
 Red. masses --      1.0820                 1.0864                 1.0913
 Frc consts  --      1.3955                 1.4061                 1.4231
 IR Inten    --      1.2538                21.3700                 4.1881

                     64                     65                     66
                      A                      A                      A
 Frequencies --   1494.8576              1505.4073              1513.4047
 Red. masses --      1.0562                 1.0522                 1.0757
 Frc consts  --      1.3906                 1.4050                 1.4516
 IR Inten    --     11.8571                 9.3116                 4.5797

                     67                     68                     69
                      A                      A                      A
 Frequencies --   1517.2441              1518.7662              1529.9014
 Red. masses --      1.0818                 1.0802                 1.0500
 Frc consts  --      1.4672                 1.4680                 1.4481
 IR Inten    --     13.1824                 4.6807                 6.2303

                     70                     71                     72
                      A                      A                      A
 Frequencies --   1534.4533              1542.2527              1807.0337
 Red. masses --      1.0919                 1.0510                10.3221
 Frc consts  --      1.5148                 1.4728                19.8588
 IR Inten    --      6.9409                 5.4581                83.0601

                     73                     74                     75
                      A                      A                      A
 Frequencies --   1816.3603              3015.3886              3020.5093
 Red. masses --     10.0407                 1.0629                 1.0666
 Frc consts  --     19.5172                 5.6941                 5.7333
 IR Inten    --    122.6326                26.3949                19.5966

                     76                     77                     78
                      A                      A                      A
 Frequencies --   3022.0678              3044.5887              3046.2274
 Red. masses --      1.0691                 1.0665                 1.0426
 Frc consts  --      5.7526                 5.8249                 5.7004
 IR Inten    --      8.7772                53.8547                21.5162

                     79                     80                     81
                      A                      A                      A
 Frequencies --   3047.8068              3049.0407              3050.0400
 Red. masses --      1.0419                 1.0751                 1.0807
 Frc consts  --      5.7024                 5.8887                 5.9234
 IR Inten    --      2.0311                 2.4647                23.6550

                     82                     83                     84
                      A                      A                      A
 Frequencies --   3057.1030              3064.8016              3067.6374
 Red. masses --      1.0726                 1.0860                 1.0894
 Frc consts  --      5.9064                 6.0099                 6.0402
 IR Inten    --     33.0255                17.2922                27.3142

                     85                     86                     87
                      A                      A                      A
 Frequencies --   3072.4160              3095.9802              3099.2127
 Red. masses --      1.0658                 1.0975                 1.0939
 Frc consts  --      5.9275                 6.1977                 6.1905
 IR Inten    --      4.2218                 7.7503                28.5523

                     88                     89                     90
                      A                      A                      A
 Frequencies --   3103.6678              3106.2933              3113.8156
 Red. masses --      1.0950                 1.0985                 1.1041
 Frc consts  --      6.2144                 6.2452                 6.3075
 IR Inten    --     32.0182                11.3623                31.6338

                     91                     92                     93
                      A                      A                      A
 Frequencies --   3113.9800              3135.1065              3166.1965
 Red. masses --      1.1005                 1.1018                 1.1020
 Frc consts  --      6.2872                 6.3806                 6.5087
 IR Inten    --     55.3505                32.8852                11.5964

 - Thermochemistry -
 -------------------
 Temperature   298.150 Kelvin.  Pressure   1.00000 Atm.
 Atom     1 has atomic number  6 and mass  12.00000

 Molecular mass:   184.14633 amu.
 Principal axes and moments of inertia in atomic units:
                           1         2         3
     Eigenvalues --   796.383017100.237707178.09883
           X            0.99998  -0.00299   0.00597
           Y            0.00310   0.99981  -0.01907
           Z           -0.00591   0.01909   0.99980
 This molecule is an asymmetric top.
 Rotational symmetry number  1.
 Warning -- assumption of classical behavior for rotation
           may cause significant error
 Rotational temperatures (Kelvin)      0.10876     0.01220     0.01207
 Rotational constants (GHZ):           2.26617     0.25418     0.25142
 Zero-point vibrational energy     775519.2 (Joules/Mol)
                                  185.35353 (Kcal/Mol)
 Warning -- explicit consideration of  22 degrees of freedom as
           vibrations may cause significant error
 Vibrational temperatures:     28.98    35.48    49.67    62.45    70.85
          (Kelvin)            119.38   171.42   178.55   224.15   278.86
                              321.98   390.44   423.98   451.38   473.66
                              524.69   577.25   632.94   679.93   681.94
                              725.43   868.25   911.34  1022.15  1082.62
                             1110.05  1134.00  1175.47  1234.81  1255.39
                             1298.89  1330.14  1362.63  1408.71  1437.24
                             1474.49  1516.61  1532.82  1543.08  1559.20
                             1616.62  1636.38  1661.60  1701.46  1728.29
                             1742.94  1784.07  1825.93  1857.84  1890.28
                             1930.14  1983.30  1999.41  2003.93  2013.02
                             2028.08  2036.59  2047.19  2048.25  2072.02
                             2128.80  2132.50  2140.55  2150.77  2165.95
                             2177.45  2182.98  2185.17  2201.19  2207.74
                             2218.96  2599.92  2613.34  4338.47  4345.84
                             4348.08  4380.48  4382.84  4385.11  4386.89
                             4388.33  4398.49  4409.57  4413.65  4420.52
                             4454.43  4459.08  4465.49  4469.26  4480.09
                             4480.32  4510.72  4555.45

 Zero-point correction=                           0.295380 (Hartree/Particle)
 Thermal correction to Energy=                    0.311278
 Thermal correction to Enthalpy=                  0.312222
 Thermal correction to Gibbs Free Energy=         0.248900
 Sum of electronic and zero-point Energies=           -581.432627
 Sum of electronic and thermal Energies=              -581.416729
 Sum of electronic and thermal Enthalpies=            -581.415785
 Sum of electronic and thermal Free Energies=         -581.479107

                     E (Thermal)             CV                S
                      KCal/Mol        Cal/Mol-Kelvin    Cal/Mol-Kelvin
 Total                  195.330             56.466            133.274
 Electronic               0.000              0.000              0.000
 Translational            0.889              2.981             41.538
 Rotational               0.889              2.981             32.073
 Vibrational            193.553             50.505             59.662
 Vibration     1          0.593              1.986              6.620
 Vibration     2          0.593              1.985              6.218
 Vibration     3          0.594              1.983              5.551
 Vibration     4          0.595              1.980              5.097
 Vibration     5          0.595              1.978              4.848
 Vibration     6          0.600              1.961              3.819
 Vibration     7          0.609              1.933              3.114
 Vibration     8          0.610              1.929              3.036
 Vibration     9          0.620              1.896              2.600
 Vibration    10          0.635              1.848              2.191
 Vibration    11          0.649              1.805              1.928
 Vibration    12          0.675              1.726              1.587
 Vibration    13          0.689              1.684              1.447
 Vibration    14          0.702              1.647              1.343
 Vibration    15          0.712              1.617              1.264
 Vibration    16          0.738              1.545              1.102
 Vibration    17          0.767              1.468              0.958
 Vibration    18          0.800              1.383              0.827
 Vibration    19          0.829              1.311              0.730
 Vibration    20          0.831              1.308              0.727
 Vibration    21          0.859              1.241              0.648
 Vibration    22          0.962              1.024              0.444

 Optimization completed.
    -- Stationary point found.
 Normal termination of Gaussian 16 at Thu Dec 10 00:48:53 2020.

 ----------------------------------------------------------------------
 # B3LYP/6-311++G(d,p) empiricaldispersion=gd3bj scf=xqc pop=npa geom=c
 heck
 ----------------------------------------------------------------------

 --------------------------------------
 CID_57119046_JID_3841_Energie_neutraal
 --------------------------------------
 Structure from the checkpoint file:  "JID_3841.chk"
 Charge =  0 Multiplicity = 1

 SCF Done:  E(RB3LYP) =  -581.898231645     A.U. after   14 cycles
 Normal termination of Gaussian 16 at Thu Dec 10 00:52:55 2020.

 ----------------------------------------------------------------------
 # B3LYP/6-311++G(d,p) empiricaldispersion=gd3bj scf=xqc pop=npa geom=c
 heck
 ----------------------------------------------------------------------

 ------------------------------------
 CID_57119046_JID_3841_Energie_kation
 ------------------------------------
 Structure from the checkpoint file:  "JID_3841.chk"
 Charge =  1 Multiplicity = 2

 SCF Done:  E(UB3LYP) =  -581.581393794     A.U. after   23 cycles
 Normal termination of Gaussian 16 at Thu Dec 10 01:02:28 2020.
 Gaussian 16:  ES64L-G16RevA.03 25-Dec-2016

 ----------------------------------------------------------------------
 # B3LYP/6-311++G(d,p) empiricaldispersion=gd3bj scf=xqc pop=npa geom=c
 heck
 ----------------------------------------------------------------------

 -----------------------------------
 CID_57119046_JID_3841_Energie_anion
 -----------------------------------
 Structure from the checkpoint file:  "JID_3841.chk"
 Charge = -1 Multiplicity = 2

                         Standard orientation:
 ---------------------------------------------------------------------
 Center     Atomic      Atomic             Coordinates (Angstroms)
 Number     Number       Type             X           Y           Z
 ---------------------------------------------------------------------
      1          6           0        5.204157    0.108427   -0.424644
      2          6           0        4.340399    0.351241    0.815916
      3          6           0        2.956008    0.907085    0.477300
      4          6           0        2.034379   -0.091906   -0.210741
      5          8           0        2.275112   -1.285610   -0.228272
      6          6           0        0.792969    0.486781   -0.878242
      7          6           0       -0.317465   -0.538301   -1.125720
      8          6           0       -0.935610   -1.127506    0.152165
      9          6           0       -1.508381   -0.102625    1.144101
     10          6           0       -2.569148    0.830065    0.553611
     11          6           0       -3.857096    0.126240    0.141889
     12          8           0       -4.133405   -0.993849    0.528215
     13          6           0       -4.787423    0.907384   -0.768684
     14          1           0        4.735285   -0.626494   -1.085934
     15          1           0        6.193107   -0.272527   -0.147661
     16          1           0        5.351212    1.036181   -0.992131
     17          1           0        4.214165   -0.588746    1.363833
     18          1           0        4.847394    1.052416    1.490149
     19          1           0        2.431087    1.227794    1.390960
     20          1           0        3.029581    1.810476   -0.145484
     21          1           0        0.436878    1.343958   -0.292196
     22          1           0        1.133170    0.914114   -1.834454
     23          1           0       -1.095140   -0.068177   -1.741368
     24          1           0        0.096162   -1.359463   -1.720273
     25          1           0       -1.733115   -1.821873   -0.132303
     26          1           0       -0.173328   -1.722565    0.666435
     27          1           0       -1.954175   -0.645798    1.983923
     28          1           0       -0.700082    0.510484    1.563281
     29          1           0       -2.858199    1.592361    1.293883
     30          1           0       -2.183763    1.397980   -0.303466
     31          1           0       -4.931361    1.931157   -0.403368
     32          1           0       -4.339540    0.985158   -1.768037
     33          1           0       -5.749737    0.397929   -0.847024
 ---------------------------------------------------------------------

 SCF Done:  E(UB3LYP) =  -581.890337800     A.U. after   33 cycles
 SCF Done:  E(UB3LYP) =  -581.890337800     a.u. after    1 cycles

 The electronic state is 2-A.
 Alpha  occ. eigenvalues --  -19.01617 -19.01424 -10.16238 -10.16236 -10.08144
 Alpha  occ. eigenvalues --  -10.07751 -10.07634 -10.07536 -10.07507 -10.06759
 Alpha  occ. eigenvalues --  -10.06745 -10.06696 -10.06033  -0.94916  -0.94713
 Alpha  occ. eigenvalues --   -0.71574  -0.70382  -0.67835  -0.64902  -0.62223
 Alpha  occ. eigenvalues --   -0.59296  -0.54673  -0.50906  -0.47284  -0.42507
 Alpha  occ. eigenvalues --   -0.41823  -0.39660  -0.39004  -0.37368  -0.37235
 Alpha  occ. eigenvalues --   -0.35251  -0.34890  -0.34376  -0.33576  -0.32457
 Alpha  occ. eigenvalues --   -0.31580  -0.30507  -0.29996  -0.28618  -0.27827
 Alpha  occ. eigenvalues --   -0.27481  -0.26435  -0.25436  -0.25220  -0.24870
 Alpha  occ. eigenvalues --   -0.24648  -0.22909  -0.22412  -0.22190  -0.15632
 Alpha  occ. eigenvalues --   -0.15332   0.03969
 Alpha virt. eigenvalues --    0.05915   0.06346   0.06948   0.07589   0.08512
 Alpha virt. eigenvalues --    0.08610   0.08926   0.09466   0.10261   0.10441
 Alpha virt. eigenvalues --    0.11006   0.11243   0.11305   0.12190   0.12754

  Beta  occ. eigenvalues --  -19.01602 -19.01399 -10.16221 -10.16207 -10.08118
  Beta  occ. eigenvalues --  -10.07742 -10.07609 -10.07497 -10.07475 -10.06745
  Beta  occ. eigenvalues --  -10.06725 -10.06682 -10.06032  -0.94878  -0.94657
  Beta  occ. eigenvalues --   -0.71537  -0.70346  -0.67775  -0.64842  -0.62173
  Beta  occ. eigenvalues --   -0.59245  -0.54614  -0.50855  -0.47234  -0.42424
  Beta  occ. eigenvalues --   -0.41750  -0.39616  -0.38948  -0.37306  -0.37173
  Beta  occ. eigenvalues --   -0.35212  -0.34839  -0.34334  -0.33540  -0.32413
  Beta  occ. eigenvalues --   -0.31535  -0.30466  -0.29961  -0.28570  -0.27778
  Beta  occ. eigenvalues --   -0.27440  -0.26376  -0.25357  -0.25182  -0.24826
  Beta  occ. eigenvalues --   -0.24609  -0.22885  -0.22377  -0.22161  -0.15605
  Beta  occ. eigenvalues --   -0.15302
  Beta virt. eigenvalues --    0.06236   0.06715   0.06843   0.07229   0.08148
  Beta virt. eigenvalues --    0.08759   0.08820   0.09421   0.09787   0.10455
  Beta virt. eigenvalues --    0.10999   0.11226   0.11497   0.11700   0.12444

 Mulliken charges and spin densities:
               1          2
     1  C    0.313973  -0.920601
     2  C   -0.627426   0.418184
     3  C    0.984878  -1.191230
     4  C   -1.153327   1.004965
     5  O   -0.235711   0.003514
     6  C    0.778004  -0.952006
     7  C    0.445444  -0.830858
     8  C   -0.601051   0.620516
     9  C    0.066903  -0.388314
    10  C    0.822148  -1.132315
    11  C   -1.097500   1.274174
    12  O   -0.272732   0.007605
    13  C    1.125581  -1.778071
    14  H    0.027693   0.142128
    15  H    0.026402   0.095373
    16  H   -0.094382   0.222791
    17  H    0.155191  -0.009028
    18  H   -0.127209   0.275697
    19  H   -0.144987   0.312639
    20  H   -0.338970   0.510833
    21  H   -0.091776   0.273908
    22  H   -0.428464   0.639613
    23  H   -0.004182   0.177574
    24  H    0.212819  -0.046258
    25  H    0.095288   0.077872
    26  H    0.102153   0.054439
    27  H    0.189667  -0.014770
    28  H    0.021075   0.141968
    29  H   -0.567779   0.764023
    30  H    0.029364   0.150621
    31  H   -0.434723   0.607920
    32  H   -0.129582   0.289212
    33  H   -0.046780   0.197880
 Sum of Mulliken charges =  -1.00000   1.00000

 Dipole moment (field-independent basis, Debye):
    X=              2.3628    Y=             -3.7783    Z=              0.5490  Tot=              4.4899
 Quadrupole moment (field-independent basis, Debye-Ang):
   XX=           -175.8451   YY=           -126.8946   ZZ=           -111.7441
   XY=              2.6201   XZ=              6.6887   YZ=              0.9870

 Summary of Natural Population Analysis:

                                       Natural Population
                Natural  -----------------------------------------------
    Atom  No    Charge         Core      Valence    Rydberg      Total
 -----------------------------------------------------------------------
      C    1   -0.28805      0.99967     2.28332    0.00507     3.28805
      C    2   -0.19328      0.99965     2.18409    0.00954     3.19328
      C    3   -0.23847      0.99958     2.23028    0.00861     3.23847
      C    4    0.30430      0.99967     1.67423    0.02180     2.69570
      O    5   -0.29517      0.99987     3.28920    0.00610     4.29517
      C    6   -0.24098      0.99958     2.23242    0.00899     3.24098
      C    7   -0.19269      0.99963     2.18332    0.00975     3.19269
      C    8   -0.19383      0.99962     2.18655    0.00766     3.19383
      C    9   -0.19302      0.99963     2.18350    0.00988     3.19302
      C   10   -0.24209      0.99958     2.23328    0.00923     3.24209
      C   11    0.29995      0.99969     1.67945    0.02091     2.70005
      O   12   -0.29133      0.99987     3.28484    0.00661     4.29133
      C   13   -0.33450      0.99962     2.32926    0.00562     3.33450
      H   14    0.10308      0.00000     0.39600    0.00092     0.39692
      H   15    0.09570      0.00000     0.40362    0.00068     0.40430
      H   16    0.09576      0.00000     0.40323    0.00101     0.40424
      H   17    0.10121      0.00000     0.39764    0.00115     0.39879
      H   18    0.09535      0.00000     0.40369    0.00096     0.40465
      H   19    0.11317      0.00000     0.38556    0.00127     0.38683
      H   20    0.10930      0.00000     0.38856    0.00214     0.39070
      H   21    0.10711      0.00000     0.39121    0.00168     0.39289
      H   22    0.11705      0.00000     0.38108    0.00186     0.38295
      H   23    0.09690      0.00000     0.40189    0.00121     0.40310
      H   24    0.10424      0.00000     0.39472    0.00104     0.39576
      H   25    0.10259      0.00000     0.39634    0.00107     0.39741
      H   26    0.10147      0.00000     0.39746    0.00107     0.39853
      H   27    0.10422      0.00000     0.39474    0.00104     0.39578
      H   28    0.09624      0.00000     0.40244    0.00132     0.40376
      H   29    0.11790      0.00000     0.37945    0.00265     0.38210
      H   30    0.10712      0.00000     0.39120    0.00168     0.39288
      H   31    0.11246      0.00000     0.38512    0.00242     0.38754
      H   32    0.11128      0.00000     0.38753    0.00119     0.38872
      H   33    0.10699      0.00000     0.39205    0.00097     0.39301
 =======================================================================
   * Total *    0.00000     12.99564    37.84726    0.15710    51.00000

 Normal termination of Gaussian 16 at Thu Dec 10 01:16:01 2020.
