 Gaussian 16, Revision A.03,

 -----------------------------------------------------------
 # opt freq B3LYP/6-31G(d) empiricaldispersion=gd3bj scf=xqc
 -----------------------------------------------------------

 ------------------------------
 CID_144476600_JID_159_neutraal
 ------------------------------
 Symbolic Z-matrix:
 Charge =  0 Multiplicity = 1

 SCF Done:  E(RB3LYP) =  -481.000685022     A.U. after   15 cycles
 SCF Done:  E(RB3LYP) =  -481.004658548     A.U. after   11 cycles
 SCF Done:  E(RB3LYP) =  -481.005148189     A.U. after   12 cycles
 SCF Done:  E(RB3LYP) =  -481.005121201     A.U. after   13 cycles
 SCF Done:  E(RB3LYP) =  -481.005776553     A.U. after   11 cycles
 SCF Done:  E(RB3LYP) =  -481.006114762     A.U. after   11 cycles
 SCF Done:  E(RB3LYP) =  -481.006391847     A.U. after   11 cycles
 SCF Done:  E(RB3LYP) =  -481.006610848     A.U. after   11 cycles
 SCF Done:  E(RB3LYP) =  -481.006788167     A.U. after   12 cycles
 SCF Done:  E(RB3LYP) =  -481.006859860     A.U. after   11 cycles
 SCF Done:  E(RB3LYP) =  -481.010343813     A.U. after    9 cycles
 SCF Done:  E(RB3LYP) =  -481.010344193     A.U. after    8 cycles
 SCF Done:  E(RB3LYP) =  -481.010344889     A.U. after    8 cycles
 SCF Done:  E(RB3LYP) =  -481.010345209     A.U. after    9 cycles
 SCF Done:  E(RB3LYP) =  -481.010345215     A.U. after    7 cycles
 SCF Done:  E(RB3LYP) =  -481.010345214     A.U. after    6 cycles
 Optimization completed.
    -- Stationary point found.
 Normal termination of Gaussian 16 at Tue Dec  8 11:24:40 2020.

 --------------------------------------------------------------------
 #N Geom=AllCheck Guess=TCheck SCRF=Check GenChk RB3LYP/6-31G(d) Freq
 --------------------------------------------------------------------

 Structure from the checkpoint file:  "JID_159.chk"
 ------------------------------
 CID_144476600_JID_159_neutraal
 ------------------------------
 Charge =  0 Multiplicity = 1

 SCF Done:  E(RB3LYP) =  -481.010345214     A.U. after    1 cycles

  Exact polarizability: 130.226   3.237  72.523   4.652   7.966  79.327
 Approx polarizability: 187.781  10.002  94.246  20.332  14.301 120.995

                      1                      2                      3
                      A                      A                      A
 Frequencies --     16.9545                34.4732                42.6818
 Red. masses --      2.2097                 2.8827                 4.6233
 Frc consts  --      0.0004                 0.0020                 0.0050
 IR Inten    --      0.3314                 0.0336                 1.1441

                      4                      5                      6
                      A                      A                      A
 Frequencies --     65.1327                86.2822                91.8632
 Red. masses --      2.1915                 3.5893                 2.5301
 Frc consts  --      0.0055                 0.0157                 0.0126
 IR Inten    --      0.2671                 0.0970                 0.0030

                      7                      8                      9
                      A                      A                      A
 Frequencies --    115.0624               128.1327               134.9107
 Red. masses --      1.6507                 1.8937                 2.2385
 Frc consts  --      0.0129                 0.0183                 0.0240
 IR Inten    --      1.8360                 2.9708                 1.0817

                     10                     11                     12
                      A                      A                      A
 Frequencies --    156.6548               186.5013               225.3660
 Red. masses --      1.8109                 1.4258                 1.9284
 Frc consts  --      0.0262                 0.0292                 0.0577
 IR Inten    --      5.4543                 0.7574                 2.9611

                     13                     14                     15
                      A                      A                      A
 Frequencies --    295.2501               329.3505               360.9620
 Red. masses --      2.9590                 1.0111                 2.3345
 Frc consts  --      0.1520                 0.0646                 0.1792
 IR Inten    --      1.3970                 0.5361                 9.1972

                     16                     17                     18
                      A                      A                      A
 Frequencies --    392.0108               494.6502               562.8445
 Red. masses --      3.3992                 3.3487                 4.0524
 Frc consts  --      0.3078                 0.4827                 0.7564
 IR Inten    --      5.8932                 2.2031                 4.8889

                     19                     20                     21
                      A                      A                      A
 Frequencies --    566.2005               633.9414               735.7509
 Red. masses --      1.1478                 3.7199                 3.6489
 Frc consts  --      0.2168                 0.8808                 1.1638
 IR Inten    --     88.2668                50.2758                12.8072

                     22                     23                     24
                      A                      A                      A
 Frequencies --    828.9061               837.3676               838.5549
 Red. masses --      1.9412                 1.0713                 1.0773
 Frc consts  --      0.7858                 0.4426                 0.4463
 IR Inten    --     69.7934                 7.0623                 2.4351

                     25                     26                     27
                      A                      A                      A
 Frequencies --    883.5478               927.2912               998.2861
 Red. masses --      3.8912                 4.5341                 1.2113
 Frc consts  --      1.7898                 2.2971                 0.7112
 IR Inten    --      8.7866                48.6993                23.3247

                     28                     29                     30
                      A                      A                      A
 Frequencies --   1012.5200              1098.0595              1136.7479
 Red. masses --      3.2504                 1.4998                 1.3617
 Frc consts  --      1.9633                 1.0655                 1.0367
 IR Inten    --      0.1998                10.7776                57.7409

                     31                     32                     33
                      A                      A                      A
 Frequencies --   1141.6004              1174.1083              1195.2207
 Red. masses --      1.5149                 1.3894                 1.8057
 Frc consts  --      1.1632                 1.1285                 1.5198
 IR Inten    --    106.2881                84.7817               213.0073

                     34                     35                     36
                      A                      A                      A
 Frequencies --   1236.7736              1239.5788              1255.9493
 Red. masses --      1.4616                 1.4580                 1.6833
 Frc consts  --      1.3172                 1.3200                 1.5644
 IR Inten    --      0.1012                 0.1742                47.1988

                     37                     38                     39
                      A                      A                      A
 Frequencies --   1330.8674              1365.8088              1405.3105
 Red. masses --      1.6442                 2.1068                 2.0437
 Frc consts  --      1.7158                 2.3155                 2.3780
 IR Inten    --     25.8933                36.6903               139.2777

                     40                     41                     42
                      A                      A                      A
 Frequencies --   1430.7361              1440.9176              1455.6213
 Red. masses --      1.2090                 3.2868                 1.2671
 Frc consts  --      1.4581                 4.0207                 1.5819
 IR Inten    --      1.3251                56.3679                 1.2990

                     43                     44                     45
                      A                      A                      A
 Frequencies --   1474.5997              1497.7992              1509.1366
 Red. masses --      1.1585                 1.2103                 1.0473
 Frc consts  --      1.4843                 1.5997                 1.4053
 IR Inten    --      5.2970                22.1392                11.8730

                     46                     47                     48
                      A                      A                      A
 Frequencies --   1516.4209              1531.3400              1533.2734
 Red. masses --      1.0452                 1.0317                 1.0236
 Frc consts  --      1.4161                 1.4255                 1.4178
 IR Inten    --      9.5967                 5.4855                 1.1692

                     49                     50                     51
                      A                      A                      A
 Frequencies --   1536.9095              1539.8858              1544.2429
 Red. masses --      1.0588                 1.0627                 1.0510
 Frc consts  --      1.4735                 1.4846                 1.4766
 IR Inten    --      4.9528                13.3650                 5.7848

                     52                     53                     54
                      A                      A                      A
 Frequencies --   1552.0959              1702.8899              1812.6324
 Red. masses --      1.1221                 4.5921                 8.5032
 Frc consts  --      1.5926                 7.8458                16.4609
 IR Inten    --     12.3154               381.9362               534.5980

                     55                     56                     57
                      A                      A                      A
 Frequencies --   3017.4302              3023.7816              3044.7599
 Red. masses --      1.0465                 1.0494                 1.0365
 Frc consts  --      5.6137                 5.6532                 5.6613
 IR Inten    --     34.1609                80.0703                29.4453

                     58                     59                     60
                      A                      A                      A
 Frequencies --   3052.3014              3090.3514              3095.8404
 Red. masses --      1.0373                 1.0920                 1.1003
 Frc consts  --      5.6942                 6.1443                 6.2135
 IR Inten    --     31.0879                47.2279                 8.0839

                     61                     62                     63
                      A                      A                      A
 Frequencies --   3103.9528              3106.2593              3124.7676
 Red. masses --      1.0864                 1.1008                 1.1022
 Frc consts  --      6.1669                 6.2580                 6.3408
 IR Inten    --     29.0041                13.7929                58.2369

                     64                     65                     66
                      A                      A                      A
 Frequencies --   3137.3860              3146.3126              3149.0355
 Red. masses --      1.1016                 1.1021                 1.1029
 Frc consts  --      6.3889                 6.4278                 6.4438
 IR Inten    --     41.0708                 6.7628                22.1324

                     67                     68                     69
                      A                      A                      A
 Frequencies --   3217.0619              3244.3815              3710.9954
 Red. masses --      1.0908                 1.0890                 1.0643
 Frc consts  --      6.6515                 6.7540                 8.6359
 IR Inten    --      1.2743                 4.9140                63.7631

 - Thermochemistry -
 -------------------
 Temperature   298.150 Kelvin.  Pressure   1.00000 Atm.
 Atom     1 has atomic number  6 and mass  12.00000

 Molecular mass:   145.11028 amu.
 Principal axes and moments of inertia in atomic units:
                           1         2         3
     Eigenvalues --  1466.809792236.388193036.08626
           X            0.99882  -0.04800  -0.00771
           Y            0.04803   0.99884   0.00376
           Z            0.00752  -0.00413   0.99996
 This molecule is an asymmetric top.
 Rotational symmetry number  1.
 Warning -- assumption of classical behavior for rotation
           may cause significant error
 Rotational temperatures (Kelvin)      0.05905     0.03873     0.02853
 Rotational constants (GHZ):           1.23039     0.80699     0.59443
 Zero-point vibrational energy     573636.9 (Joules/Mol)
                                  137.10250 (Kcal/Mol)
 Warning -- explicit consideration of  19 degrees of freedom as
           vibrations may cause significant error
 Vibrational temperatures:     24.39    49.60    61.41    93.71   124.14
          (Kelvin)            132.17   165.55   184.35   194.11   225.39
                              268.33   324.25   424.80   473.86   519.34
                              564.02   711.69   809.81   814.64   912.10
                             1058.58  1192.61  1204.79  1206.49  1271.23
                             1334.17  1436.31  1456.79  1579.86  1635.53
                             1642.51  1689.28  1719.66  1779.44  1783.48
                             1807.03  1914.82  1965.09  2021.93  2058.51
                             2073.16  2094.31  2121.62  2155.00  2171.31
                             2181.79  2203.26  2206.04  2211.27  2215.55
                             2221.82  2233.12  2450.08  2607.97  4341.41
                             4350.55  4380.73  4391.58  4446.33  4454.22
                             4465.90  4469.21  4495.84  4514.00  4526.84
                             4530.76  4628.63  4667.94  5339.29

 Zero-point correction=                           0.218487 (Hartree/Particle)
 Thermal correction to Energy=                    0.232984
 Thermal correction to Enthalpy=                  0.233928
 Thermal correction to Gibbs Free Energy=         0.174361
 Sum of electronic and zero-point Energies=           -480.791858
 Sum of electronic and thermal Energies=              -480.777361
 Sum of electronic and thermal Enthalpies=            -480.776417
 Sum of electronic and thermal Free Energies=         -480.835984

                     E (Thermal)             CV                S
                      KCal/Mol        Cal/Mol-Kelvin    Cal/Mol-Kelvin
 Total                  146.200             47.313            125.371
 Electronic               0.000              0.000              0.000
 Translational            0.889              2.981             40.828
 Rotational               0.889              2.981             30.677
 Vibrational            144.422             41.351             53.865
 Vibration     1          0.593              1.986              6.962
 Vibration     2          0.594              1.983              5.554
 Vibration     3          0.595              1.980              5.131
 Vibration     4          0.597              1.971              4.295
 Vibration     5          0.601              1.959              3.743
 Vibration     6          0.602              1.955              3.620
 Vibration     7          0.608              1.937              3.182
 Vibration     8          0.611              1.925              2.974
 Vibration     9          0.613              1.918              2.875
 Vibration    10          0.620              1.895              2.590
 Vibration    11          0.632              1.858              2.262
 Vibration    12          0.650              1.802              1.916
 Vibration    13          0.689              1.683              1.444
 Vibration    14          0.712              1.617              1.263
 Vibration    15          0.735              1.553              1.118
 Vibration    16          0.759              1.487              0.992
 Vibration    17          0.850              1.262              0.672
 Vibration    18          0.919              1.112              0.518
 Vibration    19          0.922              1.104              0.512

 Optimization completed.
    -- Stationary point found.
 Normal termination of Gaussian 16 at Tue Dec  8 11:28:55 2020.

 ----------------------------------------------------------------------
 # B3LYP/6-311++G(d,p) empiricaldispersion=gd3bj scf=xqc pop=npa geom=c
 heck
 ----------------------------------------------------------------------

 --------------------------------------
 CID_144476600_JID_159_Energie_neutraal
 --------------------------------------
 Structure from the checkpoint file:  "JID_159.chk"
 Charge =  0 Multiplicity = 1

 SCF Done:  E(RB3LYP) =  -481.164819155     A.U. after   14 cycles
 Normal termination of Gaussian 16 at Tue Dec  8 11:34:09 2020.

 ----------------------------------------------------------------------
 # B3LYP/6-311++G(d,p) empiricaldispersion=gd3bj scf=xqc pop=npa geom=c
 heck
 ----------------------------------------------------------------------

 ------------------------------------
 CID_144476600_JID_159_Energie_kation
 ------------------------------------
 Structure from the checkpoint file:  "JID_159.chk"
 Charge =  1 Multiplicity = 2

 SCF Done:  E(UB3LYP) =  -480.870081652     A.U. after   21 cycles
 Normal termination of Gaussian 16 at Tue Dec  8 11:38:45 2020.
 Gaussian 16:  ES64L-G16RevA.03 25-Dec-2016

 ----------------------------------------------------------------------
 # B3LYP/6-311++G(d,p) empiricaldispersion=gd3bj scf=xqc pop=npa geom=c
 heck
 ----------------------------------------------------------------------

 -----------------------------------
 CID_144476600_JID_159_Energie_anion
 -----------------------------------
 Structure from the checkpoint file:  "JID_159.chk"
 Charge = -1 Multiplicity = 2

                         Standard orientation:
 ---------------------------------------------------------------------
 Center     Atomic      Atomic             Coordinates (Angstroms)
 Number     Number       Type             X           Y           Z
 ---------------------------------------------------------------------
      1          6           0        0.875338   -2.811080    0.079650
      2          6           0       -0.548050   -2.620033    0.606466
      3          6           0       -2.267174    1.253685    1.085194
      4          7           0       -1.793593    0.823858   -0.217479
      5          6           0       -2.741372    0.122610   -1.066448
      6          6           0       -0.459768    0.706521   -0.444923
      7          6           0        0.548112    1.038852    0.405910
      8          6           0        1.945961    0.912091    0.039242
      9          8           0        2.893981    1.189296    0.754036
     10          8           0        2.146654    0.419008   -1.230650
     11          1           0        1.198984   -1.952052   -0.516176
     12          1           0        0.950162   -3.706463   -0.548562
     13          1           0        1.587557   -2.924754    0.904700
     14          1           0       -0.615225   -1.723399    1.231663
     15          1           0       -1.264785   -2.505933   -0.216155
     16          1           0       -0.872649   -3.476658    1.208594
     17          1           0       -3.337199    1.466731    1.026282
     18          1           0       -1.747113    2.167302    1.387971
     19          1           0       -2.100770    0.486037    1.855834
     20          1           0       -3.636962    0.735415   -1.216324
     21          1           0       -2.285158   -0.068471   -2.040626
     22          1           0       -3.047116   -0.840915   -0.632915
     23          1           0       -0.205845    0.315898   -1.425362
     24          1           0        0.373049    1.406833    1.408557
     25          1           0        3.114872    0.371123   -1.322765
 ---------------------------------------------------------------------

 SCF Done:  E(UB3LYP) =  -481.155206361     A.U. after   30 cycles

 The electronic state is 2-A.
 Alpha  occ. eigenvalues --  -19.05810 -18.99345 -14.25034 -10.18750 -10.11621
 Alpha  occ. eigenvalues --  -10.09789 -10.09685 -10.05563 -10.05556 -10.05246
 Alpha  occ. eigenvalues --   -0.99281  -0.90086  -0.86210  -0.68241  -0.64969
 Alpha  occ. eigenvalues --   -0.62866  -0.59283  -0.51321  -0.50422  -0.46973
 Alpha  occ. eigenvalues --   -0.41018  -0.40666  -0.37204  -0.36975  -0.34504
 Alpha  occ. eigenvalues --   -0.34055  -0.33256  -0.32741  -0.30482  -0.30333
 Alpha  occ. eigenvalues --   -0.29467  -0.28670  -0.27745  -0.26603  -0.24274
 Alpha  occ. eigenvalues --   -0.24089  -0.22187  -0.21361  -0.17199  -0.11303
 Alpha  occ. eigenvalues --    0.04424
 Alpha virt. eigenvalues --    0.07057   0.07254   0.07889   0.08136   0.09779
 Alpha virt. eigenvalues --    0.09898   0.10609   0.11272   0.11398   0.12786
 Alpha virt. eigenvalues --    0.13162   0.13749   0.14300   0.15100   0.15714

  Beta  occ. eigenvalues --  -19.05802 -18.99316 -14.25028 -10.18720 -10.11559
  Beta  occ. eigenvalues --  -10.09728 -10.09608 -10.05563 -10.05545 -10.05210
  Beta  occ. eigenvalues --   -0.99248  -0.90044  -0.86167  -0.68168  -0.64933
  Beta  occ. eigenvalues --   -0.62771  -0.59179  -0.51245  -0.50350  -0.46887
  Beta  occ. eigenvalues --   -0.40950  -0.40609  -0.37122  -0.36941  -0.34453
  Beta  occ. eigenvalues --   -0.33974  -0.33229  -0.32680  -0.30413  -0.30260
  Beta  occ. eigenvalues --   -0.29429  -0.28600  -0.27699  -0.26543  -0.24243
  Beta  occ. eigenvalues --   -0.24059  -0.22053  -0.21232  -0.17167  -0.11207
  Beta virt. eigenvalues --    0.06894   0.07484   0.07912   0.08414   0.08893
  Beta virt. eigenvalues --    0.10213   0.10801   0.10940   0.11706   0.11838
  Beta virt. eigenvalues --    0.13347   0.13539   0.14233   0.14596   0.15155

 Mulliken charges and spin densities:
               1          2
     1  C   -0.003171  -0.403062
     2  C   -0.130316  -0.214271
     3  C    0.985344  -1.357082
     4  N   -0.217817   0.339615
     5  C    1.787233  -2.111966
     6  C   -1.137611   0.607171
     7  C    0.830234  -0.483527
     8  C   -0.025712  -0.253572
     9  O   -0.339028   0.007487
    10  O   -0.225378   0.005403
    11  H    0.084966   0.045057
    12  H   -0.038502   0.156191
    13  H    0.065752   0.046575
    14  H    0.112058  -0.006195
    15  H    0.094415   0.041223
    16  H   -0.284613   0.425340
    17  H   -0.778197   0.943066
    18  H   -0.272077   0.415358
    19  H   -0.188751   0.361474
    20  H   -0.593488   0.758606
    21  H   -0.489792   0.622936
    22  H   -0.697281   0.865839
    23  H    0.076689   0.105103
    24  H    0.157500   0.044688
    25  H    0.227545   0.038543
 Sum of Mulliken charges =  -1.00000   1.00000

 Dipole moment (field-independent basis, Debye):
    X=              7.4132    Y=             -0.2982    Z=             -1.0529  Tot=              7.4935
 Quadrupole moment (field-independent basis, Debye-Ang):
   XX=           -137.3373   YY=           -103.8432   ZZ=            -94.5341
   XY=             -1.6881   XZ=             -7.6584   YZ=             -2.4178

 Summary of Natural Population Analysis:

                                       Natural Population
                Natural  -----------------------------------------------
    Atom  No    Charge         Core      Valence    Rydberg      Total
 -----------------------------------------------------------------------
      C    1   -0.28778      0.99968     2.28401    0.00409     3.28778
      C    2   -0.28620      0.99968     2.28210    0.00442     3.28620
      C    3   -0.17926      0.99963     2.17053    0.00909     3.17926
      N    4   -0.22914      0.99969     2.71723    0.01223     3.72914
      C    5   -0.17008      0.99963     2.16180    0.00865     3.17008
      C    6    0.07229      0.99953     1.91530    0.01288     2.92771
      C    7   -0.23359      0.99950     2.22384    0.01024     3.23359
      C    8    0.38203      0.99967     1.59376    0.02454     2.61797
      O    9   -0.32661      0.99987     3.32058    0.00616     4.32661
      O   10   -0.36229      0.99988     3.35583    0.00658     4.36229
      H   11    0.10221      0.00000     0.39606    0.00173     0.39779
      H   12    0.09038      0.00000     0.40852    0.00110     0.40962
      H   13    0.09217      0.00000     0.40675    0.00108     0.40783
      H   14    0.09872      0.00000     0.39984    0.00144     0.40128
      H   15    0.09690      0.00000     0.40166    0.00144     0.40310
      H   16    0.09279      0.00000     0.40618    0.00103     0.40721
      H   17    0.10605      0.00000     0.39165    0.00230     0.39395
      H   18    0.09901      0.00000     0.39977    0.00122     0.40099
      H   19    0.09686      0.00000     0.40124    0.00190     0.40314
      H   20    0.10093      0.00000     0.39584    0.00322     0.39907
      H   21    0.09916      0.00000     0.39911    0.00174     0.40084
      H   22    0.09787      0.00000     0.39805    0.00408     0.40213
      H   23    0.10262      0.00000     0.39548    0.00190     0.39738
      H   24    0.10857      0.00000     0.39041    0.00102     0.39143
      H   25    0.23636      0.00000     0.26038    0.00325     0.26364
 =======================================================================
   * Total *   -0.00000      9.99676    29.87591    0.12733    40.00000

 Normal termination of Gaussian 16 at Tue Dec  8 11:46:46 2020.
