 Gaussian 16, Revision A.03,

 -----------------------------------------------------------
 # opt freq B3LYP/6-31G(d) empiricaldispersion=gd3bj scf=xqc
 -----------------------------------------------------------

 -------------------------------
 CID_142892723_JID_2017_neutraal
 -------------------------------
 Symbolic Z-matrix:
 Charge =  0 Multiplicity = 1

 SCF Done:  E(RB3LYP) =  -500.209241219     A.U. after   14 cycles
 SCF Done:  E(RB3LYP) =  -500.213887155     A.U. after   12 cycles
 SCF Done:  E(RB3LYP) =  -500.214717754     A.U. after   12 cycles
 SCF Done:  E(RB3LYP) =  -500.215152918     A.U. after   12 cycles
 SCF Done:  E(RB3LYP) =  -500.215308602     A.U. after   11 cycles
 SCF Done:  E(RB3LYP) =  -500.215374896     A.U. after   11 cycles
 SCF Done:  E(RB3LYP) =  -500.215380851     A.U. after    9 cycles
 SCF Done:  E(RB3LYP) =  -500.215383123     A.U. after    9 cycles
 SCF Done:  E(RB3LYP) =  -500.215383693     A.U. after    8 cycles
 SCF Done:  E(RB3LYP) =  -500.215383744     A.U. after    7 cycles
 SCF Done:  E(RB3LYP) =  -500.215383769     A.U. after    7 cycles
 SCF Done:  E(RB3LYP) =  -500.215383780     A.U. after    7 cycles
 Optimization completed.
    -- Stationary point found.
 Normal termination of Gaussian 16 at Wed Dec  9 16:46:05 2020.

 --------------------------------------------------------------------
 #N Geom=AllCheck Guess=TCheck SCRF=Check GenChk RB3LYP/6-31G(d) Freq
 --------------------------------------------------------------------

 Structure from the checkpoint file:  "JID_2017.chk"
 -------------------------------
 CID_142892723_JID_2017_neutraal
 -------------------------------
 Charge =  0 Multiplicity = 1

 SCF Done:  E(RB3LYP) =  -500.215383780     A.U. after    1 cycles

  Exact polarizability: 137.571  -0.321 110.603  -1.957   2.699  91.205
 Approx polarizability: 183.924  -2.123 171.058  -4.184   7.257 132.906

                      1                      2                      3
                      A                      A                      A
 Frequencies --     35.1704                92.2662               113.1098
 Red. masses --      3.7443                 3.1184                 3.6433
 Frc consts  --      0.0027                 0.0156                 0.0275
 IR Inten    --      0.8397                 0.4118                 1.8797

                      4                      5                      6
                      A                      A                      A
 Frequencies --    196.6677               219.2064               254.6608
 Red. masses --      2.5175                 3.0095                 1.9371
 Frc consts  --      0.0574                 0.0852                 0.0740
 IR Inten    --      2.4631                 2.4554                 1.8503

                      7                      8                      9
                      A                      A                      A
 Frequencies --    284.9285               305.7335               375.1141
 Red. masses --      3.7662                 2.1830                 1.8894
 Frc consts  --      0.1801                 0.1202                 0.1566
 IR Inten    --      0.2274                 0.5402                 1.7443

                     10                     11                     12
                      A                      A                      A
 Frequencies --    407.0192               461.8565               465.8811
 Red. masses --      2.4898                 3.2359                 3.3367
 Frc consts  --      0.2430                 0.4067                 0.4267
 IR Inten    --      3.2832                 9.2620                 5.9823

                     13                     14                     15
                      A                      A                      A
 Frequencies --    516.4084               560.4122               637.4746
 Red. masses --      2.0254                 2.8461                 2.7420
 Frc consts  --      0.3182                 0.5266                 0.6565
 IR Inten    --     25.3569                 3.4564                 2.5294

                     16                     17                     18
                      A                      A                      A
 Frequencies --    689.3618               739.5992               780.8926
 Red. masses --      3.7522                 2.3289                 2.2070
 Frc consts  --      1.0506                 0.7506                 0.7929
 IR Inten    --      1.0608                47.7848                 3.3483

                     19                     20                     21
                      A                      A                      A
 Frequencies --    816.3427               823.1825               828.6292
 Red. masses --      1.5388                 1.5006                 2.2461
 Frc consts  --      0.6042                 0.5991                 0.9087
 IR Inten    --     10.8287                 2.7016                29.2022

                     22                     23                     24
                      A                      A                      A
 Frequencies --    848.9487               871.5026               893.8180
 Red. masses --      2.7440                 1.4449                 2.4467
 Frc consts  --      1.1652                 0.6466                 1.1517
 IR Inten    --      9.3696                 1.5060                 5.2813

                     25                     26                     27
                      A                      A                      A
 Frequencies --    900.0517               925.4266               976.6290
 Red. masses --      2.2215                 2.1414                 2.2434
 Frc consts  --      1.0603                 1.0805                 1.2607
 IR Inten    --      1.5209                 0.5965                 4.0671

                     28                     29                     30
                      A                      A                      A
 Frequencies --    978.6137              1042.6892              1053.8890
 Red. masses --      3.3869                 1.4600                 2.3942
 Frc consts  --      1.9111                 0.9352                 1.5668
 IR Inten    --      3.3564                 0.3880                18.9196

                     31                     32                     33
                      A                      A                      A
 Frequencies --   1062.5352              1075.2195              1092.4845
 Red. masses --      2.1293                 1.6720                 1.6285
 Frc consts  --      1.4164                 1.1389                 1.1452
 IR Inten    --      8.2782                13.7173                 7.3538

                     34                     35                     36
                      A                      A                      A
 Frequencies --   1106.2320              1114.5863              1146.2069
 Red. masses --      1.8639                 2.0812                 3.9750
 Frc consts  --      1.3439                 1.5234                 3.0769
 IR Inten    --      3.8229                12.0536                12.2242

                     37                     38                     39
                      A                      A                      A
 Frequencies --   1187.8806              1196.2080              1205.6650
 Red. masses --      1.2765                 1.2405                 1.8171
 Frc consts  --      1.0612                 1.0458                 1.5563
 IR Inten    --      1.9258                 2.4618                 4.7373

                     40                     41                     42
                      A                      A                      A
 Frequencies --   1224.7004              1260.4149              1278.0131
 Red. masses --      1.0822                 1.4117                 1.2090
 Frc consts  --      0.9564                 1.3213                 1.1634
 IR Inten    --      4.5639                 5.1598                 0.0942

                     43                     44                     45
                      A                      A                      A
 Frequencies --   1331.4795              1338.6390              1344.6807
 Red. masses --      1.3029                 1.4637                 1.4733
 Frc consts  --      1.3609                 1.5453                 1.5696
 IR Inten    --      3.0720                 1.0225                 2.7827

                     46                     47                     48
                      A                      A                      A
 Frequencies --   1362.4106              1372.4834              1382.7709
 Red. masses --      1.6062                 1.2912                 1.5554
 Frc consts  --      1.7566                 1.4330                 1.7522
 IR Inten    --      3.6212                16.7742                 3.4055

                     49                     50                     51
                      A                      A                      A
 Frequencies --   1389.4831              1397.9356              1410.6492
 Red. masses --      1.2963                 1.5220                 1.4246
 Frc consts  --      1.4746                 1.7525                 1.6702
 IR Inten    --     18.4374                 5.7936                14.8080

                     52                     53                     54
                      A                      A                      A
 Frequencies --   1424.5667              1457.4002              1490.1789
 Red. masses --      1.3582                 1.4397                 1.0894
 Frc consts  --      1.6240                 1.8017                 1.4253
 IR Inten    --      3.9603                 2.6064                 7.2924

                     55                     56                     57
                      A                      A                      A
 Frequencies --   1496.2326              1505.0911              1507.1965
 Red. masses --      1.1497                 1.2091                 1.1010
 Frc consts  --      1.5165                 1.6137                 1.4736
 IR Inten    --      4.3933                 0.1843                 1.9434

                     58                     59                     60
                      A                      A                      A
 Frequencies --   1512.5896              1526.2581              1542.2321
 Red. masses --      1.0967                 1.1115                 1.1009
 Frc consts  --      1.4783                 1.5255                 1.5428
 IR Inten    --      5.7626                 0.0763                 9.8313

                     61                     62                     63
                      A                      A                      A
 Frequencies --   1673.7582              1715.0332              2987.9219
 Red. masses --      7.3962                 7.9995                 1.0693
 Frc consts  --     12.2080                13.8631                 5.6245
 IR Inten    --     11.1383                60.0200                55.9517

                     64                     65                     66
                      A                      A                      A
 Frequencies --   2992.7997              3009.1340              3016.8570
 Red. masses --      1.0734                 1.0690                 1.0637
 Frc consts  --      5.6645                 5.7031                 5.7042
 IR Inten    --     28.3001                33.8250                44.1800

                     67                     68                     69
                      A                      A                      A
 Frequencies --   3033.9148              3041.8513              3052.1570
 Red. masses --      1.0744                 1.0616                 1.0742
 Frc consts  --      5.8265                 5.7876                 5.8961
 IR Inten    --      3.5068                14.3045                55.5475

                     70                     71                     72
                      A                      A                      A
 Frequencies --   3068.1044              3070.7935              3087.6597
 Red. masses --      1.0916                 1.0940                 1.1039
 Frc consts  --      6.0541                 6.0781                 6.2006
 IR Inten    --     86.6472                57.7494                18.6069

                     73                     74                     75
                      A                      A                      A
 Frequencies --   3088.0379              3090.4941              3099.8452
 Red. masses --      1.0908                 1.1048                 1.0909
 Frc consts  --      6.1287                 6.2172                 6.1764
 IR Inten    --     36.4455                65.4471                19.2919

                     76                     77                     78
                      A                      A                      A
 Frequencies --   3125.6890              3186.8774              3490.4292
 Red. masses --      1.0903                 1.0907                 1.0744
 Frc consts  --      6.2759                 6.5269                 7.7122
 IR Inten    --     47.3213                16.0484                 4.4080

 - Thermochemistry -
 -------------------
 Temperature   298.150 Kelvin.  Pressure   1.00000 Atm.
 Atom     1 has atomic number  6 and mass  12.00000

 Molecular mass:   164.13135 amu.
 Principal axes and moments of inertia in atomic units:
                           1         2         3
     Eigenvalues --   925.088162991.485553169.69787
           X            0.99999  -0.00078  -0.00352
           Y            0.00073   0.99990  -0.01407
           Z            0.00353   0.01407   0.99989
 This molecule is an asymmetric top.
 Rotational symmetry number  1.
 Warning -- assumption of classical behavior for rotation
           may cause significant error
 Rotational temperatures (Kelvin)      0.09363     0.02895     0.02733
 Rotational constants (GHZ):           1.95089     0.60329     0.56937
 Zero-point vibrational energy     661949.2 (Joules/Mol)
                                  158.20966 (Kcal/Mol)
 Warning -- explicit consideration of  14 degrees of freedom as
           vibrations may cause significant error
 Vibrational temperatures:     50.60   132.75   162.74   282.96   315.39
          (Kelvin)            366.40   409.95   439.88   539.71   585.61
                              664.51   670.30   743.00   806.31   917.18
                              991.84  1064.12  1123.53  1174.54  1184.38
                             1192.21  1221.45  1253.90  1286.00  1294.97
                             1331.48  1405.15  1408.01  1500.20  1516.31
                             1528.75  1547.00  1571.84  1591.62  1603.64
                             1649.14  1709.10  1721.08  1734.68  1762.07
                             1813.46  1838.78  1915.70  1926.00  1934.70
                             1960.20  1974.70  1989.50  1999.16  2011.32
                             2029.61  2049.63  2096.87  2144.04  2152.75
                             2165.49  2168.52  2176.28  2195.94  2218.93
                             2408.16  2467.55  4298.95  4305.97  4329.47
                             4340.58  4365.13  4376.55  4391.37  4414.32
                             4418.19  4442.45  4443.00  4446.53  4459.99
                             4497.17  4585.21  5021.95

 Zero-point correction=                           0.252123 (Hartree/Particle)
 Thermal correction to Energy=                    0.262697
 Thermal correction to Enthalpy=                  0.263641
 Thermal correction to Gibbs Free Energy=         0.215550
 Sum of electronic and zero-point Energies=           -499.963261
 Sum of electronic and thermal Energies=              -499.952687
 Sum of electronic and thermal Enthalpies=            -499.951743
 Sum of electronic and thermal Free Energies=         -499.999833

                     E (Thermal)             CV                S
                      KCal/Mol        Cal/Mol-Kelvin    Cal/Mol-Kelvin
 Total                  164.845             42.363            101.215
 Electronic               0.000              0.000              0.000
 Translational            0.889              2.981             41.195
 Rotational               0.889              2.981             30.551
 Vibrational            163.067             36.402             29.469
 Vibration     1          0.594              1.982              5.514
 Vibration     2          0.602              1.955              3.611
 Vibration     3          0.607              1.939              3.215
 Vibration     4          0.636              1.845              2.164
 Vibration     5          0.647              1.812              1.966
 Vibration     6          0.665              1.755              1.698
 Vibration     7          0.683              1.702              1.504
 Vibration     8          0.696              1.663              1.385
 Vibration     9          0.746              1.523              1.059
 Vibration    10          0.772              1.455              0.937
 Vibration    11          0.820              1.335              0.761
 Vibration    12          0.823              1.326              0.749
 Vibration    13          0.871              1.214              0.618
 Vibration    14          0.916              1.117              0.523

 Optimization completed.
    -- Stationary point found.
 Normal termination of Gaussian 16 at Wed Dec  9 16:52:36 2020.

 ----------------------------------------------------------------------
 # B3LYP/6-311++G(d,p) empiricaldispersion=gd3bj scf=xqc pop=npa geom=c
 heck
 ----------------------------------------------------------------------

 ---------------------------------------
 CID_142892723_JID_2017_Energie_neutraal
 ---------------------------------------
 Structure from the checkpoint file:  "JID_2017.chk"
 Charge =  0 Multiplicity = 1

 SCF Done:  E(RB3LYP) =  -500.351530036     A.U. after   14 cycles
 Normal termination of Gaussian 16 at Wed Dec  9 16:54:57 2020.

 ----------------------------------------------------------------------
 # B3LYP/6-311++G(d,p) empiricaldispersion=gd3bj scf=xqc pop=npa geom=c
 heck
 ----------------------------------------------------------------------

 -------------------------------------
 CID_142892723_JID_2017_Energie_kation
 -------------------------------------
 Structure from the checkpoint file:  "JID_2017.chk"
 Charge =  1 Multiplicity = 2

 SCF Done:  E(UB3LYP) =  -500.068316371     A.U. after   21 cycles
 Normal termination of Gaussian 16 at Wed Dec  9 16:59:44 2020.
 Gaussian 16:  ES64L-G16RevA.03 25-Dec-2016

 ----------------------------------------------------------------------
 # B3LYP/6-311++G(d,p) empiricaldispersion=gd3bj scf=xqc pop=npa geom=c
 heck
 ----------------------------------------------------------------------

 ------------------------------------
 CID_142892723_JID_2017_Energie_anion
 ------------------------------------
 Structure from the checkpoint file:  "JID_2017.chk"
 Charge = -1 Multiplicity = 2

                         Standard orientation:
 ---------------------------------------------------------------------
 Center     Atomic      Atomic             Coordinates (Angstroms)
 Number     Number       Type             X           Y           Z
 ---------------------------------------------------------------------
      1          6           0       -3.185208    0.609054   -0.094629
      2          6           0       -3.099311   -0.887316    0.228528
      3          6           0       -1.845177   -1.457124   -0.391687
      4          7           0       -0.746505   -0.809250   -0.491905
      5          6           0       -0.707447    0.529480   -0.007959
      6          6           0       -1.838481    1.243705    0.139517
      7          6           0        0.661634    1.113079    0.257580
      8          6           0        1.594560    1.123139   -0.979138
      9          6           0        2.276616   -0.222014   -1.244707
     10          7           0        2.983819   -0.656683   -0.033283
     11          6           0        2.052807   -0.885424    1.076510
     12          6           0        1.386291    0.440494    1.450418
     13          1           0       -3.495896    0.754330   -1.142769
     14          1           0       -3.953606    1.086459    0.522795
     15          1           0       -3.034582   -1.025408    1.320151
     16          1           0       -3.983827   -1.434405   -0.112554
     17          1           0       -1.861417   -2.478755   -0.779023
     18          1           0       -1.786688    2.298394    0.396840
     19          1           0        0.482331    2.158229    0.539470
     20          1           0        1.035072    1.441058   -1.866871
     21          1           0        2.378305    1.869386   -0.797327
     22          1           0        1.525106   -0.951634   -1.581415
     23          1           0        3.016184   -0.099690   -2.045535
     24          1           0        3.482456   -1.521382   -0.233154
     25          1           0        2.625432   -1.259274    1.934012
     26          1           0        1.279246   -1.634138    0.837175
     27          1           0        2.170506    1.123816    1.799492
     28          1           0        0.682477    0.292109    2.278434
 ---------------------------------------------------------------------

 SCF Done:  E(UB3LYP) =  -500.338904132     A.U. after   33 cycles
 SCF Done:  E(UB3LYP) =  -500.338904132     a.u. after    1 cycles

 The electronic state is 2-A.
 Alpha  occ. eigenvalues --  -14.17979 -14.15616 -10.06752 -10.06666 -10.06067
 Alpha  occ. eigenvalues --  -10.05566 -10.05190 -10.04662 -10.04588 -10.04501
 Alpha  occ. eigenvalues --  -10.04425 -10.02307  -0.79617  -0.78750  -0.67880
 Alpha  occ. eigenvalues --   -0.65595  -0.63141  -0.61069  -0.53044  -0.50136
 Alpha  occ. eigenvalues --   -0.48842  -0.48017  -0.42549  -0.39297  -0.36166
 Alpha  occ. eigenvalues --   -0.35312  -0.33991  -0.33317  -0.31618  -0.31391
 Alpha  occ. eigenvalues --   -0.28963  -0.28775  -0.28102  -0.26531  -0.25262
 Alpha  occ. eigenvalues --   -0.24798  -0.23000  -0.22878  -0.21381  -0.19744
 Alpha  occ. eigenvalues --   -0.19120  -0.18669  -0.12442  -0.10288  -0.09372
 Alpha  occ. eigenvalues --    0.05324
 Alpha virt. eigenvalues --    0.07301   0.08167   0.08584   0.08780   0.09648
 Alpha virt. eigenvalues --    0.10132   0.10606   0.10894   0.11864   0.12265
 Alpha virt. eigenvalues --    0.12709   0.13276   0.13742   0.14383   0.15027

  Beta  occ. eigenvalues --  -14.17968 -14.15470 -10.06736 -10.06662 -10.05800
  Beta  occ. eigenvalues --  -10.05554 -10.05191 -10.04673 -10.04587 -10.04489
  Beta  occ. eigenvalues --  -10.04396 -10.02127  -0.79432  -0.78550  -0.67807
  Beta  occ. eigenvalues --   -0.65401  -0.63121  -0.60823  -0.52946  -0.50110
  Beta  occ. eigenvalues --   -0.48751  -0.47567  -0.42457  -0.39258  -0.35906
  Beta  occ. eigenvalues --   -0.35134  -0.33912  -0.33279  -0.31465  -0.31254
  Beta  occ. eigenvalues --   -0.28848  -0.28732  -0.28032  -0.26510  -0.24997
  Beta  occ. eigenvalues --   -0.24566  -0.22976  -0.22781  -0.20954  -0.19697
  Beta  occ. eigenvalues --   -0.18900  -0.18369  -0.12303  -0.10062  -0.08588
  Beta virt. eigenvalues --    0.07399   0.08414   0.08750   0.09000   0.09825
  Beta virt. eigenvalues --    0.10301   0.10590   0.10719   0.11033   0.11828
  Beta virt. eigenvalues --    0.12603   0.12841   0.13349   0.13797   0.14390

 Mulliken charges and spin densities:
               1          2
     1  C    1.810965  -2.394174
     2  C   -0.129272  -0.208647
     3  C   -0.386680   0.547578
     4  N   -0.069176   0.162354
     5  C    0.649335  -1.268312
     6  C   -2.610876   2.720181
     7  C    1.630262  -0.711944
     8  C   -0.576261   0.051218
     9  C   -0.054772  -0.402233
    10  N   -0.228467   0.054005
    11  C   -0.211445  -0.224219
    12  C   -0.056825  -0.472835
    13  H   -0.016559   0.136462
    14  H   -0.500038   0.656685
    15  H   -0.042656   0.166042
    16  H   -0.001578   0.132046
    17  H   -0.076904   0.203712
    18  H   -0.599264   0.752562
    19  H    0.100878   0.093674
    20  H    0.052059   0.092569
    21  H    0.053952   0.071492
    22  H    0.127664   0.038637
    23  H    0.001723   0.137940
    24  H    0.030462   0.200166
    25  H   -0.237886   0.383867
    26  H    0.215575  -0.060833
    27  H    0.045262   0.081999
    28  H    0.080521   0.060008
 Sum of Mulliken charges =  -1.00000   1.00000

 Dipole moment (field-independent basis, Debye):
    X=              3.1284    Y=             -1.6662    Z=             -0.5789  Tot=              3.5914
 Quadrupole moment (field-independent basis, Debye-Ang):
   XX=           -135.4550   YY=           -100.6248   ZZ=            -98.7859
   XY=              7.8126   XZ=              0.1498   YZ=             -1.4725

 Summary of Natural Population Analysis:

                                       Natural Population
                Natural  -----------------------------------------------
    Atom  No    Charge         Core      Valence    Rydberg      Total
 -----------------------------------------------------------------------
      C    1   -0.20226      0.99963     2.19301    0.00963     3.20226
      C    2   -0.22572      0.99963     2.21725    0.00884     3.22572
      C    3    0.12304      0.99962     1.86291    0.01443     2.87696
      N    4   -0.24559      0.99967     2.73333    0.01259     3.74559
      C    5    0.06674      0.99940     1.91678    0.01708     2.93326
      C    6   -0.07581      0.99946     2.06646    0.00988     3.07581
      C    7   -0.11811      0.99955     2.10607    0.01250     3.11811
      C    8   -0.18756      0.99961     2.17974    0.00821     3.18756
      C    9   -0.09174      0.99962     2.08234    0.00977     3.09174
      N   10   -0.34623      0.99974     2.83438    0.01211     3.84623
      C   11   -0.09288      0.99962     2.08160    0.01166     3.09288
      C   12   -0.18701      0.99961     2.17927    0.00813     3.18701
      H   13    0.09612      0.00000     0.40263    0.00125     0.40388
      H   14    0.10450      0.00000     0.39169    0.00380     0.39550
      H   15    0.10356      0.00000     0.39510    0.00134     0.39644
      H   16    0.09813      0.00000     0.40077    0.00111     0.40187
      H   17    0.07228      0.00000     0.42645    0.00127     0.42772
      H   18    0.09235      0.00000     0.40631    0.00133     0.40765
      H   19    0.09912      0.00000     0.39900    0.00188     0.40088
      H   20    0.10071      0.00000     0.39831    0.00098     0.39929
      H   21    0.09329      0.00000     0.40531    0.00140     0.40671
      H   22    0.09473      0.00000     0.40318    0.00209     0.40527
      H   23    0.08555      0.00000     0.41319    0.00126     0.41445
      H   24    0.16966      0.00000     0.32771    0.00263     0.33034
      H   25    0.08802      0.00000     0.41083    0.00115     0.41198
      H   26    0.09099      0.00000     0.40737    0.00165     0.40901
      H   27    0.09418      0.00000     0.40435    0.00147     0.40582
      H   28    0.09992      0.00000     0.39891    0.00116     0.40008
 =======================================================================
   * Total *   -0.00000     11.99516    32.84424    0.16060    45.00000

 Normal termination of Gaussian 16 at Wed Dec  9 17:07:36 2020.
