 Gaussian 16, Revision A.03,

 -----------------------------------------------------------
 # opt freq B3LYP/6-31G(d) empiricaldispersion=gd3bj scf=xqc
 -----------------------------------------------------------

 ------------------------------
 CID_65383698_JID_4994_neutraal
 ------------------------------
 Symbolic Z-matrix:
 Charge =  0 Multiplicity = 1

 SCF Done:  E(RB3LYP) =  -583.703573693     A.U. after   12 cycles
 SCF Done:  E(RB3LYP) =  -583.708322750     A.U. after   11 cycles
 SCF Done:  E(RB3LYP) =  -583.709243083     A.U. after   10 cycles
 SCF Done:  E(RB3LYP) =  -583.709587740     A.U. after   10 cycles
 SCF Done:  E(RB3LYP) =  -583.709675324     A.U. after   10 cycles
 SCF Done:  E(RB3LYP) =  -583.709705056     A.U. after    9 cycles
 SCF Done:  E(RB3LYP) =  -583.709716076     A.U. after    8 cycles
 SCF Done:  E(RB3LYP) =  -583.709719106     A.U. after    8 cycles
 SCF Done:  E(RB3LYP) =  -583.709720109     A.U. after    7 cycles
 SCF Done:  E(RB3LYP) =  -583.709720497     A.U. after    7 cycles
 SCF Done:  E(RB3LYP) =  -583.709720553     A.U. after    6 cycles
 Optimization completed.
    -- Stationary point found.
 Normal termination of Gaussian 16 at Thu Dec 10 11:11:39 2020.

 --------------------------------------------------------------------
 #N Geom=AllCheck Guess=TCheck SCRF=Check GenChk RB3LYP/6-31G(d) Freq
 --------------------------------------------------------------------

 Structure from the checkpoint file:  "JID_4994.chk"
 ------------------------------
 CID_65383698_JID_4994_neutraal
 ------------------------------
 Charge =  0 Multiplicity = 1

 SCF Done:  E(RB3LYP) =  -583.709720553     A.U. after    1 cycles

  Exact polarizability: 158.866   0.055 140.805  -2.283  -0.413 126.173
 Approx polarizability: 192.113   0.282 189.985   0.248  -3.962 188.106

                      1                      2                      3
                      A                      A                      A
 Frequencies --     27.8831                31.0441                55.1635
 Red. masses --      3.3770                 3.0826                 2.7160
 Frc consts  --      0.0015                 0.0018                 0.0049
 IR Inten    --      0.0393                 0.0027                 0.0980

                      4                      5                      6
                      A                      A                      A
 Frequencies --     60.3796                75.2821                90.7031
 Red. masses --      3.3221                 2.9244                 3.2309
 Frc consts  --      0.0071                 0.0098                 0.0157
 IR Inten    --      0.2506                 0.8816                 1.3847

                      7                      8                      9
                      A                      A                      A
 Frequencies --    101.9594               117.2306               157.1622
 Red. masses --      2.5168                 1.9999                 2.4552
 Frc consts  --      0.0154                 0.0162                 0.0357
 IR Inten    --      0.4610                 0.0806                 0.8239

                     10                     11                     12
                      A                      A                      A
 Frequencies --    176.6307               221.5655               227.1465
 Red. masses --      1.6713                 1.8247                 1.4843
 Frc consts  --      0.0307                 0.0528                 0.0451
 IR Inten    --      1.6260                 3.1327                 0.0606

                     13                     14                     15
                      A                      A                      A
 Frequencies --    244.4401               259.9553               279.9209
 Red. masses --      1.4634                 1.8429                 1.3194
 Frc consts  --      0.0515                 0.0734                 0.0609
 IR Inten    --      4.6343                 1.1054                19.2571

                     16                     17                     18
                      A                      A                      A
 Frequencies --    286.4621               304.7315               315.4328
 Red. masses --      1.4792                 1.9027                 2.2955
 Frc consts  --      0.0715                 0.1041                 0.1346
 IR Inten    --      0.1627                 5.3350                17.0294

                     19                     20                     21
                      A                      A                      A
 Frequencies --    330.5978               366.6825               383.0084
 Red. masses --      1.9861                 2.0773                 1.9406
 Frc consts  --      0.1279                 0.1646                 0.1677
 IR Inten    --      0.9285                 1.0297                 0.0869

                     22                     23                     24
                      A                      A                      A
 Frequencies --    433.5211               447.5955               491.8793
 Red. masses --      2.0821                 2.5601                 2.0637
 Frc consts  --      0.2306                 0.3022                 0.2942
 IR Inten    --      0.8265                 1.4935                 3.8913

                     25                     26                     27
                      A                      A                      A
 Frequencies --    510.1529               574.3713               616.2182
 Red. masses --      2.2808                 2.4705                 2.4275
 Frc consts  --      0.3497                 0.4802                 0.5431
 IR Inten    --      0.6011                 1.9652                11.4513

                     28                     29                     30
                      A                      A                      A
 Frequencies --    717.0179               740.2158               760.8029
 Red. masses --      1.3058                 1.8579                 1.5674
 Frc consts  --      0.3955                 0.5998                 0.5345
 IR Inten    --     20.0540                28.7681                 9.2333

                     31                     32                     33
                      A                      A                      A
 Frequencies --    806.2686               811.4389               835.0755
 Red. masses --      1.7643                 1.5777                 1.5774
 Frc consts  --      0.6757                 0.6120                 0.6481
 IR Inten    --      4.3938                 4.0325                 9.6032

                     34                     35                     36
                      A                      A                      A
 Frequencies --    850.2852               862.5658               888.7612
 Red. masses --      1.7640                 1.4367                 1.7009
 Frc consts  --      0.7514                 0.6298                 0.7916
 IR Inten    --      2.1062                84.4263                39.8495

                     37                     38                     39
                      A                      A                      A
 Frequencies --    912.8362               928.0302               959.9904
 Red. masses --      1.6456                 1.6470                 1.7165
 Frc consts  --      0.8079                 0.8357                 0.9320
 IR Inten    --      7.6340                 2.8074                10.3200

                     40                     41                     42
                      A                      A                      A
 Frequencies --    962.5628               986.1363               996.6933
 Red. masses --      1.9740                 1.5029                 1.2661
 Frc consts  --      1.0776                 0.8611                 0.7410
 IR Inten    --      8.1646                 5.0383                 1.7397

                     43                     44                     45
                      A                      A                      A
 Frequencies --   1024.7864              1032.6052              1050.1962
 Red. masses --      1.6278                 1.7168                 2.3744
 Frc consts  --      1.0072                 1.0785                 1.5429
 IR Inten    --      2.3111                11.3663                 2.2230

                     46                     47                     48
                      A                      A                      A
 Frequencies --   1051.1264              1065.0317              1084.4301
 Red. masses --      1.5408                 1.8179                 1.9937
 Frc consts  --      1.0030                 1.2149                 1.3814
 IR Inten    --      1.0979                 1.9550                 4.6682

                     49                     50                     51
                      A                      A                      A
 Frequencies --   1109.8817              1122.9285              1133.0035
 Red. masses --      1.4345                 1.9931                 2.1638
 Frc consts  --      1.0411                 1.4808                 1.6365
 IR Inten    --      2.0742                 5.5573                16.6857

                     52                     53                     54
                      A                      A                      A
 Frequencies --   1143.0726              1159.0026              1194.6969
 Red. masses --      2.1782                 2.2535                 1.7469
 Frc consts  --      1.6769                 1.7835                 1.4690
 IR Inten    --     22.3535                10.5849                 8.3514

                     55                     56                     57
                      A                      A                      A
 Frequencies --   1202.0779              1208.5121              1231.1106
 Red. masses --      2.0661                 1.6731                 1.5699
 Frc consts  --      1.7590                 1.4397                 1.4019
 IR Inten    --     33.1932                 1.0860                 1.3714

                     58                     59                     60
                      A                      A                      A
 Frequencies --   1252.5568              1283.6296              1291.1019
 Red. masses --      1.4356                 1.2866                 1.2615
 Frc consts  --      1.3271                 1.2491                 1.2390
 IR Inten    --     10.9619                 2.5401                 3.7809

                     61                     62                     63
                      A                      A                      A
 Frequencies --   1313.8580              1335.3009              1343.6846
 Red. masses --      1.2187                 1.3255                 1.1657
 Frc consts  --      1.2395                 1.3925                 1.2400
 IR Inten    --      1.8219                 4.2283                 1.2130

                     64                     65                     66
                      A                      A                      A
 Frequencies --   1345.5115              1355.6696              1364.5165
 Red. masses --      1.2170                 1.2656                 1.2473
 Frc consts  --      1.2981                 1.3704                 1.3683
 IR Inten    --      5.9093                14.6229                 3.1468

                     67                     68                     69
                      A                      A                      A
 Frequencies --   1384.1985              1389.9541              1399.7786
 Red. masses --      1.4921                 1.3171                 1.3947
 Frc consts  --      1.6844                 1.4992                 1.6101
 IR Inten    --      7.3892                 8.9638                 5.5288

                     70                     71                     72
                      A                      A                      A
 Frequencies --   1404.4258              1416.1375              1420.6430
 Red. masses --      1.5051                 1.3704                 1.4240
 Frc consts  --      1.7491                 1.6192                 1.6933
 IR Inten    --      1.2665                 4.1870                 1.7499

                     73                     74                     75
                      A                      A                      A
 Frequencies --   1425.6014              1428.2252              1433.8345
 Red. masses --      1.3785                 1.2595                 1.2704
 Frc consts  --      1.6507                 1.5138                 1.5388
 IR Inten    --      4.4004                 6.1510                 3.8698

                     76                     77                     78
                      A                      A                      A
 Frequencies --   1440.4820              1443.5605              1501.4131
 Red. masses --      1.3826                 1.2750                 1.1776
 Frc consts  --      1.6904                 1.5655                 1.5641
 IR Inten    --      3.6938                 4.6040                38.9914

                     79                     80                     81
                      A                      A                      A
 Frequencies --   1508.0897              1516.2355              1517.5509
 Red. masses --      1.0818                 1.0721                 1.0826
 Frc consts  --      1.4496                 1.4522                 1.4689
 IR Inten    --      1.1825                 7.7779                 1.0872

                     82                     83                     84
                      A                      A                      A
 Frequencies --   1522.4153              1523.2023              1525.5533
 Red. masses --      1.0452                 1.0706                 1.0726
 Frc consts  --      1.4273                 1.4635                 1.4708
 IR Inten    --      4.8805                 6.9791                 2.8690

                     85                     86                     87
                      A                      A                      A
 Frequencies --   1530.1200              1532.0782              1534.8578
 Red. masses --      1.0693                 1.0767                 1.0904
 Frc consts  --      1.4751                 1.4891                 1.5134
 IR Inten    --      5.7511                 1.1408                20.8030

                     88                     89                     90
                      A                      A                      A
 Frequencies --   1537.2542              1542.1481              1542.5352
 Red. masses --      1.0695                 1.0680                 1.0657
 Frc consts  --      1.4891                 1.4964                 1.4941
 IR Inten    --     12.1864                 3.9388                 4.2464

                     91                     92                     93
                      A                      A                      A
 Frequencies --   1547.2876              1697.0466              2979.9688
 Red. masses --      1.0857                 1.0878                 1.0732
 Frc consts  --      1.5315                 1.8458                 5.6150
 IR Inten    --      7.0212                35.2739                84.9224

                     94                     95                     96
                      A                      A                      A
 Frequencies --   3005.7197              3020.9761              3026.3967
 Red. masses --      1.0807                 1.0658                 1.0644
 Frc consts  --      5.7525                 5.7308                 5.7439
 IR Inten    --      5.2034                35.4778                12.1820

                     97                     98                     99
                      A                      A                      A
 Frequencies --   3027.7107              3034.3602              3037.2229
 Red. masses --      1.0638                 1.0645                 1.0375
 Frc consts  --      5.7457                 5.7749                 5.6387
 IR Inten    --     34.1147                28.6488                29.8728

                    100                    101                    102
                      A                      A                      A
 Frequencies --   3039.9548              3043.8104              3045.7821
 Red. masses --      1.0663                 1.0426                 1.0423
 Frc consts  --      5.8061                 5.6915                 5.6967
 IR Inten    --     10.9095                13.3770                32.9451

                    103                    104                    105
                      A                      A                      A
 Frequencies --   3047.4916              3050.2614              3056.2509
 Red. masses --      1.0650                 1.0761                 1.0978
 Frc consts  --      5.8278                 5.8989                 6.0418
 IR Inten    --     14.3271                45.6319                 7.4170

                    106                    107                    108
                      A                      A                      A
 Frequencies --   3062.4229              3062.6945              3072.0991
 Red. masses --      1.0961                 1.0937                 1.0994
 Frc consts  --      6.0566                 6.0443                 6.1136
 IR Inten    --     45.5984                27.3641                52.6508

                    109                    110                    111
                      A                      A                      A
 Frequencies --   3077.9104              3092.2045              3100.3875
 Red. masses --      1.1008                 1.0970                 1.0955
 Frc consts  --      6.1443                 6.1798                 6.2040
 IR Inten    --    133.4814                44.7606                77.8109

                    112                    113                    114
                      A                      A                      A
 Frequencies --   3102.9650              3105.5617              3108.7254
 Red. masses --      1.0971                 1.1010                 1.1015
 Frc consts  --      6.2239                 6.2565                 6.2718
 IR Inten    --     11.5759                63.0537                50.2807

                    115                    116                    117
                      A                      A                      A
 Frequencies --   3115.5820              3115.7430              3143.7349
 Red. masses --      1.0990                 1.1019                 1.0997
 Frc consts  --      6.2850                 6.3027                 6.4034
 IR Inten    --     33.1852                49.9232                28.4585

                    118                    119                    120
                      A                      A                      A
 Frequencies --   3473.2302              3478.7325              3562.0039
 Red. masses --      1.0732                 1.0499                 1.0926
 Frc consts  --      7.6280                 7.4855                 8.1675
 IR Inten    --     11.3732                 0.8526                 0.0127

 - Thermochemistry -
 -------------------
 Temperature   298.150 Kelvin.  Pressure   1.00000 Atm.
 Atom     1 has atomic number  6 and mass  12.00000

 Molecular mass:   200.22525 amu.
 Principal axes and moments of inertia in atomic units:
                           1         2         3
     Eigenvalues --  2177.923815734.011286843.64256
           X            0.99999   0.00206  -0.00318
           Y           -0.00202   0.99991   0.01310
           Z            0.00320  -0.01309   0.99991
 This molecule is an asymmetric top.
 Rotational symmetry number  1.
 Warning -- assumption of classical behavior for rotation
           may cause significant error
 Rotational temperatures (Kelvin)      0.03977     0.01511     0.01266
 Rotational constants (GHZ):           0.82865     0.31474     0.26371
 Zero-point vibrational energy    1044690.6 (Joules/Mol)
                                  249.68704 (Kcal/Mol)
 Warning -- explicit consideration of  27 degrees of freedom as
           vibrations may cause significant error
 Vibrational temperatures:     40.12    44.67    79.37    86.87   108.31
          (Kelvin)            130.50   146.70   168.67   226.12   254.13
                              318.78   326.81   351.69   374.02   402.74
                              412.16   438.44   453.84   475.66   527.57
                              551.06   623.74   643.99   707.70   734.00
                              826.39   886.60  1031.63  1065.01  1094.63
                             1160.04  1167.48  1201.49  1223.37  1241.04
                             1278.73  1313.37  1335.23  1381.21  1384.91
                             1418.83  1434.02  1474.44  1485.69  1511.00
                             1512.34  1532.34  1560.25  1596.87  1615.64
                             1630.14  1644.63  1667.55  1718.90  1729.52
                             1738.78  1771.29  1802.15  1846.86  1857.61
                             1890.35  1921.20  1933.26  1935.89  1950.51
                             1963.23  1991.55  1999.83  2013.97  2020.66
                             2037.51  2043.99  2051.12  2054.90  2062.97
                             2072.53  2076.96  2160.20  2169.80  2181.52
                             2183.42  2190.42  2191.55  2194.93  2201.50
                             2204.32  2208.32  2211.77  2218.81  2219.36
                             2226.20  2441.67  4287.51  4324.56  4346.51
                             4354.31  4356.20  4365.77  4369.89  4373.82
                             4379.36  4382.20  4384.66  4388.65  4397.26
                             4406.14  4406.53  4420.07  4428.43  4448.99
                             4460.77  4464.47  4468.21  4472.76  4482.63
                             4482.86  4523.13  4997.20  5005.12  5124.93

 Zero-point correction=                           0.397902 (Hartree/Particle)
 Thermal correction to Energy=                    0.415959
 Thermal correction to Enthalpy=                  0.416903
 Thermal correction to Gibbs Free Energy=         0.350938
 Sum of electronic and zero-point Energies=           -583.311819
 Sum of electronic and thermal Energies=              -583.293762
 Sum of electronic and thermal Enthalpies=            -583.292818
 Sum of electronic and thermal Free Energies=         -583.358783

                     E (Thermal)             CV                S
                      KCal/Mol        Cal/Mol-Kelvin    Cal/Mol-Kelvin
 Total                  261.018             66.992            138.835
 Electronic               0.000              0.000              0.000
 Translational            0.889              2.981             41.787
 Rotational               0.889              2.981             32.813
 Vibrational            259.240             61.031             64.234
 Vibration     1          0.593              1.984              5.975
 Vibration     2          0.594              1.983              5.762
 Vibration     3          0.596              1.976              4.623
 Vibration     4          0.597              1.973              4.445
 Vibration     5          0.599              1.965              4.010
 Vibration     6          0.602              1.956              3.645
 Vibration     7          0.604              1.948              3.417
 Vibration     8          0.608              1.935              3.146
 Vibration     9          0.621              1.895              2.584
 Vibration    10          0.628              1.871              2.364
 Vibration    11          0.648              1.808              1.946
 Vibration    12          0.651              1.800              1.901
 Vibration    13          0.660              1.772              1.770
 Vibration    14          0.668              1.746              1.662
 Vibration    15          0.680              1.711              1.534
 Vibration    16          0.684              1.699              1.495
 Vibration    17          0.696              1.665              1.391
 Vibration    18          0.703              1.644              1.334
 Vibration    19          0.713              1.614              1.257
 Vibration    20          0.740              1.541              1.094
 Vibration    21          0.752              1.506              1.027
 Vibration    22          0.794              1.397              0.847
 Vibration    23          0.807              1.366              0.803
 Vibration    24          0.848              1.268              0.679
 Vibration    25          0.865              1.227              0.633
 Vibration    26          0.931              1.087              0.496
 Vibration    27          0.976              0.998              0.423

 Optimization completed.
    -- Stationary point found.
 Normal termination of Gaussian 16 at Thu Dec 10 11:26:14 2020.

 ----------------------------------------------------------------------
 # B3LYP/6-311++G(d,p) empiricaldispersion=gd3bj scf=xqc pop=npa geom=c
 heck
 ----------------------------------------------------------------------

 --------------------------------------
 CID_65383698_JID_4994_Energie_neutraal
 --------------------------------------
 Structure from the checkpoint file:  "JID_4994.chk"
 Charge =  0 Multiplicity = 1

 SCF Done:  E(RB3LYP) =  -583.885333506     A.U. after   14 cycles
 Normal termination of Gaussian 16 at Thu Dec 10 11:34:12 2020.

 ----------------------------------------------------------------------
 # B3LYP/6-311++G(d,p) empiricaldispersion=gd3bj scf=xqc pop=npa geom=c
 heck
 ----------------------------------------------------------------------

 ------------------------------------
 CID_65383698_JID_4994_Energie_kation
 ------------------------------------
 Structure from the checkpoint file:  "JID_4994.chk"
 Charge =  1 Multiplicity = 2

 SCF Done:  E(UB3LYP) =  -583.602137731     A.U. after   19 cycles
 Normal termination of Gaussian 16 at Thu Dec 10 11:49:25 2020.
 Gaussian 16:  ES64L-G16RevA.03 25-Dec-2016

 ----------------------------------------------------------------------
 # B3LYP/6-311++G(d,p) empiricaldispersion=gd3bj scf=xqc pop=npa geom=c
 heck
 ----------------------------------------------------------------------

 -----------------------------------
 CID_65383698_JID_4994_Energie_anion
 -----------------------------------
 Structure from the checkpoint file:  "JID_4994.chk"
 Charge = -1 Multiplicity = 2

                         Standard orientation:
 ---------------------------------------------------------------------
 Center     Atomic      Atomic             Coordinates (Angstroms)
 Number     Number       Type             X           Y           Z
 ---------------------------------------------------------------------
      1          6           0        4.993530   -1.034756   -0.152411
      2          6           0        3.552701   -1.542565   -0.044248
      3          6           0        2.702036   -0.788026    0.988656
      4          6           0        2.554694    0.720972    0.734819
      5          6           0        1.967618    1.091415   -0.637257
      6          6           0        0.606999    0.453255   -0.953042
      7          6           0       -0.522581    0.715983    0.063066
      8          6           0       -0.771853    2.220318    0.289008
      9          7           0       -1.305546    2.833619   -0.935226
     10          7           0       -1.726319    0.018324   -0.395101
     11          6           0       -2.504033   -0.723727    0.596061
     12          6           0       -3.153590    0.136443    1.694936
     13          6           0       -3.563347   -1.564448   -0.134789
     14          6           0       -2.968018   -2.578813   -1.111839
     15          1           0        5.032961   -0.001438   -0.514772
     16          1           0        5.578589   -1.649199   -0.845769
     17          1           0        5.494819   -1.062038    0.823223
     18          1           0        3.072096   -1.489338   -1.029755
     19          1           0        3.564847   -2.606415    0.226724
     20          1           0        1.706992   -1.249865    1.030418
     21          1           0        3.144276   -0.930929    1.984656
     22          1           0        1.926894    1.146413    1.528922
     23          1           0        3.533126    1.206990    0.839752
     24          1           0        1.891787    2.185892   -0.698778
     25          1           0        2.675634    0.802514   -1.424980
     26          1           0        0.264664    0.788689   -1.941144
     27          1           0        0.708907   -0.634096   -1.039922
     28          1           0       -0.225484    0.286750    1.028727
     29          1           0       -1.530362    2.339135    1.068496
     30          1           0        0.148723    2.699514    0.662597
     31          1           0       -1.629609    3.777968   -0.739108
     32          1           0       -0.565818    2.924469   -1.629254
     33          1           0       -2.311506    0.688508   -0.894344
     34          1           0       -1.803069   -1.420024    1.081183
     35          1           0       -3.837842    0.872151    1.253261
     36          1           0       -3.728381   -0.482968    2.394420
     37          1           0       -2.401430    0.680317    2.276254
     38          1           0       -4.181475   -2.079002    0.612748
     39          1           0       -4.239446   -0.881384   -0.671056
     40          1           0       -2.347988   -3.312460   -0.581361
     41          1           0       -3.752928   -3.127264   -1.644854
     42          1           0       -2.330848   -2.072803   -1.841749
 ---------------------------------------------------------------------

 SCF Done:  E(UB3LYP) =  -583.871623676     A.U. after   29 cycles

 The electronic state is 2-A.
 Alpha  occ. eigenvalues --  -14.19226 -14.18392 -10.10259 -10.09278 -10.08607
 Alpha  occ. eigenvalues --  -10.07485 -10.06915 -10.06565 -10.06548 -10.06392
 Alpha  occ. eigenvalues --  -10.06346 -10.06307 -10.06183 -10.05710  -0.81333
 Alpha  occ. eigenvalues --   -0.77383  -0.71448  -0.69345  -0.66669  -0.63413
 Alpha  occ. eigenvalues --   -0.61651  -0.58949  -0.55748  -0.53865  -0.51436
 Alpha  occ. eigenvalues --   -0.48692  -0.47169  -0.43815  -0.40633  -0.39398
 Alpha  occ. eigenvalues --   -0.37306  -0.36714  -0.35355  -0.34821  -0.34299
 Alpha  occ. eigenvalues --   -0.33072  -0.32821  -0.32346  -0.32036  -0.30516
 Alpha  occ. eigenvalues --   -0.29399  -0.29148  -0.28707  -0.27427  -0.26872
 Alpha  occ. eigenvalues --   -0.25928  -0.25390  -0.25143  -0.24513  -0.23792
 Alpha  occ. eigenvalues --   -0.23496  -0.22801  -0.21739  -0.21139  -0.20794
 Alpha  occ. eigenvalues --   -0.14849  -0.11704   0.04267
 Alpha virt. eigenvalues --    0.06048   0.06301   0.07043   0.07811   0.08032
 Alpha virt. eigenvalues --    0.08473   0.09011   0.09390   0.10075   0.10395
 Alpha virt. eigenvalues --    0.10648   0.11103   0.11321   0.11862   0.12359

  Beta  occ. eigenvalues --  -14.19177 -14.18387 -10.10254 -10.09275 -10.08583
  Beta  occ. eigenvalues --  -10.07478 -10.06902 -10.06559 -10.06536 -10.06375
  Beta  occ. eigenvalues --  -10.06318 -10.06295 -10.06163 -10.05701  -0.81310
  Beta  occ. eigenvalues --   -0.77312  -0.71420  -0.69323  -0.66643  -0.63389
  Beta  occ. eigenvalues --   -0.61616  -0.58893  -0.55695  -0.53832  -0.51380
  Beta  occ. eigenvalues --   -0.48663  -0.47124  -0.43767  -0.40586  -0.39371
  Beta  occ. eigenvalues --   -0.37270  -0.36688  -0.35327  -0.34777  -0.34260
  Beta  occ. eigenvalues --   -0.33042  -0.32796  -0.32316  -0.32007  -0.30484
  Beta  occ. eigenvalues --   -0.29377  -0.29118  -0.28682  -0.27401  -0.26845
  Beta  occ. eigenvalues --   -0.25898  -0.25372  -0.25119  -0.24486  -0.23769
  Beta  occ. eigenvalues --   -0.23470  -0.22781  -0.21717  -0.21109  -0.20767
  Beta  occ. eigenvalues --   -0.14799  -0.11687
  Beta virt. eigenvalues --    0.06126   0.06595   0.07182   0.07355   0.08072
  Beta virt. eigenvalues --    0.08353   0.08838   0.09387   0.09723   0.10279
  Beta virt. eigenvalues --    0.10596   0.10811   0.11401   0.11461   0.12209

 Mulliken charges and spin densities:
               1          2
     1  C    0.807229  -1.451788
     2  C   -1.055973   0.866271
     3  C    0.514354  -0.714543
     4  C    0.015930  -0.228073
     5  C    0.178073  -0.552033
     6  C   -0.134133   0.250858
     7  C   -1.640082   0.786164
     8  C    1.604839  -2.480635
     9  N   -0.611324   0.313481
    10  N    0.415965  -0.020973
    11  C   -0.370422   0.365981
    12  C    0.160991  -0.757516
    13  C   -0.145263  -0.029740
    14  C   -0.369854  -0.143149
    15  H   -0.057366   0.194140
    16  H   -0.217358   0.350276
    17  H   -0.141757   0.276826
    18  H    0.051011   0.072712
    19  H   -0.082437   0.222243
    20  H   -0.188305   0.333431
    21  H   -0.167588   0.327053
    22  H   -0.124059   0.264330
    23  H   -0.076854   0.253154
    24  H   -0.070423   0.233656
    25  H   -0.116185   0.292494
    26  H   -0.009405   0.183418
    27  H    0.236133  -0.048545
    28  H    0.692160  -0.528091
    29  H    0.060273   0.098750
    30  H   -0.316962   0.471299
    31  H   -0.297460   0.546317
    32  H    0.001091   0.220332
    33  H    0.300124   0.003167
    34  H    0.062066   0.057349
    35  H    0.036379   0.128842
    36  H   -0.087685   0.217361
    37  H   -0.200323   0.328354
    38  H    0.052596   0.067667
    39  H    0.066796   0.053067
    40  H    0.055814   0.059087
    41  H    0.042217   0.083434
    42  H    0.127176   0.033574
 Sum of Mulliken charges =  -1.00000   1.00000

 Dipole moment (field-independent basis, Debye):
    X=             -3.0423    Y=             -4.2816    Z=             -0.2109  Tot=              5.2567
 Quadrupole moment (field-independent basis, Debye-Ang):
   XX=           -173.8408   YY=           -154.5658   ZZ=           -129.4016
   XY=             10.3098   XZ=             -0.5870   YZ=              3.2340

 Summary of Natural Population Analysis:

                                       Natural Population
                Natural  -----------------------------------------------
    Atom  No    Charge         Core      Valence    Rydberg      Total
 -----------------------------------------------------------------------
      C    1   -0.28574      0.99967     2.28173    0.00434     3.28574
      C    2   -0.19285      0.99964     2.18490    0.00831     3.19285
      C    3   -0.19066      0.99963     2.18249    0.00854     3.19066
      C    4   -0.19266      0.99963     2.18445    0.00859     3.19266
      C    5   -0.19543      0.99962     2.18656    0.00925     3.19543
      C    6   -0.19365      0.99960     2.18361    0.01043     3.19365
      C    7   -0.01521      0.99958     2.00235    0.01328     3.01521
      C    8   -0.09623      0.99960     2.08496    0.01168     3.09623
      N    9   -0.43078      0.99977     2.91995    0.01106     3.93078
      N   10   -0.35438      0.99972     2.84285    0.01180     3.85438
      C   11   -0.00695      0.99960     1.99510    0.01225     3.00695
      C   12   -0.29469      0.99965     2.28909    0.00596     3.29469
      C   13   -0.18799      0.99962     2.18091    0.00746     3.18799
      C   14   -0.28629      0.99967     2.28209    0.00454     3.28629
      H   15    0.09691      0.00000     0.40196    0.00113     0.40309
      H   16    0.09747      0.00000     0.40148    0.00105     0.40253
      H   17    0.09526      0.00000     0.40346    0.00128     0.40474
      H   18    0.09373      0.00000     0.40501    0.00125     0.40627
      H   19    0.09458      0.00000     0.40444    0.00098     0.40542
      H   20    0.09562      0.00000     0.40294    0.00144     0.40438
      H   21    0.09532      0.00000     0.40362    0.00106     0.40468
      H   22    0.09632      0.00000     0.40238    0.00130     0.40368
      H   23    0.09711      0.00000     0.40171    0.00119     0.40289
      H   24    0.09846      0.00000     0.40013    0.00141     0.40154
      H   25    0.09647      0.00000     0.40248    0.00105     0.40353
      H   26    0.09890      0.00000     0.39991    0.00119     0.40110
      H   27    0.09949      0.00000     0.39906    0.00145     0.40051
      H   28    0.09244      0.00000     0.40536    0.00220     0.40756
      H   29    0.09241      0.00000     0.40603    0.00155     0.40759
      H   30    0.08425      0.00000     0.41366    0.00209     0.41575
      H   31    0.18107      0.00000     0.31535    0.00357     0.31893
      H   32    0.17565      0.00000     0.32209    0.00227     0.32435
      H   33    0.18332      0.00000     0.31369    0.00299     0.31668
      H   34    0.08568      0.00000     0.41252    0.00180     0.41432
      H   35    0.09757      0.00000     0.40130    0.00112     0.40243
      H   36    0.09608      0.00000     0.40296    0.00096     0.40392
      H   37    0.09975      0.00000     0.39923    0.00102     0.40025
      H   38    0.09348      0.00000     0.40551    0.00101     0.40652
      H   39    0.09210      0.00000     0.40679    0.00111     0.40790
      H   40    0.09384      0.00000     0.40511    0.00105     0.40616
      H   41    0.09241      0.00000     0.40673    0.00086     0.40759
      H   42    0.10783      0.00000     0.39097    0.00120     0.39217
 =======================================================================
   * Total *   -0.00000     13.99500    42.83692    0.16808    57.00000

 Normal termination of Gaussian 16 at Thu Dec 10 12:12:20 2020.
