 Gaussian 16, Revision A.03,

 -----------------------------------------------------------
 # opt freq B3LYP/6-31G(d) empiricaldispersion=gd3bj scf=xqc
 -----------------------------------------------------------

 ------------------------------
 CID_61622858_JID_5822_neutraal
 ------------------------------
 Symbolic Z-matrix:
 Charge =  0 Multiplicity = 1

 SCF Done:  E(RB3LYP) =  -978.241159005     A.U. after   14 cycles
 SCF Done:  E(RB3LYP) =  -978.248324674     A.U. after   12 cycles
 SCF Done:  E(RB3LYP) =  -978.246526739     A.U. after   12 cycles
 SCF Done:  E(RB3LYP) =  -978.249676505     A.U. after   12 cycles
 SCF Done:  E(RB3LYP) =  -978.250242262     A.U. after   12 cycles
 SCF Done:  E(RB3LYP) =  -978.249385520     A.U. after   12 cycles
 SCF Done:  E(RB3LYP) =  -978.250679194     A.U. after   12 cycles
 SCF Done:  E(RB3LYP) =  -978.251034776     A.U. after   11 cycles
 SCF Done:  E(RB3LYP) =  -978.251148790     A.U. after   12 cycles
 SCF Done:  E(RB3LYP) =  -978.251190485     A.U. after   11 cycles
 SCF Done:  E(RB3LYP) =  -978.259285544     A.U. after    9 cycles
 SCF Done:  E(RB3LYP) =  -978.259286130     A.U. after    8 cycles
 SCF Done:  E(RB3LYP) =  -978.259286427     A.U. after    7 cycles
 SCF Done:  E(RB3LYP) =  -978.259286467     A.U. after    7 cycles
 SCF Done:  E(RB3LYP) =  -978.259286461     A.U. after    7 cycles
 Optimization completed.
    -- Stationary point found.
 Normal termination of Gaussian 16 at Thu Dec 10 18:04:13 2020.

 --------------------------------------------------------------------
 #N Geom=AllCheck Guess=TCheck SCRF=Check GenChk RB3LYP/6-31G(d) Freq
 --------------------------------------------------------------------

 Structure from the checkpoint file:  "JID_5822.chk"
 ------------------------------
 CID_61622858_JID_5822_neutraal
 ------------------------------
 Charge =  0 Multiplicity = 1

 SCF Done:  E(RB3LYP) =  -978.259286461     A.U. after    1 cycles

  Exact polarizability: 170.256  12.581 141.180   0.697   4.021 143.540
 Approx polarizability: 235.205  26.528 199.435   1.581  17.891 239.089

                      1                      2                      3
                      A                      A                      A
 Frequencies --     29.8320                50.6803                64.1411
 Red. masses --      3.5407                 3.2216                 4.4386
 Frc consts  --      0.0019                 0.0049                 0.0108
 IR Inten    --      0.1361                 0.3018                 0.0299

                      4                      5                      6
                      A                      A                      A
 Frequencies --     69.2291                79.7833                87.0458
 Red. masses --      3.3189                 2.8047                 1.7879
 Frc consts  --      0.0094                 0.0105                 0.0080
 IR Inten    --      0.6937                 0.3466                 0.0253

                      7                      8                      9
                      A                      A                      A
 Frequencies --    121.4146               126.3424               183.3137
 Red. masses --      3.2751                 2.7739                 2.3009
 Frc consts  --      0.0284                 0.0261                 0.0456
 IR Inten    --      0.4702                 0.2428                 0.6354

                     10                     11                     12
                      A                      A                      A
 Frequencies --    188.6099               215.6905               234.0793
 Red. masses --      1.8429                 1.2156                 1.5023
 Frc consts  --      0.0386                 0.0333                 0.0485
 IR Inten    --      0.8583                 1.5441                 0.2965

                     13                     14                     15
                      A                      A                      A
 Frequencies --    246.6036               283.3702               296.5585
 Red. masses --      1.4254                 2.7017                 1.1416
 Frc consts  --      0.0511                 0.1278                 0.0592
 IR Inten    --      0.6856                 3.0585                55.6628

                     16                     17                     18
                      A                      A                      A
 Frequencies --    301.9992               312.0983               324.3819
 Red. masses --      2.8837                 3.5246                 2.3939
 Frc consts  --      0.1550                 0.2023                 0.1484
 IR Inten    --      0.0672                 1.9025                 7.0492

                     19                     20                     21
                      A                      A                      A
 Frequencies --    363.1669               381.6463               452.6457
 Red. masses --      2.7655                 3.5446                 3.0081
 Frc consts  --      0.2149                 0.3042                 0.3631
 IR Inten    --      1.7404                 6.3038                 2.9417

                     22                     23                     24
                      A                      A                      A
 Frequencies --    468.3397               482.6433               533.3829
 Red. masses --      3.8408                 2.8865                 2.9115
 Frc consts  --      0.4964                 0.3962                 0.4880
 IR Inten    --      0.3924                 7.4637                11.7772

                     25                     26                     27
                      A                      A                      A
 Frequencies --    576.6543               622.7714               672.5656
 Red. masses --      3.4761                 6.9600                 2.0372
 Frc consts  --      0.6810                 1.5904                 0.5429
 IR Inten    --      0.6918                 4.0833                23.9967

                     28                     29                     30
                      A                      A                      A
 Frequencies --    693.0985               731.1509               770.7613
 Red. masses --      1.5343                 3.9140                 1.1000
 Frc consts  --      0.4343                 1.2328                 0.3850
 IR Inten    --      0.6305                24.5312                 1.9825

                     31                     32                     33
                      A                      A                      A
 Frequencies --    786.7771               802.1656               830.1111
 Red. masses --      1.3963                 1.2836                 2.5951
 Frc consts  --      0.5093                 0.4866                 1.0536
 IR Inten    --     54.9382                 1.1119                 6.6074

                     34                     35                     36
                      A                      A                      A
 Frequencies --    845.5622               875.9282               889.8252
 Red. masses --      4.4993                 3.9447                 1.4745
 Frc consts  --      1.8953                 1.7832                 0.6879
 IR Inten    --     25.3390                 8.2168                 9.9028

                     37                     38                     39
                      A                      A                      A
 Frequencies --    892.6488               900.0787               908.9567
 Red. masses --      1.7609                 1.5560                 1.3247
 Frc consts  --      0.8267                 0.7427                 0.6448
 IR Inten    --     33.2871                47.0971                 3.9267

                     40                     41                     42
                      A                      A                      A
 Frequencies --    936.8778               954.0669               973.3828
 Red. masses --      1.6333                 2.2400                 2.5877
 Frc consts  --      0.8446                 1.2013                 1.4445
 IR Inten    --      1.8055                17.8242                 1.3838

                     43                     44                     45
                      A                      A                      A
 Frequencies --   1000.2183              1042.0724              1056.7854
 Red. masses --      1.8939                 1.7411                 2.8047
 Frc consts  --      1.1163                 1.1140                 1.8455
 IR Inten    --     11.6302                 3.4079                 0.7906

                     46                     47                     48
                      A                      A                      A
 Frequencies --   1081.0636              1093.7411              1118.5663
 Red. masses --      2.0470                 2.1522                 1.5099
 Frc consts  --      1.4095                 1.5169                 1.1131
 IR Inten    --     14.8996                37.7272                31.2256

                     49                     50                     51
                      A                      A                      A
 Frequencies --   1121.5039              1132.0860              1166.9560
 Red. masses --      1.4765                 2.0743                 1.9534
 Frc consts  --      1.0942                 1.5663                 1.5673
 IR Inten    --     13.8403                16.1104                 9.4058

                     52                     53                     54
                      A                      A                      A
 Frequencies --   1170.1319              1180.7884              1210.5130
 Red. masses --      1.9378                 1.8421                 2.2753
 Frc consts  --      1.5632                 1.5133                 1.9644
 IR Inten    --      3.6414                11.6944                14.2461

                     55                     56                     57
                      A                      A                      A
 Frequencies --   1242.6739              1249.2582              1285.2634
 Red. masses --      1.7932                 1.7131                 1.2936
 Frc consts  --      1.6315                 1.5752                 1.2590
 IR Inten    --      8.9859                 9.6936                 3.2402

                     58                     59                     60
                      A                      A                      A
 Frequencies --   1300.3710              1322.6724              1337.4601
 Red. masses --      1.2394                 1.3819                 1.1960
 Frc consts  --      1.2348                 1.4244                 1.2605
 IR Inten    --      1.9308                19.1300                 2.5079

                     61                     62                     63
                      A                      A                      A
 Frequencies --   1353.8132              1376.8697              1391.7781
 Red. masses --      1.1784                 1.4697                 1.3294
 Frc consts  --      1.2725                 1.6416                 1.5172
 IR Inten    --      2.7732                16.1084                 5.3449

                     64                     65                     66
                      A                      A                      A
 Frequencies --   1399.5024              1409.8294              1429.1567
 Red. masses --      1.4204                 1.3523                 1.3387
 Frc consts  --      1.6391                 1.5836                 1.6110
 IR Inten    --      6.2681                 5.2027                 1.7615

                     67                     68                     69
                      A                      A                      A
 Frequencies --   1432.6456              1436.0765              1438.5614
 Red. masses --      1.8590                 1.4506                 1.3230
 Frc consts  --      2.2480                 1.7625                 1.6131
 IR Inten    --     13.2569                 2.7560                26.1426

                     70                     71                     72
                      A                      A                      A
 Frequencies --   1440.6694              1447.2311              1470.3940
 Red. masses --      1.3325                 1.4203                 4.4299
 Frc consts  --      1.6295                 1.7527                 5.6430
 IR Inten    --      1.7266                 2.6520                10.2311

                     73                     74                     75
                      A                      A                      A
 Frequencies --   1515.4654              1518.0630              1521.0479
 Red. masses --      1.0493                 1.0587                 1.0554
 Frc consts  --      1.4199                 1.4375                 1.4387
 IR Inten    --      1.6494                 9.5593                 0.7556

                     76                     77                     78
                      A                      A                      A
 Frequencies --   1524.5133              1527.8947              1530.6821
 Red. masses --      1.0502                 1.0620                 1.0406
 Frc consts  --      1.4381                 1.4606                 1.4365
 IR Inten    --      0.6033                 1.3519                 6.2300

                     79                     80                     81
                      A                      A                      A
 Frequencies --   1536.6900              1539.5945              1553.6892
 Red. masses --      1.0708                 1.0691                 1.0854
 Frc consts  --      1.4898                 1.4930                 1.5437
 IR Inten    --      2.8763                 2.7825                 2.1670

                     82                     83                     84
                      A                      A                      A
 Frequencies --   1585.3614              1690.7561              2942.8280
 Red. masses --      5.2528                 1.0909                 1.0805
 Frc consts  --      7.7785                 1.8374                 5.5134
 IR Inten    --      0.8010                39.2086                62.1202

                     85                     86                     87
                      A                      A                      A
 Frequencies --   2961.1068              3042.1584              3042.9090
 Red. masses --      1.0723                 1.0619                 1.0370
 Frc consts  --      5.5393                 5.7905                 5.6574
 IR Inten    --     46.0620                 7.9840                25.7634

                     88                     89                     90
                      A                      A                      A
 Frequencies --   3049.3021              3050.7028              3055.0363
 Red. masses --      1.0401                 1.0597                 1.0388
 Frc consts  --      5.6980                 5.8110                 5.7122
 IR Inten    --     37.0884                52.3357                28.0722

                     91                     92                     93
                      A                      A                      A
 Frequencies --   3067.1373              3072.5312              3082.6952
 Red. masses --      1.0870                 1.0910                 1.0983
 Frc consts  --      6.0251                 6.0683                 6.1493
 IR Inten    --     20.5903                 2.2079                27.4361

                     94                     95                     96
                      A                      A                      A
 Frequencies --   3087.1931              3110.2706              3111.8388
 Red. masses --      1.0980                 1.1030                 1.1000
 Frc consts  --      6.1658                 6.2868                 6.2760
 IR Inten    --     18.3268                56.8682                48.1049

                     97                     98                     99
                      A                      A                      A
 Frequencies --   3115.1167              3117.1858              3146.1844
 Red. masses --      1.1003                 1.1013                 1.1007
 Frc consts  --      6.2906                 6.3047                 6.4194
 IR Inten    --     41.3991                43.5581                24.3328

                    100                    101                    102
                      A                      A                      A
 Frequencies --   3156.0632              3215.7507              3271.9610
 Red. masses --      1.0991                 1.0910                 1.0956
 Frc consts  --      6.4503                 6.6470                 6.9104
 IR Inten    --     18.5906                 3.8004                 1.0052

                    103                    104                    105
                      A                      A                      A
 Frequencies --   3274.2792              3465.9828              3550.5906
 Red. masses --      1.0941                 1.0497                 1.0920
 Frc consts  --      6.9112                 7.4298                 8.1111
 IR Inten    --      1.3014                 3.1836                 0.2572

 - Thermochemistry -
 -------------------
 Temperature   298.150 Kelvin.  Pressure   1.00000 Atm.
 Atom     1 has atomic number  6 and mass  12.00000

 Molecular mass:   226.15037 amu.
 Principal axes and moments of inertia in atomic units:
                           1         2         3
     Eigenvalues --  2985.878434696.774355669.79176
           X            0.99891  -0.03914  -0.02558
           Y            0.03839   0.99884  -0.02900
           Z            0.02669   0.02799   0.99925
 This molecule is an asymmetric top.
 Rotational symmetry number  1.
 Warning -- assumption of classical behavior for rotation
           may cause significant error
 Rotational temperatures (Kelvin)      0.02901     0.01844     0.01528
 Rotational constants (GHZ):           0.60443     0.38425     0.31831
 Zero-point vibrational energy     865687.3 (Joules/Mol)
                                  206.90423 (Kcal/Mol)
 Warning -- explicit consideration of  25 degrees of freedom as
           vibrations may cause significant error
 Vibrational temperatures:     42.92    72.92    92.28    99.61   114.79
          (Kelvin)            125.24   174.69   181.78   263.75   271.37
                              310.33   336.79   354.81   407.71   426.68
                              434.51   449.04   466.71   522.52   549.10
                              651.26   673.84   694.42   767.42   829.68
                              896.03   967.67   997.21  1051.96  1108.95
                             1132.00  1154.14  1194.34  1216.58  1260.27
                             1280.26  1284.32  1295.01  1307.79  1347.96
                             1372.69  1400.48  1439.09  1499.31  1520.48
                             1555.41  1573.65  1609.37  1613.59  1628.82
                             1678.99  1683.56  1698.89  1741.66  1787.93
                             1797.40  1849.21  1870.94  1903.03  1924.31
                             1947.84  1981.01  2002.46  2013.57  2028.43
                             2056.24  2061.26  2066.19  2069.77  2072.80
                             2082.24  2115.57  2180.42  2184.15  2188.45
                             2193.43  2198.30  2202.31  2210.95  2215.13
                             2235.41  2280.98  2432.62  4234.07  4260.37
                             4376.99  4378.07  4387.27  4389.28  4395.52
                             4412.93  4420.69  4435.31  4441.78  4474.99
                             4477.24  4481.96  4484.94  4526.66  4540.87
                             4626.75  4707.62  4710.96  4986.78  5108.51

 Zero-point correction=                           0.329723 (Hartree/Particle)
 Thermal correction to Energy=                    0.347129
 Thermal correction to Enthalpy=                  0.348073
 Thermal correction to Gibbs Free Energy=         0.283973
 Sum of electronic and zero-point Energies=           -977.929564
 Sum of electronic and thermal Energies=              -977.912157
 Sum of electronic and thermal Enthalpies=            -977.911213
 Sum of electronic and thermal Free Energies=         -977.975313

                     E (Thermal)             CV                S
                      KCal/Mol        Cal/Mol-Kelvin    Cal/Mol-Kelvin
 Total                  217.827             64.947            134.910
 Electronic               0.000              0.000              0.000
 Translational            0.889              2.981             42.150
 Rotational               0.889              2.981             32.741
 Vibrational            216.049             58.986             60.018
 Vibration     1          0.594              1.984              5.841
 Vibration     2          0.595              1.977              4.791
 Vibration     3          0.597              1.971              4.326
 Vibration     4          0.598              1.969              4.175
 Vibration     5          0.600              1.963              3.896
 Vibration     6          0.601              1.958              3.725
 Vibration     7          0.609              1.931              3.078
 Vibration     8          0.611              1.927              3.001
 Vibration     9          0.631              1.863              2.294
 Vibration    10          0.633              1.856              2.241
 Vibration    11          0.645              1.817              1.995
 Vibration    12          0.654              1.789              1.847
 Vibration    13          0.661              1.768              1.755
 Vibration    14          0.682              1.704              1.513
 Vibration    15          0.690              1.680              1.436
 Vibration    16          0.694              1.670              1.406
 Vibration    17          0.700              1.651              1.351
 Vibration    18          0.709              1.627              1.288
 Vibration    19          0.737              1.548              1.109
 Vibration    20          0.751              1.509              1.033
 Vibration    21          0.811              1.355              0.788
 Vibration    22          0.826              1.320              0.742
 Vibration    23          0.839              1.289              0.703
 Vibration    24          0.888              1.176              0.580
 Vibration    25          0.933              1.082              0.492

 Optimization completed.
    -- Stationary point found.
 Normal termination of Gaussian 16 at Thu Dec 10 18:17:41 2020.

 ----------------------------------------------------------------------
 # B3LYP/6-311++G(d,p) empiricaldispersion=gd3bj scf=xqc pop=npa geom=c
 heck
 ----------------------------------------------------------------------

 --------------------------------------
 CID_61622858_JID_5822_Energie_neutraal
 --------------------------------------
 Structure from the checkpoint file:  "JID_5822.chk"
 Charge =  0 Multiplicity = 1

 SCF Done:  E(RB3LYP) =  -978.452898126     A.U. after   15 cycles
 Normal termination of Gaussian 16 at Thu Dec 10 18:24:50 2020.

 ----------------------------------------------------------------------
 # B3LYP/6-311++G(d,p) empiricaldispersion=gd3bj scf=xqc pop=npa geom=c
 heck
 ----------------------------------------------------------------------

 ------------------------------------
 CID_61622858_JID_5822_Energie_kation
 ------------------------------------
 Structure from the checkpoint file:  "JID_5822.chk"
 Charge =  1 Multiplicity = 2

 SCF Done:  E(UB3LYP) =  -978.180176832     A.U. after   25 cycles
 Normal termination of Gaussian 16 at Thu Dec 10 18:41:36 2020.
 Gaussian 16:  ES64L-G16RevA.03 25-Dec-2016

 ----------------------------------------------------------------------
 # B3LYP/6-311++G(d,p) empiricaldispersion=gd3bj scf=xqc pop=npa geom=c
 heck
 ----------------------------------------------------------------------

 -----------------------------------
 CID_61622858_JID_5822_Energie_anion
 -----------------------------------
 Structure from the checkpoint file:  "JID_5822.chk"
 Charge = -1 Multiplicity = 2

                         Standard orientation:
 ---------------------------------------------------------------------
 Center     Atomic      Atomic             Coordinates (Angstroms)
 Number     Number       Type             X           Y           Z
 ---------------------------------------------------------------------
      1          6           0       -3.645331    1.554505    1.769318
      2          6           0       -3.168758    0.975520    0.435096
      3          6           0       -1.700800    0.544532    0.498360
      4          7           0       -1.259670   -0.166513   -0.696769
      5          6           0       -1.362127    0.603207   -1.939090
      6          6           0       -0.662023    1.971156   -1.986943
      7          6           0       -0.025796   -0.952509   -0.556053
      8          6           0        1.210166   -0.159229   -0.144649
      9          6           0        1.449839    0.358274    1.104410
     10         16           0        2.945781    1.237934    1.182060
     11          6           0        3.275416    0.899316   -0.487827
     12          6           0        2.278424    0.154109   -1.050983
     13          6           0       -0.222811   -2.192953    0.349003
     14          6           0       -1.421487   -3.024640   -0.096286
     15          7           0        0.994894   -3.010150    0.242246
     16          1           0       -3.569754    0.812338    2.573446
     17          1           0       -4.689659    1.879540    1.712454
     18          1           0       -3.041751    2.422371    2.061895
     19          1           0       -3.778205    0.106980    0.155492
     20          1           0       -3.310388    1.725049   -0.352911
     21          1           0       -1.074865    1.426365    0.724493
     22          1           0       -1.587012   -0.134689    1.350156
     23          1           0       -0.973191   -0.033559   -2.741756
     24          1           0       -2.427167    0.746892   -2.159022
     25          1           0        0.415212    1.885346   -1.822451
     26          1           0       -0.824565    2.434856   -2.967153
     27          1           0       -1.062673    2.654566   -1.230412
     28          1           0        0.180422   -1.363957   -1.550020
     29          1           0        0.834751    0.277596    1.989282
     30          1           0        4.183903    1.263404   -0.947699
     31          1           0        2.289043   -0.175979   -2.084435
     32          1           0       -0.402255   -1.851644    1.384592
     33          1           0       -1.261705   -3.390829   -1.116503
     34          1           0       -1.554481   -3.893821    0.559804
     35          1           0       -2.335695   -2.427839   -0.080474
     36          1           0        1.786750   -2.485989    0.611854
     37          1           0        0.895963   -3.835040    0.831929
 ---------------------------------------------------------------------

 SCF Done:  E(UB3LYP) =  -978.439116126     A.U. after   33 cycles
 SCF Done:  E(UB3LYP) =  -978.439116125     a.u. after    1 cycles

 The electronic state is 2-A.
 Alpha  occ. eigenvalues --  -88.78339 -14.20204 -14.19226 -10.10633 -10.10549
 Alpha  occ. eigenvalues --  -10.09998 -10.09818 -10.09465 -10.08756 -10.08434
 Alpha  occ. eigenvalues --  -10.08306 -10.06565 -10.06000 -10.05766 -10.05422
 Alpha  occ. eigenvalues --   -7.86943  -5.83223  -5.82858  -5.82564  -0.82990
 Alpha  occ. eigenvalues --   -0.78899  -0.78275  -0.68542  -0.66966  -0.64331
 Alpha  occ. eigenvalues --   -0.63233  -0.62880  -0.58742  -0.55714  -0.51505
 Alpha  occ. eigenvalues --   -0.49224  -0.47049  -0.46138  -0.44781  -0.41079
 Alpha  occ. eigenvalues --   -0.39626  -0.39490  -0.37028  -0.36170  -0.34093
 Alpha  occ. eigenvalues --   -0.33579  -0.31799  -0.31695  -0.31006  -0.30766
 Alpha  occ. eigenvalues --   -0.29608  -0.29011  -0.28475  -0.28019  -0.27038
 Alpha  occ. eigenvalues --   -0.26483  -0.26129  -0.26016  -0.24518  -0.24366
 Alpha  occ. eigenvalues --   -0.23607  -0.23422  -0.22708  -0.16044  -0.15205
 Alpha  occ. eigenvalues --   -0.14180  -0.11049   0.04302
 Alpha virt. eigenvalues --    0.06215   0.06537   0.06746   0.07227   0.07909
 Alpha virt. eigenvalues --    0.08414   0.09073   0.09319   0.09684   0.10518
 Alpha virt. eigenvalues --    0.10976   0.11098   0.11738   0.12105   0.12356

  Beta  occ. eigenvalues --  -88.78332 -14.20203 -14.19206 -10.10633 -10.10509
  Beta  occ. eigenvalues --  -10.09962 -10.09803 -10.09455 -10.08744 -10.08427
  Beta  occ. eigenvalues --  -10.08297 -10.06549 -10.05964 -10.05744 -10.05405
  Beta  occ. eigenvalues --   -7.86936  -5.83219  -5.82853  -5.82544  -0.82977
  Beta  occ. eigenvalues --   -0.78865  -0.78233  -0.68512  -0.66936  -0.64293
  Beta  occ. eigenvalues --   -0.63171  -0.62844  -0.58699  -0.55671  -0.51440
  Beta  occ. eigenvalues --   -0.49165  -0.46978  -0.46094  -0.44735  -0.41049
  Beta  occ. eigenvalues --   -0.39584  -0.39467  -0.36997  -0.36146  -0.34059
  Beta  occ. eigenvalues --   -0.33548  -0.31768  -0.31661  -0.30977  -0.30728
  Beta  occ. eigenvalues --   -0.29570  -0.28923  -0.28446  -0.27988  -0.27007
  Beta  occ. eigenvalues --   -0.26441  -0.26094  -0.25978  -0.24483  -0.24338
  Beta  occ. eigenvalues --   -0.23575  -0.23397  -0.22677  -0.15961  -0.15116
  Beta  occ. eigenvalues --   -0.14069  -0.11033
  Beta virt. eigenvalues --    0.06287   0.06828   0.07036   0.07336   0.07651
  Beta virt. eigenvalues --    0.08340   0.08781   0.09454   0.09562   0.09984
  Beta virt. eigenvalues --    0.10689   0.11209   0.11382   0.11926   0.12347

 Mulliken charges and spin densities:
               1          2
     1  C    0.920696  -1.581036
     2  C   -0.320754   0.280186
     3  C   -0.746813   0.254354
     4  N    0.375860   0.095990
     5  C   -0.581274   0.496827
     6  C    0.241438  -0.818881
     7  C    0.281802  -1.047754
     8  C    2.020507  -2.312209
     9  C   -0.917497   1.429312
    10  S    0.107922  -0.440920
    11  C    0.719472  -0.997864
    12  C   -2.023146   1.890486
    13  C    0.000003  -0.219048
    14  C    0.494086  -1.027679
    15  N   -0.486048   0.186573
    16  H   -0.512422   0.655692
    17  H   -0.274902   0.420344
    18  H   -0.165895   0.299613
    19  H   -0.039810   0.185087
    20  H    0.045509   0.077766
    21  H    0.272509  -0.114148
    22  H    1.293436  -1.172846
    23  H   -0.096878   0.203602
    24  H   -0.017396   0.196886
    25  H    0.234909  -0.054078
    26  H   -0.332167   0.469989
    27  H   -0.071014   0.215466
    28  H    0.283444  -0.105662
    29  H   -0.739928   1.053969
    30  H   -0.076466   0.321811
    31  H   -0.234738   0.411259
    32  H   -0.717750   0.896143
    33  H    0.093973   0.046517
    34  H   -0.265758   0.406407
    35  H    0.044309   0.090621
    36  H    0.163693   0.096593
    37  H    0.027087   0.210631
 Sum of Mulliken charges =  -1.00000   1.00000

 Dipole moment (field-independent basis, Debye):
    X=              3.5964    Y=              0.7260    Z=             -2.8303  Tot=              4.6338
 Quadrupole moment (field-independent basis, Debye-Ang):
   XX=           -162.4583   YY=           -155.6669   ZZ=           -151.4003
   XY=              7.5986   XZ=              9.0963   YZ=              4.8405

 Summary of Natural Population Analysis:

                                       Natural Population
                Natural  -----------------------------------------------
    Atom  No    Charge         Core      Valence    Rydberg      Total
 -----------------------------------------------------------------------
      C    1   -0.28224      0.99967     2.27851    0.00406     3.28224
      C    2   -0.19308      0.99964     2.18588    0.00756     3.19308
      C    3   -0.08930      0.99959     2.07786    0.01185     3.08930
      N    4   -0.27934      0.99971     2.76668    0.01295     3.77934
      C    5   -0.08157      0.99962     2.07089    0.01106     3.08157
      C    6   -0.29976      0.99965     2.29519    0.00492     3.29976
      C    7   -0.00738      0.99951     1.99260    0.01527     3.00738
      C    8   -0.05172      0.99946     2.03867    0.01359     3.05172
      C    9   -0.19054      0.99944     2.17849    0.01261     3.19054
      S   10    0.20077      4.99945     2.77886    0.02091     7.79923
      C   11   -0.18953      0.99953     2.17966    0.01034     3.18953
      C   12   -0.12472      0.99948     2.11397    0.01127     3.12472
      C   13   -0.01422      0.99959     2.00229    0.01234     3.01422
      C   14   -0.28724      0.99964     2.28049    0.00711     3.28724
      N   15   -0.42656      0.99976     2.91678    0.01002     3.92656
      H   16    0.09748      0.00000     0.40097    0.00155     0.40252
      H   17    0.09837      0.00000     0.40054    0.00109     0.40163
      H   18    0.09612      0.00000     0.40259    0.00129     0.40388
      H   19    0.09620      0.00000     0.40237    0.00143     0.40380
      H   20    0.09332      0.00000     0.40540    0.00128     0.40668
      H   21    0.08412      0.00000     0.41306    0.00282     0.41588
      H   22    0.09598      0.00000     0.40169    0.00233     0.40402
      H   23    0.09202      0.00000     0.40693    0.00105     0.40798
      H   24    0.09173      0.00000     0.40705    0.00121     0.40827
      H   25    0.10250      0.00000     0.39600    0.00150     0.39750
      H   26    0.09741      0.00000     0.40144    0.00115     0.40259
      H   27    0.09750      0.00000     0.40143    0.00106     0.40250
      H   28    0.10250      0.00000     0.39521    0.00228     0.39750
      H   29    0.11582      0.00000     0.38237    0.00181     0.38418
      H   30    0.10858      0.00000     0.39057    0.00085     0.39142
      H   31    0.10837      0.00000     0.39060    0.00103     0.39163
      H   32    0.08082      0.00000     0.41560    0.00358     0.41918
      H   33    0.09774      0.00000     0.40122    0.00104     0.40226
      H   34    0.09664      0.00000     0.40246    0.00090     0.40336
      H   35    0.10817      0.00000     0.39052    0.00131     0.39183
      H   36    0.17977      0.00000     0.31845    0.00178     0.32023
      H   37    0.17526      0.00000     0.32319    0.00155     0.32474
 =======================================================================
   * Total *   -0.00000     18.99374    42.80650    0.19976    62.00000

 Normal termination of Gaussian 16 at Thu Dec 10 19:03:43 2020.
