 Gaussian 16, Revision A.03,

 -----------------------------------------------------------
 # opt freq B3LYP/6-31G(d) empiricaldispersion=gd3bj scf=xqc
 -----------------------------------------------------------

 -----------------------------
 CID_88052940_JID_620_neutraal
 -----------------------------
 Symbolic Z-matrix:
 Charge =  0 Multiplicity = 1

 SCF Done:  E(RB3LYP) =  -536.787468562     A.U. after   14 cycles
 SCF Done:  E(RB3LYP) =  -536.792191270     A.U. after   12 cycles
 SCF Done:  E(RB3LYP) =  -536.792628385     A.U. after   11 cycles
 SCF Done:  E(RB3LYP) =  -536.792596606     A.U. after   12 cycles
 SCF Done:  E(RB3LYP) =  -536.793044270     A.U. after   11 cycles
 SCF Done:  E(RB3LYP) =  -536.793083373     A.U. after   10 cycles
 SCF Done:  E(RB3LYP) =  -536.793106223     A.U. after   11 cycles
 SCF Done:  E(RB3LYP) =  -536.793138654     A.U. after   11 cycles
 SCF Done:  E(RB3LYP) =  -536.793198832     A.U. after   12 cycles
 SCF Done:  E(RB3LYP) =  -536.793270369     A.U. after   14 cycles
 SCF Done:  E(RB3LYP) =  -536.795159750     A.U. after   10 cycles
 SCF Done:  E(RB3LYP) =  -536.795167530     A.U. after   10 cycles
 SCF Done:  E(RB3LYP) =  -536.795169573     A.U. after    9 cycles
 SCF Done:  E(RB3LYP) =  -536.795170039     A.U. after    8 cycles
 SCF Done:  E(RB3LYP) =  -536.795170132     A.U. after    7 cycles
 SCF Done:  E(RB3LYP) =  -536.795170155     A.U. after    7 cycles
 Optimization completed.
    -- Stationary point found.

 1\1\GINC-NODE317\FOpt\RB3LYP\6-31G(d)\C6H12O4\VSC10255\08-Dec-2020\0\\
 # opt freq B3LYP/6-31G(d) empiricaldispersion=gd3bj scf=xqc\\CID_88052
 940_JID_620_neutraal\\0,1\C,0.5614478057,-0.6795504539,0.5417594445\C,
 1.8927426195,-0.6164142069,1.2729540122\O,1.9356568235,0.5060224513,2.
 1854379326\C,2.2545810997,1.7032674325,1.6483750727\O,2.5166864865,1.8
 691923055,0.4742588254\C,2.2473079681,2.7830518297,2.7102257151\C,2.54
 21815861,4.177068169,2.1569750147\C,1.4527559367,4.721763672,1.2381563
 295\O,0.2423980456,4.7025834737,1.9750627321\O,1.748522583,6.020814415

 Normal termination of Gaussian 16 at Tue Dec  8 13:33:21 2020.

 --------------------------------------------------------------------
 #N Geom=AllCheck Guess=TCheck SCRF=Check GenChk RB3LYP/6-31G(d) Freq
 --------------------------------------------------------------------

 Structure from the checkpoint file:  "JID_620.chk"
 -----------------------------
 CID_88052940_JID_620_neutraal
 -----------------------------
 Charge =  0 Multiplicity = 1

 SCF Done:  E(RB3LYP) =  -536.795170155     A.U. after    1 cycles

  Exact polarizability:  91.272  -3.141  68.210   1.120   2.103  66.477
 Approx polarizability: 106.337  -1.247  92.853   4.664   8.102 107.956

                      1                      2                      3
                      A                      A                      A
 Frequencies --     24.0870                43.6605                84.1078
 Red. masses --      4.5613                 4.3851                 3.5140
 Frc consts  --      0.0016                 0.0049                 0.0146
 IR Inten    --      0.3863                 0.1119                 1.2423

                      4                      5                      6
                      A                      A                      A
 Frequencies --     95.2847               124.5176               199.1558
 Red. masses --      5.2606                 3.6638                 1.7879
 Frc consts  --      0.0281                 0.0335                 0.0418
 IR Inten    --      1.0311                 1.9274                 2.2514

                      7                      8                      9
                      A                      A                      A
 Frequencies --    233.6322               265.7995               305.0653
 Red. masses --      1.9080                 1.8245                 2.6600
 Frc consts  --      0.0614                 0.0759                 0.1459
 IR Inten    --      1.3992                 2.2663                13.9137

                     10                     11                     12
                      A                      A                      A
 Frequencies --    348.6454               367.2459               395.2903
 Red. masses --      3.1112                 1.3060                 1.4387
 Frc consts  --      0.2228                 0.1038                 0.1324
 IR Inten    --      5.9975               124.8100                17.6279

                     13                     14                     15
                      A                      A                      A
 Frequencies --    437.1102               479.9696               552.0718
 Red. masses --      2.7443                 2.1074                 3.1498
 Frc consts  --      0.3089                 0.2860                 0.5656
 IR Inten    --     14.4493                53.3453                35.0905

                     16                     17                     18
                      A                      A                      A
 Frequencies --    570.8467               601.5160               669.6939
 Red. masses --      2.4072                 3.4196                 3.8106
 Frc consts  --      0.4622                 0.7290                 1.0069
 IR Inten    --     26.8054                25.1923                 5.5949

                     19                     20                     21
                      A                      A                      A
 Frequencies --    798.4906               829.1052               881.8823
 Red. masses --      1.3960                 2.0115                 2.9660
 Frc consts  --      0.5244                 0.8147                 1.3591
 IR Inten    --      3.8027                 3.6758                11.0834

                     22                     23                     24
                      A                      A                      A
 Frequencies --    902.8599               967.1904              1000.3321
 Red. masses --      2.6132                 2.3884                 2.1007
 Frc consts  --      1.2550                 1.3164                 1.2385
 IR Inten    --      2.5546                63.0031                 4.3437

                     25                     26                     27
                      A                      A                      A
 Frequencies --   1045.4079              1074.9942              1090.7973
 Red. masses --      3.3715                 4.1744                 2.1137
 Frc consts  --      2.1709                 2.8422                 1.4818
 IR Inten    --     41.5349               196.4822                26.7136

                     28                     29                     30
                      A                      A                      A
 Frequencies --   1109.3322              1133.3901              1187.4316
 Red. masses --      3.2067                 1.9510                 1.4237
 Frc consts  --      2.3251                 1.4766                 1.1827
 IR Inten    --     89.5833                20.0670               144.8011

                     31                     32                     33
                      A                      A                      A
 Frequencies --   1208.0588              1235.5096              1253.0734
 Red. masses --      1.7103                 1.7377                 1.6343
 Frc consts  --      1.4706                 1.5629                 1.5120
 IR Inten    --      7.0102               210.7353               108.9281

                     34                     35                     36
                      A                      A                      A
 Frequencies --   1291.0108              1343.5200              1347.8928
 Red. masses --      1.2099                 1.1264                 1.2661
 Frc consts  --      1.1881                 1.1979                 1.3553
 IR Inten    --     28.7080                 3.1990                49.1435

                     37                     38                     39
                      A                      A                      A
 Frequencies --   1392.4251              1401.3744              1426.2293
 Red. masses --      1.4008                 1.4474                 1.4353
 Frc consts  --      1.6002                 1.6747                 1.7201
 IR Inten    --      3.2692                36.8620                34.9921

                     40                     41                     42
                      A                      A                      A
 Frequencies --   1445.1265              1453.1023              1476.9865
 Red. masses --      1.3560                 1.2967                 1.4126
 Frc consts  --      1.6685                 1.6132                 1.8156
 IR Inten    --      8.1075                 9.9230                43.0879

                     43                     44                     45
                      A                      A                      A
 Frequencies --   1487.1788              1500.9789              1516.2180
 Red. masses --      1.1151                 1.1159                 1.0496
 Frc consts  --      1.4531                 1.4812                 1.4217
 IR Inten    --     28.2913                 7.9365                 7.9158

                     46                     47                     48
                      A                      A                      A
 Frequencies --   1519.7792              1538.3220              1813.1900
 Red. masses --      1.0842                 1.0579                10.6719
 Frc consts  --      1.4754                 1.4750                20.6719
 IR Inten    --      5.5205                 6.1991               180.5508

                     49                     50                     51
                      A                      A                      A
 Frequencies --   3045.3222              3061.7437              3067.1671
 Red. masses --      1.0681                 1.0362                 1.0664
 Frc consts  --      5.8363                 5.7232                 5.9109
 IR Inten    --     28.3406                15.9736                14.1790

                     52                     53                     54
                      A                      A                      A
 Frequencies --   3094.0250              3102.9670              3112.6628
 Red. masses --      1.0589                 1.0865                 1.0959
 Frc consts  --      5.9724                 6.1635                 6.2557
 IR Inten    --     27.0115                17.2057                12.1289

                     55                     56                     57
                      A                      A                      A
 Frequencies --   3127.9044              3128.4823              3139.4466
 Red. masses --      1.1016                 1.0960                 1.1045
 Frc consts  --      6.3503                 6.3204                 6.4137
 IR Inten    --     20.6198                21.6471                 7.7295

                     58                     59                     60
                      A                      A                      A
 Frequencies --   3159.3370              3706.3917              3741.3119
 Red. masses --      1.1073                 1.0651                 1.0657
 Frc consts  --      6.5121                 8.6204                 8.7890
 IR Inten    --     30.7585                 9.2833                20.0467

 - Thermochemistry -
 -------------------
 Temperature   298.150 Kelvin.  Pressure   1.00000 Atm.
 Atom     1 has atomic number  6 and mass  12.00000

 Molecular mass:   148.07356 amu.
 Principal axes and moments of inertia in atomic units:
                           1         2         3
     Eigenvalues --   656.179613053.052073163.75639
           X            0.99979  -0.02024  -0.00263
           Y            0.02027   0.99973   0.01170
           Z            0.00240  -0.01175   0.99993
 This molecule is an asymmetric top.
 Rotational symmetry number  1.
 Warning -- assumption of classical behavior for rotation
           may cause significant error
 Rotational temperatures (Kelvin)      0.13200     0.02837     0.02738
 Rotational constants (GHZ):           2.75038     0.59113     0.57044
 Zero-point vibrational energy     490203.7 (Joules/Mol)
                                  117.16149 (Kcal/Mol)
 Warning -- explicit consideration of  17 degrees of freedom as
           vibrations may cause significant error
 Vibrational temperatures:     34.66    62.82   121.01   137.09   179.15
          (Kelvin)            286.54   336.14   382.43   438.92   501.62
                              528.38   568.73   628.90   690.57   794.31
                              821.32   865.45   963.54  1148.85  1192.90
                             1268.83  1299.01  1391.57  1439.25  1504.11
                             1546.68  1569.41  1596.08  1630.70  1708.45
                             1738.13  1777.62  1802.89  1857.48  1933.03
                             1939.32  2003.39  2016.27  2052.03  2079.21
                             2090.69  2125.05  2139.72  2159.57  2181.50
                             2186.62  2213.30  2608.78  4381.54  4405.17
                             4412.97  4451.61  4464.48  4478.43  4500.36
                             4501.19  4516.96  4545.58  5332.67  5382.91

 Zero-point correction=                           0.186709 (Hartree/Particle)
 Thermal correction to Energy=                    0.198237
 Thermal correction to Enthalpy=                  0.199181
 Thermal correction to Gibbs Free Energy=         0.147842
 Sum of electronic and zero-point Energies=           -536.608461
 Sum of electronic and thermal Energies=              -536.596933
 Sum of electronic and thermal Enthalpies=            -536.595989
 Sum of electronic and thermal Free Energies=         -536.647328

                     E (Thermal)             CV                S
                      KCal/Mol        Cal/Mol-Kelvin    Cal/Mol-Kelvin
 Total                  124.396             40.871            108.052
 Electronic               0.000              0.000              0.000
 Translational            0.889              2.981             40.888
 Rotational               0.889              2.981             30.228
 Vibrational            122.618             34.910             36.936
 Vibration     1          0.593              1.985              6.265
 Vibration     2          0.595              1.980              5.086
 Vibration     3          0.601              1.960              3.793
 Vibration     4          0.603              1.953              3.549
 Vibration     5          0.610              1.928              3.029
 Vibration     6          0.637              1.841              2.141
 Vibration     7          0.654              1.789              1.851
 Vibration     8          0.672              1.736              1.623
 Vibration     9          0.696              1.664              1.389
 Vibration    10          0.726              1.578              1.172
 Vibration    11          0.740              1.540              1.091
 Vibration    12          0.762              1.480              0.980
 Vibration    13          0.797              1.389              0.836
 Vibration    14          0.836              1.294              0.710
 Vibration    15          0.907              1.135              0.540
 Vibration    16          0.927              1.094              0.503
 Vibration    17          0.960              1.029              0.447

 Optimization completed.
    -- Stationary point found.

 1\1\GINC-NODE317\Freq\RB3LYP\6-31G(d)\C6H12O4\VSC10255\08-Dec-2020\0\\
 #N Geom=AllCheck Guess=TCheck SCRF=Check GenChk RB3LYP/6-31G(d) Freq\\
 CID_88052940_JID_620_neutraal\\0,1\C,0.5614478057,-0.6795504539,0.5417
 594445\C,1.8927426195,-0.6164142069,1.2729540122\O,1.9356568235,0.5060
 224513,2.1854379326\C,2.2545810997,1.7032674325,1.6483750727\O,2.51668
 64865,1.8691923055,0.4742588254\C,2.2473079681,2.7830518297,2.71022571
 51\C,2.5421815861,4.177068169,2.1569750147\C,1.4527559367,4.721763672,
 1.2381563295\O,0.2423980456,4.7025834737,1.9750627321\O,1.748522583,6.

 Normal termination of Gaussian 16 at Tue Dec  8 13:39:34 2020.

 ----------------------------------------------------------------------
 # B3LYP/6-311++G(d,p) empiricaldispersion=gd3bj scf=xqc pop=npa geom=c
 heck
 ----------------------------------------------------------------------

 -------------------------------------
 CID_88052940_JID_620_Energie_neutraal
 -------------------------------------
 Structure from the checkpoint file:  "JID_620.chk"
 Charge =  0 Multiplicity = 1

 SCF Done:  E(RB3LYP) =  -536.977598534     A.U. after   13 cycles
 Normal termination of Gaussian 16 at Tue Dec  8 13:43:49 2020.

 ----------------------------------------------------------------------
 # B3LYP/6-311++G(d,p) empiricaldispersion=gd3bj scf=xqc pop=npa geom=c
 heck
 ----------------------------------------------------------------------

 -----------------------------------
 CID_88052940_JID_620_Energie_kation
 -----------------------------------
 Structure from the checkpoint file:  "JID_620.chk"
 Charge =  1 Multiplicity = 2

 SCF Done:  E(UB3LYP) =  -536.621536006     A.U. after   21 cycles
 Normal termination of Gaussian 16 at Tue Dec  8 13:50:19 2020.
 Gaussian 16:  ES64L-G16RevA.03 25-Dec-2016

 ----------------------------------
 CID_88052940_JID_620_Energie_anion
 ----------------------------------
 Structure from the checkpoint file:  "JID_620.chk"
 Charge = -1 Multiplicity = 2

                         Standard orientation:
 ---------------------------------------------------------------------
 Center     Atomic      Atomic             Coordinates (Angstroms)
 Number     Number       Type             X           Y           Z
 ---------------------------------------------------------------------
      1          6           0        3.270083   -1.360541    0.081685
      2          6           0        3.164369    0.141571   -0.126790
      3          8           0        1.988142    0.678406    0.523310
      4          6           0        0.826616    0.573728   -0.157458
      5          8           0        0.733454    0.081383   -1.263666
      6          6           0       -0.316283    1.160417    0.644472
      7          6           0       -1.673256    1.019870   -0.044869
      8          6           0       -2.162326   -0.420620   -0.161351
      9          8           0       -2.190349   -0.955299    1.150784
     10          8           0       -3.429958   -0.504381   -0.775211
     11          1           0        3.261589   -1.604756    1.148812
     12          1           0        4.205593   -1.732852   -0.350921
     13          1           0        2.436890   -1.872666   -0.406709
     14          1           0        3.996478    0.672632    0.341151
     15          1           0        3.124658    0.391529   -1.189755
     16          1           0       -0.331757    0.672027    1.624022
     17          1           0       -0.081363    2.215695    0.830771
     18          1           0       -2.419273    1.582590    0.532491
     19          1           0       -1.638352    1.443384   -1.052642
     20          1           0       -1.500787   -0.999701   -0.812654
     21          1           0       -2.480808   -1.877594    1.068650
     22          1           0       -4.038403    0.022290   -0.229097
 ---------------------------------------------------------------------

 SCF Done:  E(UB3LYP) =  -536.961716987     A.U. after   31 cycles

 The electronic state is 2-A.
 Alpha  occ. eigenvalues --  -19.06594 -19.02597 -19.02528 -19.01276 -10.20213
 Alpha  occ. eigenvalues --  -10.16260 -10.12628 -10.08222 -10.07091 -10.06398
 Alpha  occ. eigenvalues --   -1.00678  -0.96322  -0.92124  -0.89453  -0.70239
 Alpha  occ. eigenvalues --   -0.66840  -0.60144  -0.55060  -0.50857  -0.45507
 Alpha  occ. eigenvalues --   -0.45153  -0.41224  -0.39100  -0.37967  -0.37264
 Alpha  occ. eigenvalues --   -0.34331  -0.34048  -0.32125  -0.31620  -0.29686
 Alpha  occ. eigenvalues --   -0.28822  -0.28066  -0.26399  -0.25735  -0.24326
 Alpha  occ. eigenvalues --   -0.22687  -0.21392  -0.20637  -0.18498  -0.17678
 Alpha  occ. eigenvalues --    0.04625
 Alpha virt. eigenvalues --    0.06250   0.07357   0.08400   0.09120   0.09372
 Alpha virt. eigenvalues --    0.10074   0.10720   0.11628   0.11912   0.12215
 Alpha virt. eigenvalues --    0.13735   0.14564   0.15970   0.16067   0.16927

  Beta  occ. eigenvalues --  -19.06593 -19.02561 -19.02490 -19.01267 -10.20211
  Beta  occ. eigenvalues --  -10.16252 -10.12601 -10.08206 -10.07066 -10.06361
  Beta  occ. eigenvalues --   -1.00667  -0.96259  -0.92109  -0.89372  -0.70198
  Beta  occ. eigenvalues --   -0.66795  -0.60082  -0.54986  -0.50776  -0.45450
  Beta  occ. eigenvalues --   -0.45088  -0.41189  -0.39062  -0.37936  -0.37217
  Beta  occ. eigenvalues --   -0.34297  -0.34004  -0.32077  -0.31572  -0.29647
  Beta  occ. eigenvalues --   -0.28772  -0.28021  -0.26353  -0.25708  -0.24298
  Beta  occ. eigenvalues --   -0.22642  -0.21346  -0.20609  -0.18468  -0.17643
  Beta virt. eigenvalues --    0.07054   0.07646   0.08176   0.09350   0.09639
  Beta virt. eigenvalues --    0.09904   0.10276   0.11068   0.12024   0.12350
  Beta virt. eigenvalues --    0.12732   0.13798   0.14692   0.16066   0.16200

 Mulliken charges and spin densities:
               1          2
     1  C    0.870404  -1.216116
     2  C    0.031990  -0.198208
     3  O   -0.075500   0.061942
     4  C    0.003391  -0.260777
     5  O   -0.266067   0.018456
     6  C    0.115543  -0.274368
     7  C   -0.062196  -0.130047
     8  C    0.810043  -1.256018
     9  O   -0.278683   0.050189
    10  O   -0.280743   0.041704
    11  H   -0.055499   0.196494
    12  H   -0.498720   0.643308
    13  H   -0.100251   0.262174
    14  H   -0.653432   0.821501
    15  H    0.112870   0.050214
    16  H    0.220223   0.006877
    17  H   -0.301504   0.488749
    18  H   -0.363381   0.520955
    19  H    0.037741   0.148499
    20  H    0.117824   0.113320
    21  H   -0.189498   0.457789
    22  H   -0.194559   0.453365
 Sum of Mulliken charges =  -1.00000   1.00000

 Dipole moment (field-independent basis, Debye):
    X=             -0.5308    Y=              1.2122    Z=             -0.7788  Tot=              1.5355
 Quadrupole moment (field-independent basis, Debye-Ang):
   XX=           -144.1674   YY=            -91.9493   ZZ=            -89.8029
   XY=              2.4320   XZ=             -0.4378   YZ=             -0.9907

 Summary of Natural Population Analysis:

                                       Natural Population
                Natural  -----------------------------------------------
    Atom  No    Charge         Core      Valence    Rydberg      Total
 -----------------------------------------------------------------------
      C    1   -0.29938      0.99966     2.29455    0.00518     3.29938
      C    2   -0.01643      0.99958     2.00499    0.01187     3.01643
      O    3   -0.28293      0.99986     3.27357    0.00950     4.28293
      C    4    0.41406      0.99969     1.56173    0.02452     2.58594
      O    5   -0.31266      0.99987     3.30728    0.00551     4.31266
      C    6   -0.23946      0.99957     2.23168    0.00821     3.23946
      C    7   -0.20795      0.99961     2.19713    0.01121     3.20795
      C    8    0.20835      0.99962     1.77326    0.01878     2.79165
      O    9   -0.37735      0.99989     3.37110    0.00636     4.37735
      O   10   -0.37103      0.99990     3.36465    0.00648     4.37103
      H   11    0.10093      0.00000     0.39787    0.00119     0.39907
      H   12    0.10362      0.00000     0.39453    0.00185     0.39638
      H   13    0.10527      0.00000     0.39353    0.00121     0.39473
      H   14    0.09214      0.00000     0.40569    0.00217     0.40786
      H   15    0.09333      0.00000     0.40543    0.00123     0.40667
      H   16    0.12235      0.00000     0.37589    0.00176     0.37765
      H   17    0.11362      0.00000     0.38513    0.00125     0.38638
      H   18    0.10187      0.00000     0.39634    0.00179     0.39813
      H   19    0.10761      0.00000     0.39118    0.00122     0.39239
      H   20    0.08013      0.00000     0.41809    0.00178     0.41987
      H   21    0.23519      0.00000     0.25853    0.00628     0.26481
      H   22    0.22873      0.00000     0.26564    0.00562     0.27127
 =======================================================================
   * Total *   -0.00000      9.99725    29.86778    0.13498    40.00000

 Normal termination of Gaussian 16 at Tue Dec  8 13:58:18 2020.
