 Gaussian 16, Revision A.03,

 -----------------------------------------------------------
 # opt freq B3LYP/6-31G(d) empiricaldispersion=gd3bj scf=xqc
 -----------------------------------------------------------

 -------------------------------
 CID_153146869_JID_5875_neutraal
 -------------------------------
 Symbolic Z-matrix:
 Charge =  0 Multiplicity = 1

 SCF Done:  E(RB3LYP) =  -619.346130350     A.U. after   14 cycles
 SCF Done:  E(RB3LYP) =  -619.351400131     A.U. after   12 cycles
 SCF Done:  E(RB3LYP) =  -619.351861598     A.U. after   12 cycles
 SCF Done:  E(RB3LYP) =  -619.350442648     A.U. after   12 cycles
 SCF Done:  E(RB3LYP) =  -619.352620425     A.U. after   11 cycles
 SCF Done:  E(RB3LYP) =  -619.352927184     A.U. after   11 cycles
 SCF Done:  E(RB3LYP) =  -619.352944011     A.U. after   10 cycles
 SCF Done:  E(RB3LYP) =  -619.352980803     A.U. after    9 cycles
 SCF Done:  E(RB3LYP) =  -619.352995983     A.U. after   10 cycles
 SCF Done:  E(RB3LYP) =  -619.353000816     A.U. after   10 cycles
 SCF Done:  E(RB3LYP) =  -619.353004730     A.U. after   10 cycles
 SCF Done:  E(RB3LYP) =  -619.353007158     A.U. after    9 cycles
 SCF Done:  E(RB3LYP) =  -619.353007558     A.U. after    8 cycles
 SCF Done:  E(RB3LYP) =  -619.353007622     A.U. after    7 cycles
 Optimization completed.
    -- Stationary point found.
 Normal termination of Gaussian 16 at Thu Dec 10 17:28:21 2020.

 --------------------------------------------------------------------
 #N Geom=AllCheck Guess=TCheck SCRF=Check GenChk RB3LYP/6-31G(d) Freq
 --------------------------------------------------------------------

 Structure from the checkpoint file:  "JID_5875.chk"
 -------------------------------
 CID_153146869_JID_5875_neutraal
 -------------------------------
 Charge =  0 Multiplicity = 1

 SCF Done:  E(RB3LYP) =  -619.353007622     A.U. after    1 cycles

  Exact polarizability: 194.240  22.065 159.663  -0.001   0.001 117.888
 Approx polarizability: 244.454  43.855 246.429  -0.001   0.001 172.446

                      1                      2                      3
                      A                      A                      A
 Frequencies --     40.9391                50.6987                63.5362
 Red. masses --      2.5814                 3.3650                 2.6163
 Frc consts  --      0.0025                 0.0051                 0.0062
 IR Inten    --      0.2444                 0.0374                 0.0386

                      4                      5                      6
                      A                      A                      A
 Frequencies --     74.0212               144.3854               160.3445
 Red. masses --      3.2658                 1.9334                 3.2525
 Frc consts  --      0.0105                 0.0237                 0.0493
 IR Inten    --      0.0123                 0.2069                 0.1831

                      7                      8                      9
                      A                      A                      A
 Frequencies --    173.9232               175.0649               222.5731
 Red. masses --      3.1016                 2.3129                 1.3997
 Frc consts  --      0.0553                 0.0418                 0.0409
 IR Inten    --      1.9453                 0.0000                 0.0032

                     10                     11                     12
                      A                      A                      A
 Frequencies --    241.2679               249.8696               253.7695
 Red. masses --      1.5080                 1.7506                 1.0854
 Frc consts  --      0.0517                 0.0644                 0.0412
 IR Inten    --      1.2100                 0.4831                 0.4957

                     13                     14                     15
                      A                      A                      A
 Frequencies --    259.3850               263.2078               275.1763
 Red. masses --      1.4603                 1.3156                 3.0267
 Frc consts  --      0.0579                 0.0537                 0.1350
 IR Inten    --      0.2621                 0.1191                 0.5130

                     16                     17                     18
                      A                      A                      A
 Frequencies --    291.4191               346.5050               357.2378
 Red. masses --      2.1002                 2.5711                 2.5136
 Frc consts  --      0.1051                 0.1819                 0.1890
 IR Inten    --      0.0008                 1.4648                 0.2930

                     19                     20                     21
                      A                      A                      A
 Frequencies --    381.1255               388.1847               400.6275
 Red. masses --      2.2643                 2.0591                 2.0478
 Frc consts  --      0.1938                 0.1828                 0.1937
 IR Inten    --      0.8178                 2.0931                 3.0624

                     22                     23                     24
                      A                      A                      A
 Frequencies --    418.7781               465.1987               488.3154
 Red. masses --      2.5348                 2.8663                 2.8943
 Frc consts  --      0.2619                 0.3655                 0.4066
 IR Inten    --      7.0293                 2.2029                 0.3582

                     25                     26                     27
                      A                      A                      A
 Frequencies --    528.3321               560.6309               616.2911
 Red. masses --      2.6806                 3.0085                 2.7988
 Frc consts  --      0.4409                 0.5571                 0.6263
 IR Inten    --      0.1144                 9.6194                 0.5097

                     28                     29                     30
                      A                      A                      A
 Frequencies --    677.6132               745.6272               761.3479
 Red. masses --      2.4534                 2.8032                 2.8451
 Frc consts  --      0.6637                 0.9182                 0.9717
 IR Inten    --      0.2676                 1.4286                 5.4787

                     31                     32                     33
                      A                      A                      A
 Frequencies --    786.1769               826.3531               878.9328
 Red. masses --      3.0024                 1.4994                 2.6857
 Frc consts  --      1.0933                 0.6033                 1.2224
 IR Inten    --      9.7054                 0.4386                 6.3495

                     34                     35                     36
                      A                      A                      A
 Frequencies --    902.7536               917.5810               947.3434
 Red. masses --      3.1701                 1.3605                 1.9570
 Frc consts  --      1.5222                 0.6749                 1.0348
 IR Inten    --     13.7157                35.4229                 0.0010

                     37                     38                     39
                      A                      A                      A
 Frequencies --    970.7698              1006.5864              1009.2727
 Red. masses --      1.9624                 1.4064                 2.0168
 Frc consts  --      1.0896                 0.8396                 1.2104
 IR Inten    --      6.5012                 1.6479                23.0075

                     40                     41                     42
                      A                      A                      A
 Frequencies --   1034.4538              1057.9190              1068.2605
 Red. masses --      2.0435                 2.0042                 1.2044
 Frc consts  --      1.2884                 1.3216                 0.8098
 IR Inten    --      2.5641                19.5654                 4.5121

                     43                     44                     45
                      A                      A                      A
 Frequencies --   1073.1850              1073.6795              1096.3136
 Red. masses --      1.5018                 1.4793                 1.7633
 Frc consts  --      1.0191                 1.0048                 1.2486
 IR Inten    --      4.5802                 8.5960                15.8380

                     46                     47                     48
                      A                      A                      A
 Frequencies --   1099.7582              1119.9143              1132.6502
 Red. masses --      1.8236                 2.5413                 1.3210
 Frc consts  --      1.2995                 1.8779                 0.9985
 IR Inten    --     48.6302                 1.1595                 5.3470

                     49                     50                     51
                      A                      A                      A
 Frequencies --   1132.8497              1133.3588              1181.8438
 Red. masses --      2.1879                 1.9701                 2.2614
 Frc consts  --      1.6543                 1.4910                 1.8610
 IR Inten    --     12.5345                12.8841                16.5633

                     52                     53                     54
                      A                      A                      A
 Frequencies --   1185.3123              1196.4010              1197.5113
 Red. masses --      1.9405                 1.4933                 1.2233
 Frc consts  --      1.6063                 1.2594                 1.0336
 IR Inten    --     12.0277                12.1129                 3.6341

                     55                     56                     57
                      A                      A                      A
 Frequencies --   1231.7544              1243.2134              1288.3500
 Red. masses --      1.8582                 2.6501                 1.8043
 Frc consts  --      1.6611                 2.4133                 1.7645
 IR Inten    --     11.9831                 7.1016                16.5045

                     58                     59                     60
                      A                      A                      A
 Frequencies --   1311.0823              1318.5822              1324.0932
 Red. masses --      2.1885                 1.3974                 1.9051
 Frc consts  --      2.2164                 1.4315                 1.9679
 IR Inten    --      1.8953                 5.7830                28.1202

                     61                     62                     63
                      A                      A                      A
 Frequencies --   1326.1467              1340.7628              1349.7207
 Red. masses --      1.5660                 1.6028                 1.3055
 Frc consts  --      1.6227                 1.6976                 1.4012
 IR Inten    --      4.0446                15.6564                 0.1191

                     64                     65                     66
                      A                      A                      A
 Frequencies --   1384.4574              1394.5090              1400.3473
 Red. masses --      1.3919                 1.3025                 1.3272
 Frc consts  --      1.5719                 1.4924                 1.5334
 IR Inten    --      1.2756                 1.1983                 1.2623

                     67                     68                     69
                      A                      A                      A
 Frequencies --   1426.3234              1434.0985              1444.5821
 Red. masses --      1.4543                 1.4559                 1.3286
 Frc consts  --      1.7431                 1.7641                 1.6335
 IR Inten    --     10.5859                44.9960                 3.3800

                     70                     71                     72
                      A                      A                      A
 Frequencies --   1462.4578              1471.9751              1485.0347
 Red. masses --      1.1492                 1.2481                 1.1997
 Frc consts  --      1.4482                 1.5933                 1.5588
 IR Inten    --      0.0272                 5.6692                 0.0728

                     73                     74                     75
                      A                      A                      A
 Frequencies --   1490.0059              1504.8001              1509.7463
 Red. masses --      1.1686                 1.0834                 1.0502
 Frc consts  --      1.5286                 1.4455                 1.4103
 IR Inten    --      2.0624                 3.8291                11.8103

                     76                     77                     78
                      A                      A                      A
 Frequencies --   1513.7181              1516.6794              1519.6833
 Red. masses --      1.0887                 1.0526                 1.0802
 Frc consts  --      1.4697                 1.4266                 1.4698
 IR Inten    --      4.9163                12.3281                 0.5223

                     79                     80                     81
                      A                      A                      A
 Frequencies --   1524.8524              1528.2672              1531.6143
 Red. masses --      1.0654                 1.0499                 1.0505
 Frc consts  --      1.4596                 1.4448                 1.4519
 IR Inten    --     12.9606                 1.3715                 3.0042

                     82                     83                     84
                      A                      A                      A
 Frequencies --   1533.1509              1537.0309              1540.3651
 Red. masses --      1.0938                 1.0521                 1.1131
 Frc consts  --      1.5148                 1.4644                 1.5560
 IR Inten    --     10.7483                 2.5533                 5.1773

                     85                     86                     87
                      A                      A                      A
 Frequencies --   1546.2726              1678.7796              1707.9786
 Red. masses --      1.0546                 5.0352                 4.9424
 Frc consts  --      1.4856                 8.3610                 8.4948
 IR Inten    --      4.5766                 0.6089                19.7774

                     88                     89                     90
                      A                      A                      A
 Frequencies --   2886.4518              2895.4701              2934.0217
 Red. masses --      1.0740                 1.0721                 1.0625
 Frc consts  --      5.2723                 5.2956                 5.3888
 IR Inten    --     23.6554                85.6796               134.9549

                     91                     92                     93
                      A                      A                      A
 Frequencies --   2940.8988              2950.4589              3015.0902
 Red. masses --      1.0598                 1.0618                 1.0813
 Frc consts  --      5.4007                 5.4461                 5.7918
 IR Inten    --     35.1569               144.5450                34.3225

                     94                     95                     96
                      A                      A                      A
 Frequencies --   3047.3026              3062.1093              3063.1204
 Red. masses --      1.0450                 1.0698                 1.0711
 Frc consts  --      5.7174                 5.9101                 5.9211
 IR Inten    --     24.9756                 3.9990                26.3087

                     97                     98                     99
                      A                      A                      A
 Frequencies --   3071.4349              3072.0774              3072.7530
 Red. masses --      1.0737                 1.0813                 1.0731
 Frc consts  --      5.9677                 6.0125                 5.9694
 IR Inten    --     26.1592                81.9439                31.4048

                    100                    101                    102
                      A                      A                      A
 Frequencies --   3073.0784              3077.9963              3089.9586
 Red. masses --      1.0739                 1.0763                 1.0998
 Frc consts  --      5.9755                 6.0081                 6.1869
 IR Inten    --     55.4747                43.1146                17.6999

                    103                    104                    105
                      A                      A                      A
 Frequencies --   3119.3034              3119.6010              3121.8368
 Red. masses --      1.0990                 1.1031                 1.0981
 Frc consts  --      6.3001                 6.3250                 6.3051
 IR Inten    --      3.2855                30.1821                54.7949

                    106                    107                    108
                      A                      A                      A
 Frequencies --   3127.0242              3129.0173              3169.4108
 Red. masses --      1.1017                 1.1021                 1.0584
 Frc consts  --      6.3474                 6.3576                 6.2643
 IR Inten    --     17.9137                32.0809                10.6013

                    109                    110                    111
                      A                      A                      A
 Frequencies --   3203.6796              3212.0290              3246.0077
 Red. masses --      1.0910                 1.0918                 1.1134
 Frc consts  --      6.5973                 6.6367                 6.9119
 IR Inten    --     16.3560                 5.5340                22.4415

 - Thermochemistry -
 -------------------
 Temperature   298.150 Kelvin.  Pressure   1.00000 Atm.
 Atom     1 has atomic number  6 and mass  12.00000

 Molecular mass:   208.19395 amu.
 Principal axes and moments of inertia in atomic units:
                           1         2         3
     Eigenvalues --  1877.364205214.424046007.58079
           X            1.00000   0.00130  -0.00000
           Y           -0.00130   1.00000   0.00000
           Z            0.00000  -0.00000   1.00000
 This molecule is an asymmetric top.
 Rotational symmetry number  1.
 Warning -- assumption of classical behavior for rotation
           may cause significant error
 Rotational temperatures (Kelvin)      0.04614     0.01661     0.01442
 Rotational constants (GHZ):           0.96132     0.34611     0.30041
 Zero-point vibrational energy     936826.4 (Joules/Mol)
                                  223.90689 (Kcal/Mol)
 Warning -- explicit consideration of  27 degrees of freedom as
           vibrations may cause significant error
 Vibrational temperatures:     58.90    72.94    91.41   106.50   207.74
          (Kelvin)            230.70   250.24   251.88   320.23   347.13
                              359.51   365.12   373.20   378.70   395.92
                              419.29   498.54   513.99   548.35   558.51
                              576.41   602.53   669.32   702.58   760.15
                              806.62   886.71   974.93  1072.79  1095.41
                             1131.13  1188.94  1264.59  1298.86  1320.19
                             1363.02  1396.72  1448.25  1452.12  1488.35
                             1522.11  1536.99  1544.07  1544.79  1577.35
                             1582.31  1611.31  1629.63  1629.92  1630.65
                             1700.41  1705.40  1721.35  1722.95  1772.22
                             1788.71  1853.65  1886.36  1897.15  1905.07
                             1908.03  1929.06  1941.95  1991.93  2006.39
                             2014.79  2052.16  2063.35  2078.43  2104.15
                             2117.84  2136.63  2143.79  2165.07  2172.19
                             2177.90  2182.16  2186.49  2193.92  2198.84
                             2203.65  2205.86  2211.44  2216.24  2224.74
                             2415.39  2457.40  4152.96  4165.94  4221.40
                             4231.30  4245.05  4338.04  4384.39  4405.69
                             4407.15  4419.11  4420.03  4421.01  4421.47
                             4428.55  4445.76  4487.98  4488.41  4491.63
                             4499.09  4501.96  4560.08  4609.38  4621.39
                             4670.28

 Zero-point correction=                           0.356818 (Hartree/Particle)
 Thermal correction to Energy=                    0.373578
 Thermal correction to Enthalpy=                  0.374523
 Thermal correction to Gibbs Free Energy=         0.313244
 Sum of electronic and zero-point Energies=           -618.996189
 Sum of electronic and thermal Energies=              -618.979429
 Sum of electronic and thermal Enthalpies=            -618.978485
 Sum of electronic and thermal Free Energies=         -619.039764

                     E (Thermal)             CV                S
                      KCal/Mol        Cal/Mol-Kelvin    Cal/Mol-Kelvin
 Total                  234.424             64.224            128.972
 Electronic               0.000              0.000              0.000
 Translational            0.889              2.981             41.904
 Rotational               0.889              2.981             32.442
 Vibrational            232.647             58.262             54.627
 Vibration     1          0.594              1.981              5.213
 Vibration     2          0.595              1.977              4.790
 Vibration     3          0.597              1.972              4.344
 Vibration     4          0.599              1.966              4.043
 Vibration     5          0.616              1.909              2.745
 Vibration     6          0.622              1.891              2.546
 Vibration     7          0.627              1.875              2.393
 Vibration     8          0.627              1.873              2.380
 Vibration     9          0.648              1.807              1.938
 Vibration    10          0.658              1.777              1.794
 Vibration    11          0.663              1.763              1.731
 Vibration    12          0.665              1.756              1.704
 Vibration    13          0.668              1.747              1.666
 Vibration    14          0.670              1.740              1.640
 Vibration    15          0.677              1.719              1.563
 Vibration    16          0.687              1.690              1.466
 Vibration    17          0.725              1.582              1.182
 Vibration    18          0.732              1.560              1.134
 Vibration    19          0.751              1.510              1.035
 Vibration    20          0.756              1.495              1.007
 Vibration    21          0.766              1.469              0.960
 Vibration    22          0.782              1.429              0.896
 Vibration    23          0.823              1.327              0.751
 Vibration    24          0.844              1.276              0.688
 Vibration    25          0.883              1.187              0.591
 Vibration    26          0.916              1.116              0.523
 Vibration    27          0.976              0.997              0.422

 Optimization completed.
    -- Stationary point found.
 Normal termination of Gaussian 16 at Thu Dec 10 17:43:07 2020.

 ----------------------------------------------------------------------
 # B3LYP/6-311++G(d,p) empiricaldispersion=gd3bj scf=xqc pop=npa geom=c
 heck
 ----------------------------------------------------------------------

 ---------------------------------------
 CID_153146869_JID_5875_Energie_neutraal
 ---------------------------------------
 Structure from the checkpoint file:  "JID_5875.chk"
 Charge =  0 Multiplicity = 1

 SCF Done:  E(RB3LYP) =  -619.521849585     A.U. after   14 cycles
 Normal termination of Gaussian 16 at Thu Dec 10 17:50:37 2020.

 ----------------------------------------------------------------------
 # B3LYP/6-311++G(d,p) empiricaldispersion=gd3bj scf=xqc pop=npa geom=c
 heck
 ----------------------------------------------------------------------

 -------------------------------------
 CID_153146869_JID_5875_Energie_kation
 -------------------------------------
 Structure from the checkpoint file:  "JID_5875.chk"
 Charge =  1 Multiplicity = 2

 SCF Done:  E(UB3LYP) =  -619.248008578     A.U. after   27 cycles
 Normal termination of Gaussian 16 at Thu Dec 10 18:10:39 2020.
 Gaussian 16:  ES64L-G16RevA.03 25-Dec-2016

 ----------------------------------------------------------------------
 # B3LYP/6-311++G(d,p) empiricaldispersion=gd3bj scf=xqc pop=npa geom=c
 heck
 ----------------------------------------------------------------------

 ------------------------------------
 CID_153146869_JID_5875_Energie_anion
 ------------------------------------
 Structure from the checkpoint file:  "JID_5875.chk"
 Charge = -1 Multiplicity = 2

                         Standard orientation:
 ---------------------------------------------------------------------
 Center     Atomic      Atomic             Coordinates (Angstroms)
 Number     Number       Type             X           Y           Z
 ---------------------------------------------------------------------
      1          6           0       -1.254483   -2.279891    0.000084
      2          6           0       -1.847712   -0.891644    0.000008
      3          6           0       -1.111885    0.248775   -0.000018
      4          6           0        0.410143    0.349840   -0.000080
      5          6           0        1.096131   -0.204881   -1.265027
      6          6           0        2.605266    0.032477   -1.204433
      7          7           0        3.183191   -0.558504    0.000047
      8          6           0        2.605265    0.032717    1.204409
      9          6           0        1.096124   -0.204566    1.265032
     10          6           0        4.632239   -0.451603    0.000039
     11          7           0       -1.819578    1.510817   -0.000030
     12          6           0       -1.610337    2.293072    1.211188
     13          6           0       -1.610451    2.292874   -1.211378
     14          6           0       -3.313928   -0.819186    0.000095
     15          6           0       -4.148194   -1.869420    0.000078
     16          1           0       -0.167783   -2.291160    0.000300
     17          1           0       -1.594992   -2.839287   -0.880146
     18          1           0       -1.595335   -2.839338    0.880149
     19          1           0        0.639376    1.424967   -0.000229
     20          1           0        0.681627    0.282901   -2.155096
     21          1           0        0.912555   -1.277470   -1.371288
     22          1           0        2.810172    1.123931   -1.251717
     23          1           0        3.091330   -0.420434   -2.076611
     24          1           0        3.091303   -0.420046    2.076681
     25          1           0        2.810208    1.124173    1.251491
     26          1           0        0.681626    0.283469    2.154964
     27          1           0        0.912482   -1.277117    1.371564
     28          1           0        4.991123    0.597167   -0.000069
     29          1           0        5.039597   -0.948111    0.887411
     30          1           0        5.039608   -0.948302   -0.887221
     31          1           0       -0.581298    2.684704    1.324226
     32          1           0       -2.291552    3.151932    1.204999
     33          1           0       -1.840857    1.675459    2.084201
     34          1           0       -0.581334    2.684224   -1.324671
     35          1           0       -1.841332    1.675222   -2.084272
     36          1           0       -2.291449    3.151903   -1.205089
     37          1           0       -3.719167    0.187086    0.000189
     38          1           0       -5.224484   -1.723261    0.000136
     39          1           0       -3.805767   -2.900186    0.000001
 ---------------------------------------------------------------------

 SCF Done:  E(UB3LYP) =  -619.506794915     A.U. after   33 cycles
 SCF Done:  E(UB3LYP) =  -619.506794916     a.u. after    1 cycles

 The electronic state is 2-A.
 Alpha  occ. eigenvalues --  -14.21056 -14.20792 -10.10736 -10.09304 -10.09303
 Alpha  occ. eigenvalues --  -10.09096 -10.09096 -10.08965 -10.08559 -10.08109
 Alpha  occ. eigenvalues --  -10.07782 -10.07315 -10.07168 -10.06978 -10.06977
 Alpha  occ. eigenvalues --   -0.83704  -0.83201  -0.72841  -0.70444  -0.65871
 Alpha  occ. eigenvalues --   -0.64515  -0.61465  -0.61131  -0.59056  -0.53498
 Alpha  occ. eigenvalues --   -0.53255  -0.52162  -0.47722  -0.46426  -0.42058
 Alpha  occ. eigenvalues --   -0.40222  -0.39463  -0.36958  -0.36790  -0.36125
 Alpha  occ. eigenvalues --   -0.35549  -0.34916  -0.33356  -0.32970  -0.32632
 Alpha  occ. eigenvalues --   -0.31943  -0.31236  -0.29564  -0.29515  -0.29205
 Alpha  occ. eigenvalues --   -0.28851  -0.27470  -0.27281  -0.26893  -0.25417
 Alpha  occ. eigenvalues --   -0.25025  -0.22891  -0.22737  -0.22393  -0.20699
 Alpha  occ. eigenvalues --   -0.13120  -0.12730  -0.11984   0.04329
 Alpha virt. eigenvalues --    0.05659   0.06220   0.06688   0.07124   0.07894
 Alpha virt. eigenvalues --    0.08493   0.08605   0.08946   0.10104   0.10210
 Alpha virt. eigenvalues --    0.10643   0.10936   0.11255   0.12269   0.12297

  Beta  occ. eigenvalues --  -14.21051 -14.20777 -10.10734 -10.09284 -10.09283
  Beta  occ. eigenvalues --  -10.09065 -10.09065 -10.08939 -10.08559 -10.08102
  Beta  occ. eigenvalues --  -10.07780 -10.07304 -10.07160 -10.06966 -10.06966
  Beta  occ. eigenvalues --   -0.83685  -0.83176  -0.72827  -0.70425  -0.65839
  Beta  occ. eigenvalues --   -0.64500  -0.61438  -0.61080  -0.59014  -0.53462
  Beta  occ. eigenvalues --   -0.53207  -0.52108  -0.47688  -0.46375  -0.42036
  Beta  occ. eigenvalues --   -0.40199  -0.39422  -0.36927  -0.36750  -0.36084
  Beta  occ. eigenvalues --   -0.35516  -0.34890  -0.33336  -0.32951  -0.32617
  Beta  occ. eigenvalues --   -0.31915  -0.31215  -0.29526  -0.29482  -0.29180
  Beta  occ. eigenvalues --   -0.28824  -0.27445  -0.27247  -0.26859  -0.25383
  Beta  occ. eigenvalues --   -0.25007  -0.22858  -0.22710  -0.22369  -0.20689
  Beta  occ. eigenvalues --   -0.13111  -0.12659  -0.11945
  Beta virt. eigenvalues --    0.05665   0.06239   0.06848   0.07218   0.07882
  Beta virt. eigenvalues --    0.08094   0.09012   0.09196   0.09297   0.10305
  Beta virt. eigenvalues --    0.10488   0.10886   0.11470   0.11596   0.12485

 Mulliken charges and spin densities:
               1          2
     1  C    0.648307  -1.529752
     2  C    0.255604   0.319228
     3  C   -1.104484   0.684707
     4  C    0.464974  -0.202517
     5  C   -0.713195   0.287940
     6  C    0.737964  -1.235892
     7  N   -0.140975   0.252899
     8  C    0.737853  -1.235855
     9  C   -0.713172   0.288024
    10  C    0.506670  -0.767277
    11  N    0.344484  -0.012372
    12  C    0.771068  -1.027106
    13  C    0.770867  -1.026848
    14  C   -2.108548   1.819069
    15  C   -0.139880  -0.438757
    16  H    0.221197  -0.121294
    17  H    0.025665   0.129698
    18  H    0.025707   0.129599
    19  H    0.842852  -0.710798
    20  H   -0.138900   0.312541
    21  H    0.075256   0.068968
    22  H   -0.133445   0.249787
    23  H   -0.176392   0.362822
    24  H   -0.176415   0.362838
    25  H   -0.133403   0.249753
    26  H   -0.138841   0.312467
    27  H    0.075210   0.069018
    28  H   -0.088118   0.201273
    29  H   -0.213717   0.343337
    30  H   -0.213734   0.343353
    31  H   -0.359292   0.505658
    32  H   -0.204236   0.352399
    33  H   -0.081598   0.239027
    34  H   -0.359228   0.505579
    35  H   -0.081621   0.239031
    36  H   -0.204152   0.352312
    37  H    0.116000   0.071803
    38  H   -0.091306   0.233555
    39  H    0.094972   0.021780
 Sum of Mulliken charges =  -1.00000   1.00000

 Dipole moment (field-independent basis, Debye):
    X=             -2.5658    Y=             -3.3881    Z=              0.0002  Tot=              4.2500
 Quadrupole moment (field-independent basis, Debye-Ang):
   XX=           -176.3542   YY=           -146.1382   ZZ=           -138.6645
   XY=              5.0658   XZ=             -0.0005   YZ=             -0.0017

 Summary of Natural Population Analysis:

                                       Natural Population
                Natural  -----------------------------------------------
    Atom  No    Charge         Core      Valence    Rydberg      Total
 -----------------------------------------------------------------------
      C    1   -0.29739      0.99963     2.29304    0.00471     3.29739
      C    2   -0.03919      0.99939     2.02839    0.01141     3.03919
      C    3    0.12540      0.99940     1.86025    0.01495     2.87460
      C    4   -0.14117      0.99954     2.13063    0.01099     3.14117
      C    5   -0.18727      0.99960     2.17797    0.00971     3.18727
      C    6   -0.08259      0.99961     2.07115    0.01183     3.08259
      N    7   -0.27941      0.99971     2.76778    0.01191     3.77941
      C    8   -0.08259      0.99961     2.07115    0.01183     3.08259
      C    9   -0.18727      0.99960     2.17796    0.00971     3.18727
      C   10   -0.17286      0.99965     2.16608    0.00712     3.17286
      N   11   -0.29384      0.99971     2.77986    0.01428     3.79384
      C   12   -0.17510      0.99963     2.16720    0.00827     3.17510
      C   13   -0.17509      0.99963     2.16719    0.00827     3.17509
      C   14   -0.09226      0.99953     2.08302    0.00971     3.09226
      C   15   -0.20040      0.99959     2.19430    0.00651     3.20040
      H   16    0.10542      0.00000     0.39318    0.00140     0.39458
      H   17    0.10274      0.00000     0.39607    0.00119     0.39726
      H   18    0.10274      0.00000     0.39607    0.00119     0.39726
      H   19    0.10287      0.00000     0.39347    0.00366     0.39713
      H   20    0.10200      0.00000     0.39692    0.00107     0.39800
      H   21    0.09754      0.00000     0.40074    0.00172     0.40246
      H   22    0.07934      0.00000     0.41888    0.00178     0.42066
      H   23    0.09777      0.00000     0.40091    0.00131     0.40223
      H   24    0.09777      0.00000     0.40091    0.00131     0.40223
      H   25    0.07934      0.00000     0.41887    0.00178     0.42066
      H   26    0.10200      0.00000     0.39692    0.00107     0.39800
      H   27    0.09753      0.00000     0.40074    0.00172     0.40247
      H   28    0.07987      0.00000     0.41833    0.00181     0.42013
      H   29    0.09476      0.00000     0.40384    0.00140     0.40524
      H   30    0.09476      0.00000     0.40384    0.00140     0.40524
      H   31    0.08326      0.00000     0.41519    0.00155     0.41674
      H   32    0.09645      0.00000     0.40243    0.00112     0.40355
      H   33    0.09788      0.00000     0.40104    0.00108     0.40212
      H   34    0.08326      0.00000     0.41519    0.00155     0.41674
      H   35    0.09788      0.00000     0.40104    0.00108     0.40212
      H   36    0.09645      0.00000     0.40243    0.00112     0.40355
      H   37    0.10920      0.00000     0.38888    0.00192     0.39080
      H   38    0.09169      0.00000     0.40736    0.00094     0.40831
      H   39    0.08849      0.00000     0.41037    0.00115     0.41151
 =======================================================================
   * Total *    0.00000     14.99384    42.81958    0.18658    58.00000

 Normal termination of Gaussian 16 at Thu Dec 10 18:33:30 2020.
