 Gaussian 16, Revision A.03,

 -----------------------------------------------------------
 # opt freq B3LYP/6-31G(d) empiricaldispersion=gd3bj scf=xqc
 -----------------------------------------------------------

 ------------------------------
 CID_64541571_JID_6948_neutraal
 ------------------------------
 Symbolic Z-matrix:
 Charge =  0 Multiplicity = 1

 SCF Done:  E(RB3LYP) =  -733.123352912     A.U. after   13 cycles
 SCF Done:  E(RB3LYP) =  -733.127924687     A.U. after   11 cycles
 SCF Done:  E(RB3LYP) =  -733.128751462     A.U. after   12 cycles
 SCF Done:  E(RB3LYP) =  -733.129166198     A.U. after   11 cycles
 SCF Done:  E(RB3LYP) =  -733.129591395     A.U. after   12 cycles
 SCF Done:  E(RB3LYP) =  -733.130159212     A.U. after   12 cycles
 SCF Done:  E(RB3LYP) =  -733.130825448     A.U. after   12 cycles
 SCF Done:  E(RB3LYP) =  -733.131076658     A.U. after   14 cycles
 SCF Done:  E(RB3LYP) =  -733.130544113     A.U. after   14 cycles
 SCF Done:  E(RB3LYP) =  -733.131330466     A.U. after   13 cycles
 SCF Done:  E(RB3LYP) =  -733.131634219     A.U. after    9 cycles
 SCF Done:  E(RB3LYP) =  -733.131639796     A.U. after   10 cycles
 SCF Done:  E(RB3LYP) =  -733.131639799     A.U. after    9 cycles
 SCF Done:  E(RB3LYP) =  -733.131640527     A.U. after    9 cycles
 SCF Done:  E(RB3LYP) =  -733.131640572     A.U. after    7 cycles
 Optimization completed.
    -- Stationary point found.
 Normal termination of Gaussian 16 at Fri Dec 11 01:22:34 2020.

 --------------------------------------------------------------------
 #N Geom=AllCheck Guess=TCheck SCRF=Check GenChk RB3LYP/6-31G(d) Freq
 --------------------------------------------------------------------

 Structure from the checkpoint file:  "JID_6948.chk"
 ------------------------------
 CID_64541571_JID_6948_neutraal
 ------------------------------
 Charge =  0 Multiplicity = 1

 SCF Done:  E(RB3LYP) =  -733.131640572     A.U. after    1 cycles

  Exact polarizability: 195.681   8.447 134.179  12.206 -12.985 108.236
 Approx polarizability: 249.583  16.756 218.283  20.801 -30.075 162.006

                      1                      2                      3
                      A                      A                      A
 Frequencies --     21.6874                39.8646                61.4353
 Red. masses --      4.4053                 3.6335                 3.4661
 Frc consts  --      0.0012                 0.0034                 0.0077
 IR Inten    --      0.8121                 1.1879                 0.5340

                      4                      5                      6
                      A                      A                      A
 Frequencies --     73.9423                93.3250               102.6143
 Red. masses --      3.5732                 3.6158                 2.4138
 Frc consts  --      0.0115                 0.0186                 0.0150
 IR Inten    --      3.0211                 1.4320                 3.4049

                      7                      8                      9
                      A                      A                      A
 Frequencies --    115.3594               171.2719               204.4517
 Red. masses --      3.8876                 4.8072                 1.1997
 Frc consts  --      0.0305                 0.0831                 0.0295
 IR Inten    --      0.4929                 2.5584               152.4967

                     10                     11                     12
                      A                      A                      A
 Frequencies --    221.9253               238.9130               250.6277
 Red. masses --      1.6753                 3.8973                 1.9261
 Frc consts  --      0.0486                 0.1311                 0.0713
 IR Inten    --     27.8057                 1.8158                 2.3604

                     13                     14                     15
                      A                      A                      A
 Frequencies --    260.4057               282.5342               287.8515
 Red. masses --      1.7379                 1.1014                 1.6199
 Frc consts  --      0.0694                 0.0518                 0.0791
 IR Inten    --      3.8131                 2.5725                 1.0015

                     16                     17                     18
                      A                      A                      A
 Frequencies --    304.5434               330.4855               357.8320
 Red. masses --      2.9741                 2.0086                 2.6867
 Frc consts  --      0.1625                 0.1293                 0.2027
 IR Inten    --      1.1373                 0.8677                 2.7535

                     19                     20                     21
                      A                      A                      A
 Frequencies --    384.1444               421.7924               442.9628
 Red. masses --      2.5991                 3.0251                 3.1253
 Frc consts  --      0.2260                 0.3171                 0.3613
 IR Inten    --      3.2625                 3.5668                 5.6721

                     22                     23                     24
                      A                      A                      A
 Frequencies --    458.9381               463.5006               503.9971
 Red. masses --      3.3121                 4.0326                 4.4551
 Frc consts  --      0.4110                 0.5104                 0.6668
 IR Inten    --      3.4908                 0.7079                 3.1092

                     25                     26                     27
                      A                      A                      A
 Frequencies --    554.5569               584.4030               590.0053
 Red. masses --      4.1307                 4.5261                 3.2498
 Frc consts  --      0.7485                 0.9108                 0.6665
 IR Inten    --      0.9943                 9.5039                 2.4992

                     28                     29                     30
                      A                      A                      A
 Frequencies --    686.1135               722.5353               749.0698
 Red. masses --      3.6647                 3.2784                 3.1681
 Frc consts  --      1.0164                 1.0084                 1.0474
 IR Inten    --      0.5971                10.9756                 8.4299

                     31                     32                     33
                      A                      A                      A
 Frequencies --    797.3094               806.9157               824.9734
 Red. masses --      1.5497                 1.2596                 2.0102
 Frc consts  --      0.5804                 0.4832                 0.8061
 IR Inten    --     45.8404                 1.5474                 6.2062

                     34                     35                     36
                      A                      A                      A
 Frequencies --    862.6578               882.6372               896.2294
 Red. masses --      2.1742                 1.7450                 1.4813
 Frc consts  --      0.9533                 0.8010                 0.7010
 IR Inten    --      6.2018                12.0459                 1.0493

                     37                     38                     39
                      A                      A                      A
 Frequencies --    901.5107               923.2692               940.4385
 Red. masses --      2.1566                 2.0552                 2.1977
 Frc consts  --      1.0326                 1.0322                 1.1452
 IR Inten    --      8.4889                 1.3808                 2.3636

                     40                     41                     42
                      A                      A                      A
 Frequencies --    974.8819              1016.5141              1020.4499
 Red. masses --      1.2597                 2.9831                 3.4954
 Frc consts  --      0.7054                 1.8161                 2.1445
 IR Inten    --      3.1406                 9.8502                 3.4204

                     43                     44                     45
                      A                      A                      A
 Frequencies --   1050.3087              1089.4980              1098.2133
 Red. masses --      2.4683                 2.5593                 2.8768
 Frc consts  --      1.6043                 1.7899                 2.0442
 IR Inten    --     32.8310                30.9088                96.8367

                     46                     47                     48
                      A                      A                      A
 Frequencies --   1110.7316              1122.6798              1134.6622
 Red. masses --      2.3841                 2.1475                 1.8281
 Frc consts  --      1.7330                 1.5948                 1.3867
 IR Inten    --     19.2107                 8.4026                37.3168

                     49                     50                     51
                      A                      A                      A
 Frequencies --   1138.4035              1187.0897              1189.2500
 Red. masses --      1.8973                 1.2719                 2.0084
 Frc consts  --      1.4487                 1.0560                 1.6736
 IR Inten    --      2.5815                 0.7711               235.3660

                     52                     53                     54
                      A                      A                      A
 Frequencies --   1197.5946              1210.4331              1211.8733
 Red. masses --      2.2958                 1.1675                 1.6138
 Frc consts  --      1.9400                 1.0079                 1.3964
 IR Inten    --     28.8432                 0.8092                37.8337

                     55                     56                     57
                      A                      A                      A
 Frequencies --   1219.5855              1230.2976              1275.2883
 Red. masses --      1.5266                 1.4540                 1.3595
 Frc consts  --      1.3378                 1.2967                 1.3027
 IR Inten    --      3.8849                 3.7821                 8.7941

                     58                     59                     60
                      A                      A                      A
 Frequencies --   1312.4553              1327.3063              1345.5326
 Red. masses --      3.2219                 1.4771                 1.4153
 Frc consts  --      3.2698                 1.5332                 1.5097
 IR Inten    --    168.0577                26.0388                23.4212

                     61                     62                     63
                      A                      A                      A
 Frequencies --   1350.0603              1370.9454              1379.4709
 Red. masses --      1.1056                 1.5784                 2.6355
 Frc consts  --      1.1873                 1.7479                 2.9549
 IR Inten    --      9.9572                22.4281                18.3982

                     64                     65                     66
                      A                      A                      A
 Frequencies --   1400.6544              1407.9685              1423.9147
 Red. masses --      1.2434                 1.2726                 1.2439
 Frc consts  --      1.4372                 1.4863                 1.4860
 IR Inten    --      4.5368                14.9345                 0.7440

                     67                     68                     69
                      A                      A                      A
 Frequencies --   1433.1918              1441.6191              1464.5359
 Red. masses --      1.3006                 1.2860                 1.5692
 Frc consts  --      1.5740                 1.5746                 1.9830
 IR Inten    --      8.3009                34.3691                17.7847

                     70                     71                     72
                      A                      A                      A
 Frequencies --   1495.0770              1510.1882              1512.5157
 Red. masses --      1.4265                 1.8438                 1.1675
 Frc consts  --      1.8786                 2.4775                 1.5736
 IR Inten    --     45.0106                11.9866                 4.0803

                     73                     74                     75
                      A                      A                      A
 Frequencies --   1517.9128              1520.1448              1520.5176
 Red. masses --      1.0473                 1.0710                 1.0480
 Frc consts  --      1.4217                 1.4582                 1.4275
 IR Inten    --      8.7177                 0.5315                 4.8987

                     76                     77                     78
                      A                      A                      A
 Frequencies --   1525.8866              1534.1574              1538.1170
 Red. masses --      1.0475                 1.0513                 1.0961
 Frc consts  --      1.4369                 1.4579                 1.5279
 IR Inten    --      6.6467                 3.2591                29.3384

                     79                     80                     81
                      A                      A                      A
 Frequencies --   1543.0681              1546.1628              1644.7512
 Red. masses --      2.2799                 1.0848                 5.5612
 Frc consts  --      3.1985                 1.5280                 8.8639
 IR Inten    --     39.5296                 4.9028                55.4519

                     82                     83                     84
                      A                      A                      A
 Frequencies --   1675.4282              2993.5595              3023.2508
 Red. masses --      6.0209                 1.0816                 1.0349
 Frc consts  --      9.9578                 5.7108                 5.5729
 IR Inten    --     83.3846                72.3924                60.8504

                     85                     86                     87
                      A                      A                      A
 Frequencies --   3034.9393              3040.4753              3052.2822
 Red. masses --      1.0717                 1.0629                 1.0369
 Frc consts  --      5.8160                 5.7894                 5.6914
 IR Inten    --     45.1704                42.6137                19.1153

                     88                     89                     90
                      A                      A                      A
 Frequencies --   3058.8995              3080.5988              3082.9580
 Red. masses --      1.0404                 1.1065                 1.0852
 Frc consts  --      5.7358                 6.1866                 6.0772
 IR Inten    --     40.0116                45.1361                26.2175

                     91                     92                     93
                      A                      A                      A
 Frequencies --   3089.4479              3115.9325              3118.9968
 Red. masses --      1.0999                 1.0934                 1.0984
 Frc consts  --      6.1851                 6.2544                 6.2954
 IR Inten    --     18.7940                37.8770                25.7421

                     94                     95                     96
                      A                      A                      A
 Frequencies --   3123.0516              3135.6606              3155.8048
 Red. masses --      1.1013                 1.1034                 1.0996
 Frc consts  --      6.3290                 6.3918                 6.4519
 IR Inten    --     32.3756                42.2322                30.1412

                     97                     98                     99
                      A                      A                      A
 Frequencies --   3156.5878              3187.1616              3192.9312
 Red. masses --      1.0993                 1.0879                 1.0901
 Frc consts  --      6.4533                 6.5107                 6.5479
 IR Inten    --     10.4977                17.4472                 8.5551

                    100                    101                    102
                      A                      A                      A
 Frequencies --   3216.0006              3228.9629              3752.5927
 Red. masses --      1.0927                 1.0919                 1.0663
 Frc consts  --      6.6586                 6.7075                 8.8471
 IR Inten    --      4.2608                14.4125                 8.3019

 - Thermochemistry -
 -------------------
 Temperature   298.150 Kelvin.  Pressure   1.00000 Atm.
 Atom     1 has atomic number  6 and mass  12.00000

 Molecular mass:   224.14124 amu.
 Principal axes and moments of inertia in atomic units:
                           1         2         3
     Eigenvalues --  1560.268857271.510037786.76300
           X            0.99998  -0.00209   0.00654
           Y            0.00216   0.99993  -0.01122
           Z           -0.00652   0.01124   0.99992
 This molecule is an asymmetric top.
 Rotational symmetry number  1.
 Warning -- assumption of classical behavior for rotation
           may cause significant error
 Rotational temperatures (Kelvin)      0.05551     0.01191     0.01112
 Rotational constants (GHZ):           1.15669     0.24819     0.23177
 Zero-point vibrational energy     824684.4 (Joules/Mol)
                                  197.10430 (Kcal/Mol)
 Warning -- explicit consideration of  27 degrees of freedom as
           vibrations may cause significant error
 Vibrational temperatures:     31.20    57.36    88.39   106.39   134.27
          (Kelvin)            147.64   165.98   246.42   294.16   319.30
                              343.74   360.60   374.67   406.50   414.15
                              438.17   475.49   514.84   552.70   606.87
                              637.32   660.31   666.87   725.14   797.88
                              840.83   848.89   987.16  1039.57  1077.74
                             1147.15  1160.97  1186.95  1241.17  1269.92
                             1289.47  1297.07  1328.38  1353.08  1402.64
                             1462.54  1468.20  1511.16  1567.54  1580.08
                             1598.10  1615.29  1632.53  1637.91  1707.96
                             1711.07  1723.07  1741.54  1743.62  1754.71
                             1770.12  1834.86  1888.33  1909.70  1935.92
                             1942.44  1972.48  1984.75  2015.23  2025.75
                             2048.70  2062.04  2074.17  2107.14  2151.08
                             2172.82  2176.17  2183.94  2187.15  2187.69
                             2195.41  2207.31  2213.01  2220.13  2224.58
                             2366.43  2410.57  4307.06  4349.78  4366.60
                             4374.57  4391.55  4401.07  4432.29  4435.69
                             4445.03  4483.13  4487.54  4493.37  4511.52
                             4540.50  4541.63  4585.61  4593.92  4627.11
                             4645.76  5399.14

 Zero-point correction=                           0.314106 (Hartree/Particle)
 Thermal correction to Energy=                    0.331206
 Thermal correction to Enthalpy=                  0.332150
 Thermal correction to Gibbs Free Energy=         0.268565
 Sum of electronic and zero-point Energies=           -732.817535
 Sum of electronic and thermal Energies=              -732.800435
 Sum of electronic and thermal Enthalpies=            -732.799491
 Sum of electronic and thermal Free Energies=         -732.863075

                     E (Thermal)             CV                S
                      KCal/Mol        Cal/Mol-Kelvin    Cal/Mol-Kelvin
 Total                  207.835             64.298            133.825
 Electronic               0.000              0.000              0.000
 Translational            0.889              2.981             42.124
 Rotational               0.889              2.981             32.846
 Vibrational            206.057             58.336             58.855
 Vibration     1          0.593              1.985              6.473
 Vibration     2          0.594              1.981              5.266
 Vibration     3          0.597              1.973              4.411
 Vibration     4          0.599              1.966              4.046
 Vibration     5          0.602              1.954              3.589
 Vibration     6          0.605              1.947              3.404
 Vibration     7          0.608              1.937              3.177
 Vibration     8          0.626              1.878              2.421
 Vibration     9          0.640              1.834              2.093
 Vibration    10          0.648              1.808              1.943
 Vibration    11          0.657              1.781              1.811
 Vibration    12          0.663              1.762              1.726
 Vibration    13          0.668              1.745              1.659
 Vibration    14          0.682              1.706              1.518
 Vibration    15          0.685              1.696              1.487
 Vibration    16          0.695              1.665              1.392
 Vibration    17          0.713              1.615              1.258
 Vibration    18          0.733              1.559              1.132
 Vibration    19          0.753              1.504              1.023
 Vibration    20          0.784              1.423              0.886
 Vibration    21          0.803              1.376              0.817
 Vibration    22          0.817              1.341              0.769
 Vibration    23          0.821              1.331              0.756
 Vibration    24          0.859              1.241              0.648
 Vibration    25          0.910              1.130              0.535
 Vibration    26          0.941              1.065              0.477
 Vibration    27          0.947              1.053              0.467

                           ! Non-Optimized Parameters !
 Normal termination of Gaussian 16 at Fri Dec 11 01:33:43 2020.

 ----------------------------------------------------------------------
 # B3LYP/6-311++G(d,p) empiricaldispersion=gd3bj scf=xqc pop=npa geom=c
 heck
 ----------------------------------------------------------------------

 --------------------------------------
 CID_64541571_JID_6948_Energie_neutraal
 --------------------------------------
 Structure from the checkpoint file:  "JID_6948.chk"
 Charge =  0 Multiplicity = 1

 SCF Done:  E(RB3LYP) =  -733.346403920     A.U. after   14 cycles
 Normal termination of Gaussian 16 at Fri Dec 11 01:38:25 2020.

 ----------------------------------------------------------------------
 # B3LYP/6-311++G(d,p) empiricaldispersion=gd3bj scf=xqc pop=npa geom=c
 heck
 ----------------------------------------------------------------------

 ------------------------------------
 CID_64541571_JID_6948_Energie_kation
 ------------------------------------
 Structure from the checkpoint file:  "JID_6948.chk"
 Charge =  1 Multiplicity = 2

 SCF Done:  E(UB3LYP) =  -733.059031681     A.U. after   26 cycles
 Normal termination of Gaussian 16 at Fri Dec 11 01:49:58 2020.
 Gaussian 16:  ES64L-G16RevA.03 25-Dec-2016

 ----------------------------------------------------------------------
 # B3LYP/6-311++G(d,p) empiricaldispersion=gd3bj scf=xqc pop=npa geom=c
 heck
 ----------------------------------------------------------------------

 -----------------------------------
 CID_64541571_JID_6948_Energie_anion
 -----------------------------------
 Structure from the checkpoint file:  "JID_6948.chk"
 Charge = -1 Multiplicity = 2

                         Standard orientation:
 ---------------------------------------------------------------------
 Center     Atomic      Atomic             Coordinates (Angstroms)
 Number     Number       Type             X           Y           Z
 ---------------------------------------------------------------------
      1          6           0        4.403253    0.391704    1.185326
      2          6           0        3.921983    1.102529   -0.078207
      3          8           0        2.531018    0.983613   -0.342116
      4          6           0        1.996851   -0.253494   -0.832383
      5          6           0        2.922406   -1.027311   -1.765978
      6          6           0        1.480320   -1.129470    0.324633
      7          6           0        0.594716   -0.357019    1.323212
      8          6           0       -0.664820    0.218582    0.720838
      9          6           0       -1.850926   -0.510992    0.743705
     10          6           0       -3.020358   -0.006614    0.161033
     11          6           0       -3.007345    1.248684   -0.453670
     12          6           0       -1.815375    1.979393   -0.474538
     13          6           0       -0.653490    1.480224    0.103709
     14          8           0       -4.119043   -0.815521    0.250951
     15          6           0       -5.326353   -0.355300   -0.329338
     16          8           0        0.774170   -2.198946   -0.301732
     17          1           0        3.796084    0.685310    2.048107
     18          1           0        5.445884    0.663084    1.390666
     19          1           0        4.355780   -0.697133    1.085987
     20          1           0        4.081313    2.180788    0.028793
     21          1           0        4.513593    0.774604   -0.943152
     22          1           0        1.111988    0.048894   -1.401682
     23          1           0        3.802010   -1.424141   -1.246406
     24          1           0        2.369946   -1.874492   -2.178275
     25          1           0        3.260775   -0.393464   -2.592153
     26          1           0        2.339839   -1.529154    0.886127
     27          1           0        0.332346   -1.045419    2.138900
     28          1           0        1.203229    0.438706    1.761759
     29          1           0       -1.900407   -1.485395    1.221518
     30          1           0       -3.900387    1.661029   -0.907851
     31          1           0       -1.804042    2.955951   -0.951267
     32          1           0        0.271283    2.047044    0.069724
     33          1           0       -5.670431    0.576435    0.139417
     34          1           0       -5.218449   -0.193031   -1.410098
     35          1           0       -6.063530   -1.140920   -0.154030
     36          1           0        0.298849   -2.687359    0.387047
 ---------------------------------------------------------------------

 SCF Done:  E(UB3LYP) =  -733.333396329     A.U. after   33 cycles
 SCF Done:  E(UB3LYP) =  -733.333396329     a.u. after    1 cycles

 The electronic state is 2-A.
 Alpha  occ. eigenvalues --  -19.06073 -19.02915 -19.02860 -10.13908 -10.13039
 Alpha  occ. eigenvalues --  -10.12675 -10.12654 -10.12562 -10.08582 -10.08191
 Alpha  occ. eigenvalues --  -10.07683 -10.07584 -10.07203 -10.07001 -10.06942
 Alpha  occ. eigenvalues --  -10.06752  -0.97659  -0.94212  -0.92921  -0.76251
 Alpha  occ. eigenvalues --   -0.70132  -0.67764  -0.66409  -0.65135  -0.62110
 Alpha  occ. eigenvalues --   -0.60262  -0.56483  -0.53503  -0.51306  -0.48993
 Alpha  occ. eigenvalues --   -0.46881  -0.43951  -0.41924  -0.39775  -0.39361
 Alpha  occ. eigenvalues --   -0.38603  -0.38225  -0.37797  -0.36334  -0.35518
 Alpha  occ. eigenvalues --   -0.33980  -0.33751  -0.32692  -0.32058  -0.30936
 Alpha  occ. eigenvalues --   -0.30673  -0.29637  -0.28493  -0.27993  -0.27462
 Alpha  occ. eigenvalues --   -0.26353  -0.25926  -0.25228  -0.24654  -0.23638
 Alpha  occ. eigenvalues --   -0.22483  -0.21164  -0.18624  -0.16617  -0.15370
 Alpha  occ. eigenvalues --   -0.13011   0.04010
 Alpha virt. eigenvalues --    0.05240   0.06245   0.07313   0.07413   0.08017
 Alpha virt. eigenvalues --    0.08106   0.09088   0.09208   0.09360   0.09570
 Alpha virt. eigenvalues --    0.10276   0.10340   0.10993   0.11537   0.12098

  Beta  occ. eigenvalues --  -19.06063 -19.02911 -19.02838 -10.13907 -10.12998
  Beta  occ. eigenvalues --  -10.12669 -10.12646 -10.12546 -10.08573 -10.08190
  Beta  occ. eigenvalues --  -10.07663 -10.07569 -10.07192 -10.06986 -10.06904
  Beta  occ. eigenvalues --  -10.06746  -0.97637  -0.94192  -0.92878  -0.76229
  Beta  occ. eigenvalues --   -0.70100  -0.67734  -0.66381  -0.65097  -0.62075
  Beta  occ. eigenvalues --   -0.60211  -0.56435  -0.53445  -0.51281  -0.48948
  Beta  occ. eigenvalues --   -0.46841  -0.43912  -0.41891  -0.39748  -0.39325
  Beta  occ. eigenvalues --   -0.38574  -0.38196  -0.37766  -0.36296  -0.35485
  Beta  occ. eigenvalues --   -0.33956  -0.33718  -0.32649  -0.32026  -0.30906
  Beta  occ. eigenvalues --   -0.30645  -0.29601  -0.28457  -0.27965  -0.27437
  Beta  occ. eigenvalues --   -0.26320  -0.25901  -0.25203  -0.24615  -0.23608
  Beta  occ. eigenvalues --   -0.22454  -0.21146  -0.18594  -0.16592  -0.15324
  Beta  occ. eigenvalues --   -0.12973
  Beta virt. eigenvalues --    0.06030   0.06323   0.07046   0.07647   0.07772
  Beta virt. eigenvalues --    0.08122   0.08524   0.09308   0.09636   0.09772
  Beta virt. eigenvalues --    0.09905   0.10587   0.10621   0.11187   0.11762

 Mulliken charges and spin densities:
               1          2
     1  C    0.898598  -1.338368
     2  C   -0.477140   0.299287
     3  O   -0.072468   0.012960
     4  C   -0.874274   0.311583
     5  C    0.316218  -0.915114
     6  C    0.563423  -0.532365
     7  C    0.358292  -0.940437
     8  C   -0.015097   1.131118
     9  C   -0.775469   0.086596
    10  C   -0.283763  -0.249048
    11  C    0.949623  -0.647529
    12  C   -0.212246  -0.397929
    13  C   -0.252584   0.242373
    14  O   -0.204708   0.058578
    15  C    0.693666  -0.997720
    16  O   -0.192332  -0.004623
    17  H    0.045609   0.108308
    18  H   -0.436003   0.583634
    19  H   -0.278149   0.410795
    20  H   -0.200366   0.362341
    21  H    0.057308   0.077174
    22  H    0.318931  -0.085394
    23  H    0.015826   0.154481
    24  H    0.195710  -0.027045
    25  H   -0.041507   0.182149
    26  H    0.046133   0.168451
    27  H   -0.400455   0.606157
    28  H   -0.003514   0.142411
    29  H   -0.062220   0.224447
    30  H   -0.077432   0.242944
    31  H   -0.100808   0.265347
    32  H    0.271736  -0.044406
    33  H   -0.210474   0.364474
    34  H   -0.178803   0.333759
    35  H   -0.408338   0.579649
    36  H    0.027078   0.230963
 Sum of Mulliken charges =  -1.00000   1.00000

 Dipole moment (field-independent basis, Debye):
    X=              1.2211    Y=              1.5656    Z=             -1.6883  Tot=              2.6062
 Quadrupole moment (field-independent basis, Debye-Ang):
   XX=           -213.6305   YY=           -136.0746   ZZ=           -131.2330
   XY=             -2.1464   XZ=            -10.2577   YZ=              0.7887

 Summary of Natural Population Analysis:

                                       Natural Population
                Natural  -----------------------------------------------
    Atom  No    Charge         Core      Valence    Rydberg      Total
 -----------------------------------------------------------------------
      C    1   -0.30220      0.99966     2.29734    0.00520     3.30220
      C    2   -0.00988      0.99958     1.99690    0.01340     3.00988
      O    3   -0.30918      0.99988     3.29947    0.00983     4.30918
      C    4    0.05837      0.99951     1.92722    0.01490     2.94163
      C    5   -0.30235      0.99964     2.29866    0.00405     3.30235
      C    6    0.06042      0.99953     1.92582    0.01423     2.93958
      C    7   -0.21033      0.99958     2.19989    0.01087     3.21033
      C    8   -0.00539      0.99951     1.99497    0.01092     3.00539
      C    9   -0.11630      0.99947     2.10712    0.00971     3.11630
      C   10    0.16281      0.99938     1.82469    0.01312     2.83719
      C   11   -0.14985      0.99952     2.14172    0.00860     3.14985
      C   12   -0.09122      0.99957     2.08240    0.00924     3.09122
      C   13   -0.11878      0.99951     2.11090    0.00837     3.11878
      O   14   -0.27306      0.99986     3.26326    0.00995     4.27306
      C   15   -0.10083      0.99960     2.09209    0.00914     3.10083
      O   16   -0.37320      0.99989     3.36705    0.00627     4.37320
      H   17    0.10019      0.00000     0.39859    0.00122     0.39981
      H   18    0.10149      0.00000     0.39700    0.00152     0.39851
      H   19    0.09755      0.00000     0.40080    0.00165     0.40245
      H   20    0.08771      0.00000     0.41116    0.00113     0.41229
      H   21    0.07902      0.00000     0.41969    0.00129     0.42098
      H   22    0.09620      0.00000     0.40146    0.00233     0.40380
      H   23    0.09872      0.00000     0.40033    0.00095     0.40128
      H   24    0.11515      0.00000     0.38392    0.00093     0.38485
      H   25    0.09923      0.00000     0.39989    0.00088     0.40077
      H   26    0.07932      0.00000     0.41812    0.00256     0.42068
      H   27    0.10126      0.00000     0.39736    0.00138     0.39874
      H   28    0.11358      0.00000     0.38484    0.00158     0.38642
      H   29    0.10300      0.00000     0.39505    0.00195     0.39700
      H   30    0.10522      0.00000     0.39351    0.00126     0.39478
      H   31    0.09850      0.00000     0.40070    0.00080     0.40150
      H   32    0.11006      0.00000     0.38837    0.00158     0.38994
      H   33    0.08436      0.00000     0.41389    0.00175     0.41564
      H   34    0.08461      0.00000     0.41379    0.00159     0.41539
      H   35    0.09436      0.00000     0.40435    0.00129     0.40564
      H   36    0.23144      0.00000     0.26515    0.00341     0.26856
 =======================================================================
   * Total *   -0.00000     15.99369    44.81746    0.18885    61.00000

 Normal termination of Gaussian 16 at Fri Dec 11 02:04:31 2020.
