 Gaussian 16, Revision A.03,

 -----------------------------------------------------------
 # opt freq B3LYP/6-31G(d) empiricaldispersion=gd3bj scf=xqc
 -----------------------------------------------------------

 ------------------------------
 CID_22660816_JID_8969_neutraal
 ------------------------------
 Symbolic Z-matrix:
 Charge =  0 Multiplicity = 1

 SCF Done:  E(RB3LYP) =  -783.498491103     A.U. after   15 cycles
 SCF Done:  E(RB3LYP) =  -783.500440372     A.U. after   12 cycles
 SCF Done:  E(RB3LYP) =  -783.500688308     A.U. after   11 cycles
 SCF Done:  E(RB3LYP) =  -783.500646028     A.U. after   13 cycles
 SCF Done:  E(RB3LYP) =  -783.500749777     A.U. after   11 cycles
 SCF Done:  E(RB3LYP) =  -783.500882506     A.U. after   11 cycles
 SCF Done:  E(RB3LYP) =  -783.500950731     A.U. after   11 cycles
 SCF Done:  E(RB3LYP) =  -783.500966112     A.U. after   11 cycles
 SCF Done:  E(RB3LYP) =  -783.500994405     A.U. after   11 cycles
 SCF Done:  E(RB3LYP) =  -783.501006798     A.U. after   10 cycles
 SCF Done:  E(RB3LYP) =  -783.501012608     A.U. after   10 cycles
 SCF Done:  E(RB3LYP) =  -783.501013258     A.U. after    9 cycles
 SCF Done:  E(RB3LYP) =  -783.501013366     A.U. after    8 cycles
 Optimization completed.
    -- Stationary point found.
 Normal termination of Gaussian 16 at Fri Dec 11 23:09:54 2020.

 --------------------------------------------------------------------
 #N Geom=AllCheck Guess=TCheck SCRF=Check GenChk RB3LYP/6-31G(d) Freq
 --------------------------------------------------------------------

 Structure from the checkpoint file:  "JID_8969.chk"
 ------------------------------
 CID_22660816_JID_8969_neutraal
 ------------------------------
 Charge =  0 Multiplicity = 1

 SCF Done:  E(RB3LYP) =  -783.501013365     A.U. after    1 cycles

  Exact polarizability: 299.340   1.497 143.017   0.229   8.735  82.346
 Approx polarizability: 419.963   6.290 254.732  -0.020  20.232 137.310

                      1                      2                      3
                      A                      A                      A
 Frequencies --     37.4914                47.0240                54.5484
 Red. masses --      7.8202                 5.0992                 7.5317
 Frc consts  --      0.0065                 0.0066                 0.0132
 IR Inten    --      1.0095                 1.2240                 1.5187

                      4                      5                      6
                      A                      A                      A
 Frequencies --     71.2328               118.2571               146.5753
 Red. masses --      5.4467                 8.1300                 7.6254
 Frc consts  --      0.0163                 0.0670                 0.0965
 IR Inten    --      0.7454                 3.0608                 3.4115

                      7                      8                      9
                      A                      A                      A
 Frequencies --    160.7694               178.2728               193.9535
 Red. masses --      1.1081                 4.0053                 4.5375
 Frc consts  --      0.0169                 0.0750                 0.1006
 IR Inten    --      0.2265                 0.2430                 1.4347

                     10                     11                     12
                      A                      A                      A
 Frequencies --    214.8747               218.2657               302.0083
 Red. masses --      4.3376                 6.5128                 4.6701
 Frc consts  --      0.1180                 0.1828                 0.2510
 IR Inten    --      1.5306                 0.8001                 2.0316

                     13                     14                     15
                      A                      A                      A
 Frequencies --    349.8288               387.1950               414.4740
 Red. masses --      4.3267                 4.7918                 3.1357
 Frc consts  --      0.3120                 0.4233                 0.3174
 IR Inten    --      1.0402                 3.9676                 0.9895

                     16                     17                     18
                      A                      A                      A
 Frequencies --    423.6804               458.3361               478.6093
 Red. masses --      6.3189                 4.0834                 4.2152
 Frc consts  --      0.6683                 0.5054                 0.5689
 IR Inten    --      7.8789                 3.7752                 1.3874

                     19                     20                     21
                      A                      A                      A
 Frequencies --    524.5369               537.3441               547.0477
 Red. masses --      5.9047                 3.3555                 5.6073
 Frc consts  --      0.9572                 0.5708                 0.9887
 IR Inten    --      4.9647                17.9969                 3.6446

                     22                     23                     24
                      A                      A                      A
 Frequencies --    566.2532               592.8087               599.0078
 Red. masses --      4.7283                 3.6526                 4.1764
 Frc consts  --      0.8933                 0.7563                 0.8829
 IR Inten    --      6.0463                 6.2866                 4.6610

                     25                     26                     27
                      A                      A                      A
 Frequencies --    628.5168               661.8873               670.4223
 Red. masses --      1.4349                 6.1892                 4.6155
 Frc consts  --      0.3340                 1.5976                 1.2223
 IR Inten    --     67.1451                 1.7414                45.4821

                     28                     29                     30
                      A                      A                      A
 Frequencies --    733.3253               738.7859               753.5630
 Red. masses --      4.2855                 5.0245                 3.8206
 Frc consts  --      1.3578                 1.6158                 1.2783
 IR Inten    --     13.4562                24.5751                16.6456

                     31                     32                     33
                      A                      A                      A
 Frequencies --    781.5007               804.1907               856.5276
 Red. masses --      4.0615                 6.1967                 1.5304
 Frc consts  --      1.4615                 2.3612                 0.6615
 IR Inten    --     39.3380                 1.1452                34.5470

                     34                     35                     36
                      A                      A                      A
 Frequencies --    859.0802               878.2775               926.4856
 Red. masses --      1.2596                 1.5511                 1.5602
 Frc consts  --      0.5477                 0.7049                 0.7891
 IR Inten    --      3.2872                 6.3073                 2.3403

                     37                     38                     39
                      A                      A                      A
 Frequencies --    934.0613               976.5031               981.6499
 Red. masses --      3.4475                 1.3381                 1.2939
 Frc consts  --      1.7722                 0.7518                 0.7346
 IR Inten    --      2.2283                 0.5365                 0.1044

                     40                     41                     42
                      A                      A                      A
 Frequencies --    988.6120              1028.2744              1033.0684
 Red. masses --      1.3191                 5.2456                 1.6062
 Frc consts  --      0.7596                 3.2679                 1.0100
 IR Inten    --      0.5131                11.3961                 6.9644

                     43                     44                     45
                      A                      A                      A
 Frequencies --   1052.5522              1075.8584              1128.5665
 Red. masses --      2.6278                 1.5135                 3.2617
 Frc consts  --      1.7152                 1.0321                 2.4477
 IR Inten    --      0.0496                 3.8204               147.3081

                     46                     47                     48
                      A                      A                      A
 Frequencies --   1145.7896              1158.0349              1207.2726
 Red. masses --      1.4231                 1.5193                 1.5350
 Frc consts  --      1.1007                 1.2004                 1.3182
 IR Inten    --      7.4697                57.1162               168.7923

                     49                     50                     51
                      A                      A                      A
 Frequencies --   1215.5241              1238.4968              1241.2301
 Red. masses --      1.3297                 2.6268                 2.3591
 Frc consts  --      1.1575                 2.3739                 2.1414
 IR Inten    --      9.0607                24.5976                61.9464

                     52                     53                     54
                      A                      A                      A
 Frequencies --   1312.7059              1314.1022              1338.2443
 Red. masses --      2.1906                 2.4265                 3.6342
 Frc consts  --      2.2240                 2.4688                 3.8346
 IR Inten    --      0.7644                 0.8153                 1.8328

                     55                     56                     57
                      A                      A                      A
 Frequencies --   1342.9031              1357.3885              1400.1057
 Red. masses --      1.5002                 4.5532                 2.9001
 Frc consts  --      1.5940                 4.9428                 3.3495
 IR Inten    --      1.0030                 1.8837               193.3757

                     58                     59                     60
                      A                      A                      A
 Frequencies --   1441.1215              1448.3309              1458.7647
 Red. masses --      2.6754                 1.3066                 3.2068
 Frc consts  --      3.2737                 1.6149                 4.0206
 IR Inten    --      8.2622                 2.4253                 3.0421

                     61                     62                     63
                      A                      A                      A
 Frequencies --   1518.8105              1519.6541              1543.6952
 Red. masses --      1.0574                 1.2505                 1.9976
 Frc consts  --      1.4372                 1.7014                 2.8047
 IR Inten    --      8.5201                17.4253                 8.3597

                     64                     65                     66
                      A                      A                      A
 Frequencies --   1564.0359              1601.2713              1625.2345
 Red. masses --      2.6760                 6.3082                 7.3143
 Frc consts  --      3.8568                 9.5299                11.3829
 IR Inten    --     10.3298                 3.6068                20.5174

                     67                     68                     69
                      A                      A                      A
 Frequencies --   1668.5186              1669.0714              1822.6743
 Red. masses --      5.7078                 5.7513                 9.8354
 Frc consts  --      9.3623                 9.4399                19.2513
 IR Inten    --      0.3523                52.8284               352.2581

                     70                     71                     72
                      A                      A                      A
 Frequencies --   2351.0778              3052.0353              3111.0452
 Red. masses --     12.6795                 1.0418                 1.0944
 Frc consts  --     41.2940                 5.7173                 6.2410
 IR Inten    --     45.5375                18.9286                16.4781

                     73                     74                     75
                      A                      A                      A
 Frequencies --   3140.9648              3200.0582              3205.7271
 Red. masses --      1.1028                 1.0893                 1.0885
 Frc consts  --      6.4104                 6.5723                 6.5905
 IR Inten    --     14.8306                 8.8873                 3.5493

                     76                     77                     78
                      A                      A                      A
 Frequencies --   3211.6970              3220.8114              3223.9067
 Red. masses --      1.0880                 1.0904                 1.0946
 Frc consts  --      6.6120                 6.6647                 6.7033
 IR Inten    --      4.0042                 2.4896                 6.6472

                     79                     80                     81
                      A                      A                      A
 Frequencies --   3227.0764              3232.7186              3700.2100
 Red. masses --      1.0954                 1.0932                 1.0642
 Frc consts  --      6.7214                 6.7311                 8.5845
 IR Inten    --      3.3628                 1.3103                89.8019

 - Thermochemistry -
 -------------------
 Temperature   298.150 Kelvin.  Pressure   1.00000 Atm.
 Atom     1 has atomic number  6 and mass  12.00000

 Molecular mass:   237.07898 amu.
 Principal axes and moments of inertia in atomic units:
                           1         2         3
     Eigenvalues --  1151.56276********************
           X            1.00000  -0.00216   0.00050
           Y            0.00216   0.99997   0.00698
           Z           -0.00052  -0.00698   0.99998
 This molecule is an asymmetric top.
 Rotational symmetry number  1.
 Warning -- assumption of classical behavior for rotation
           may cause significant error
 Rotational temperatures (Kelvin)      0.07521     0.00794     0.00739
 Rotational constants (GHZ):           1.56721     0.16535     0.15408
 Zero-point vibrational energy     587034.0 (Joules/Mol)
                                  140.30448 (Kcal/Mol)
 Warning -- explicit consideration of  24 degrees of freedom as
           vibrations may cause significant error
 Vibrational temperatures:     53.94    67.66    78.48   102.49   170.15
          (Kelvin)            210.89   231.31   256.49   279.06   309.16
                              314.04   434.52   503.33   557.09   596.34
                              609.58   659.44   688.61   754.69   773.12
                              787.08   814.71   852.92   861.84   904.30
                              952.31   964.59  1055.09  1062.95  1084.21
                             1124.41  1157.05  1232.35  1236.02  1263.65
                             1333.01  1343.91  1404.97  1412.38  1422.39
                             1479.46  1486.36  1514.39  1547.92  1623.76
                             1648.54  1666.15  1737.00  1748.87  1781.92
                             1785.85  1888.69  1890.70  1925.44  1932.14
                             1952.98  2014.44  2073.45  2083.83  2098.84
                             2185.23  2186.44  2221.03  2250.30  2303.87
                             2338.35  2400.63  2401.42  2622.42  3382.68
                             4391.20  4476.10  4519.15  4604.17  4612.33
                             4620.92  4634.03  4638.48  4643.04  4651.16
                             5323.78

 Zero-point correction=                           0.223589 (Hartree/Particle)
 Thermal correction to Energy=                    0.238834
 Thermal correction to Enthalpy=                  0.239778
 Thermal correction to Gibbs Free Energy=         0.179986
 Sum of electronic and zero-point Energies=           -783.277424
 Sum of electronic and thermal Energies=              -783.262180
 Sum of electronic and thermal Enthalpies=            -783.261235
 Sum of electronic and thermal Free Energies=         -783.321027

                     E (Thermal)             CV                S
                      KCal/Mol        Cal/Mol-Kelvin    Cal/Mol-Kelvin
 Total                  149.870             58.300            125.843
 Electronic               0.000              0.000              0.000
 Translational            0.889              2.981             42.291
 Rotational               0.889              2.981             33.354
 Vibrational            148.093             52.338             50.198
 Vibration     1          0.594              1.982              5.387
 Vibration     2          0.595              1.979              4.939
 Vibration     3          0.596              1.976              4.645
 Vibration     4          0.598              1.968              4.119
 Vibration     5          0.608              1.934              3.129
 Vibration     6          0.617              1.906              2.716
 Vibration     7          0.622              1.890              2.541
 Vibration     8          0.629              1.869              2.346
 Vibration     9          0.635              1.848              2.190
 Vibration    10          0.645              1.818              2.002
 Vibration    11          0.646              1.813              1.973
 Vibration    12          0.694              1.670              1.406
 Vibration    13          0.727              1.576              1.167
 Vibration    14          0.756              1.498              1.011
 Vibration    15          0.778              1.439              0.911
 Vibration    16          0.786              1.419              0.880
 Vibration    17          0.816              1.342              0.771
 Vibration    18          0.835              1.298              0.714
 Vibration    19          0.879              1.196              0.600
 Vibration    20          0.892              1.167              0.571
 Vibration    21          0.902              1.146              0.550
 Vibration    22          0.922              1.104              0.511
 Vibration    23          0.950              1.047              0.462
 Vibration    24          0.957              1.034              0.451

 Optimization completed.
    -- Stationary point found.
 Normal termination of Gaussian 16 at Fri Dec 11 23:19:46 2020.

 ----------------------------------------------------------------------
 # B3LYP/6-311++G(d,p) empiricaldispersion=gd3bj scf=xqc pop=npa geom=c
 heck
 ----------------------------------------------------------------------

 --------------------------------------
 CID_22660816_JID_8969_Energie_neutraal
 --------------------------------------
 Structure from the checkpoint file:  "JID_8969.chk"
 Charge =  0 Multiplicity = 1

 SCF Done:  E(RB3LYP) =  -783.714058119     A.U. after   17 cycles
 Normal termination of Gaussian 16 at Fri Dec 11 23:24:39 2020.

 ----------------------------------------------------------------------
 # B3LYP/6-311++G(d,p) empiricaldispersion=gd3bj scf=xqc pop=npa geom=c
 heck
 ----------------------------------------------------------------------

 ------------------------------------
 CID_22660816_JID_8969_Energie_kation
 ------------------------------------
 Structure from the checkpoint file:  "JID_8969.chk"
 Charge =  1 Multiplicity = 2

 SCF Done:  E(UB3LYP) =  -783.395821757     A.U. after   27 cycles
 Normal termination of Gaussian 16 at Fri Dec 11 23:35:39 2020.
 Gaussian 16:  ES64L-G16RevA.03 25-Dec-2016

 ----------------------------------------------------------------------
 # B3LYP/6-311++G(d,p) empiricaldispersion=gd3bj scf=xqc pop=npa geom=c
 heck
 ----------------------------------------------------------------------

 -----------------------------------
 CID_22660816_JID_8969_Energie_anion
 -----------------------------------
 Structure from the checkpoint file:  "JID_8969.chk"
 Charge = -1 Multiplicity = 2

                         Standard orientation:
 ---------------------------------------------------------------------
 Center     Atomic      Atomic             Coordinates (Angstroms)
 Number     Number       Type             X           Y           Z
 ---------------------------------------------------------------------
      1          6           0       -0.375046    2.406452   -0.518810
      2          6           0       -1.013999    1.071431   -0.211543
      3          6           0       -0.258108   -0.098548    0.026671
      4          6           0       -0.920990   -1.315761    0.258495
      5          6           0       -2.305994   -1.390824    0.278273
      6          6           0       -3.059275   -0.234408    0.052865
      7          6           0       -2.408057    0.977549   -0.195329
      8          6           0       -4.538885   -0.348272    0.076729
      9          8           0       -5.152935   -1.376358    0.280742
     10          8           0       -5.167730    0.832737   -0.156076
     11          6           0        1.227039   -0.099196    0.023194
     12          6           0        1.964019    0.791055    0.820177
     13          6           0        3.352773    0.760112    0.831701
     14          6           0        4.038618   -0.170908    0.035400
     15          6           0        3.314443   -1.069818   -0.763283
     16          6           0        1.925536   -1.030851   -0.761967
     17          6           0        5.470199   -0.203735    0.039289
     18          7           0        6.633085   -0.229656    0.042319
     19          1           0       -0.113435    2.954813    0.394518
     20          1           0        0.543509    2.294503   -1.101527
     21          1           0       -1.066583    3.036904   -1.085404
     22          1           0       -0.329230   -2.206530    0.446763
     23          1           0       -2.819800   -2.326788    0.467142
     24          1           0       -3.001451    1.864222   -0.390561
     25          1           0       -6.121244    0.633659   -0.116755
     26          1           0        1.441319    1.499255    1.453835
     27          1           0        3.913858    1.446287    1.457127
     28          1           0        3.845581   -1.786812   -1.380220
     29          1           0        1.367568   -1.718613   -1.389660
 ---------------------------------------------------------------------

 SCF Done:  E(UB3LYP) =  -783.751211990     A.U. after   23 cycles

 The electronic state is 2-A.
 Alpha  occ. eigenvalues --  -19.05712 -18.98602 -14.18726 -10.17428 -10.08900
 Alpha  occ. eigenvalues --  -10.08228 -10.07212 -10.07148 -10.06647 -10.06351
 Alpha  occ. eigenvalues --  -10.06326 -10.06308 -10.06271 -10.05837 -10.05522
 Alpha  occ. eigenvalues --  -10.05461 -10.05359 -10.05293  -0.99337  -0.89934
 Alpha  occ. eigenvalues --   -0.78998  -0.75986  -0.74077  -0.67919  -0.66001
 Alpha  occ. eigenvalues --   -0.64300  -0.63044  -0.57906  -0.55432  -0.51363
 Alpha  occ. eigenvalues --   -0.50634  -0.48450  -0.45258  -0.43892  -0.40636
 Alpha  occ. eigenvalues --   -0.38380  -0.37187  -0.36042  -0.34497  -0.33835
 Alpha  occ. eigenvalues --   -0.33622  -0.32378  -0.32221  -0.31083  -0.30575
 Alpha  occ. eigenvalues --   -0.29527  -0.28373  -0.28316  -0.27272  -0.25386
 Alpha  occ. eigenvalues --   -0.24994  -0.24242  -0.23314  -0.22772  -0.22328
 Alpha  occ. eigenvalues --   -0.21528  -0.21419  -0.16549  -0.16069  -0.15538
 Alpha  occ. eigenvalues --   -0.13816  -0.12384   0.01455
 Alpha virt. eigenvalues --    0.06726   0.07389   0.07980   0.08865   0.08896
 Alpha virt. eigenvalues --    0.09469   0.10023   0.10426   0.11579   0.11758
 Alpha virt. eigenvalues --    0.12285   0.12591   0.13166   0.13802   0.14355

  Beta  occ. eigenvalues --  -19.05670 -18.98413 -14.18535 -10.17286 -10.08918
  Beta  occ. eigenvalues --  -10.08004 -10.07176 -10.07102 -10.06618 -10.06329
  Beta  occ. eigenvalues --  -10.06289 -10.06261 -10.06102 -10.05653 -10.05462
  Beta  occ. eigenvalues --  -10.05333 -10.05306 -10.05239  -0.99154  -0.89656
  Beta  occ. eigenvalues --   -0.78706  -0.75668  -0.73819  -0.67466  -0.65794
  Beta  occ. eigenvalues --   -0.64065  -0.62676  -0.57741  -0.54954  -0.51122
  Beta  occ. eigenvalues --   -0.50482  -0.48286  -0.45056  -0.43742  -0.40504
  Beta  occ. eigenvalues --   -0.38098  -0.36998  -0.35876  -0.34334  -0.33507
  Beta  occ. eigenvalues --   -0.33032  -0.32230  -0.32139  -0.30996  -0.30446
  Beta  occ. eigenvalues --   -0.29455  -0.28230  -0.27605  -0.27055  -0.25105
  Beta  occ. eigenvalues --   -0.24708  -0.23778  -0.22893  -0.22579  -0.21893
  Beta  occ. eigenvalues --   -0.21415  -0.20657  -0.16347  -0.14899  -0.14749
  Beta  occ. eigenvalues --   -0.13161  -0.11315
  Beta virt. eigenvalues --    0.05955   0.07383   0.07962   0.08681   0.08925
  Beta virt. eigenvalues --    0.09097   0.09480   0.10051   0.10499   0.11577
  Beta virt. eigenvalues --    0.11760   0.12271   0.12585   0.13154   0.13824

 Mulliken charges and spin densities:
               1          2
     1  C   -0.710259   0.003691
     2  C   -0.268123   0.024054
     3  C    0.819182   0.116614
     4  C   -0.694108   0.018562
     5  C   -0.540535   0.067392
     6  C    0.596005   0.064723
     7  C   -0.817335   0.055523
     8  C    0.328846   0.089668
     9  O   -0.381328   0.067102
    10  O   -0.214281   0.009734
    11  C    1.277770   0.145833
    12  C   -0.688734   0.025556
    13  C   -0.522782   0.046981
    14  C    2.134700   0.160709
    15  C   -0.618556   0.056211
    16  C   -0.312972   0.021908
    17  C   -1.891276  -0.070734
    18  N   -0.274527   0.102327
    19  H    0.144645   0.005023
    20  H    0.140921  -0.000282
    21  H    0.128704   0.001287
    22  H    0.137546   0.001677
    23  H    0.170650  -0.003003
    24  H    0.168986  -0.002492
    25  H    0.274486  -0.000608
    26  H    0.136311  -0.003429
    27  H    0.163771  -0.001328
    28  H    0.159528  -0.001761
    29  H    0.152765  -0.000939
 Sum of Mulliken charges =  -1.00000   1.00000

 Dipole moment (field-independent basis, Debye):
    X=             -4.7953    Y=              2.5137    Z=             -0.5401  Tot=              5.4411
 Quadrupole moment (field-independent basis, Debye-Ang):
   XX=           -228.0450   YY=           -113.1408   ZZ=           -111.2828
   XY=             -9.1334   XZ=              2.0037   YZ=              3.4542

 Summary of Natural Population Analysis:

                                       Natural Population
                Natural  -----------------------------------------------
    Atom  No    Charge         Core      Valence    Rydberg      Total
 -----------------------------------------------------------------------
      C    1   -0.29350      0.99964     2.28883    0.00502     3.29350
      C    2   -0.01212      0.99949     2.00386    0.00877     3.01212
      C    3   -0.00160      0.99949     1.98836    0.01374     3.00160
      C    4   -0.09548      0.99953     2.08633    0.00961     3.09548
      C    5   -0.07288      0.99954     2.06449    0.00884     3.07288
      C    6   -0.05709      0.99945     2.04757    0.01007     3.05709
      C    7   -0.07492      0.99950     2.06658    0.00883     3.07492
      C    8    0.41297      0.99966     1.56274    0.02463     2.58703
      O    9   -0.30840      0.99987     3.30097    0.00756     4.30840
      O   10   -0.35147      0.99988     3.34574    0.00584     4.35147
      C   11    0.07796      0.99950     1.91223    0.01030     2.92204
      C   12   -0.10912      0.99958     2.09581    0.01373     3.10912
      C   13   -0.09147      0.99960     2.07729    0.01459     3.09147
      C   14   -0.00962      0.99942     1.99977    0.01043     3.00962
      C   15   -0.08963      0.99960     2.07531    0.01472     3.08963
      C   16   -0.11112      0.99958     2.09708    0.01445     3.11112
      C   17    0.13080      0.99971     1.84875    0.02074     2.86920
      N   18   -0.16971      0.99978     2.66177    0.00815     3.66971
      H   19    0.09872      0.00000     0.40022    0.00106     0.40128
      H   20    0.10690      0.00000     0.39225    0.00085     0.39310
      H   21    0.09700      0.00000     0.40203    0.00097     0.40300
      H   22    0.09692      0.00000     0.40157    0.00151     0.40308
      H   23    0.10558      0.00000     0.39333    0.00109     0.39442
      H   24    0.10064      0.00000     0.39825    0.00111     0.39936
      H   25    0.23317      0.00000     0.26374    0.00309     0.26683
      H   26    0.09816      0.00000     0.40021    0.00163     0.40184
      H   27    0.09840      0.00000     0.40026    0.00134     0.40160
      H   28    0.09844      0.00000     0.40024    0.00132     0.40156
      H   29    0.09950      0.00000     0.39903    0.00147     0.40050
 =======================================================================
   * Total *    0.00706     17.99284    43.77461    0.22550    61.99294

 Normal termination of Gaussian 16 at Fri Dec 11 23:44:53 2020.
