 Gaussian 16, Revision A.03,

 -----------------------------------------------------------
 # opt freq B3LYP/6-31G(d) empiricaldispersion=gd3bj scf=xqc
 -----------------------------------------------------------

 ------------------------------
 CID_65585136_JID_4820_neutraal
 ------------------------------
 Symbolic Z-matrix:
 Charge =  0 Multiplicity = 1

 SCF Done:  E(RB3LYP) =  -648.265295915     A.U. after   14 cycles
 SCF Done:  E(RB3LYP) =  -648.268917005     A.U. after   12 cycles
 SCF Done:  E(RB3LYP) =  -648.269365291     A.U. after   11 cycles
 SCF Done:  E(RB3LYP) =  -648.269468936     A.U. after   11 cycles
 SCF Done:  E(RB3LYP) =  -648.269540767     A.U. after   11 cycles
 SCF Done:  E(RB3LYP) =  -648.269578406     A.U. after   11 cycles
 SCF Done:  E(RB3LYP) =  -648.269618189     A.U. after   11 cycles
 SCF Done:  E(RB3LYP) =  -648.269663320     A.U. after   11 cycles
 SCF Done:  E(RB3LYP) =  -648.269719352     A.U. after   12 cycles
 SCF Done:  E(RB3LYP) =  -648.269730157     A.U. after   10 cycles
 SCF Done:  E(RB3LYP) =  -648.270068248     A.U. after   11 cycles
 SCF Done:  E(RB3LYP) =  -648.270067704     A.U. after   11 cycles
 SCF Done:  E(RB3LYP) =  -648.270082266     A.U. after   11 cycles
 SCF Done:  E(RB3LYP) =  -648.270084930     A.U. after    9 cycles
 SCF Done:  E(RB3LYP) =  -648.270085144     A.U. after    8 cycles
 Optimization completed.
    -- Stationary point found.
 Normal termination of Gaussian 16 at Thu Dec 10 10:44:53 2020.

 --------------------------------------------------------------------
 #N Geom=AllCheck Guess=TCheck SCRF=Check GenChk RB3LYP/6-31G(d) Freq
 --------------------------------------------------------------------

 Structure from the checkpoint file:  "JID_4820.chk"
 ------------------------------
 CID_65585136_JID_4820_neutraal
 ------------------------------
 Charge =  0 Multiplicity = 1

 SCF Done:  E(RB3LYP) =  -648.270085144     A.U. after    1 cycles

  Exact polarizability: 137.341   7.268 133.629   3.784   0.423  81.691
 Approx polarizability: 198.958   5.951 206.676   7.065   7.119 132.399

                      1                      2                      3
                      A                      A                      A
 Frequencies --     28.3574                52.0016                97.0093
 Red. masses --      4.0927                 4.8329                 3.2500
 Frc consts  --      0.0019                 0.0077                 0.0180
 IR Inten    --      0.4310                 0.1764                 4.2774

                      4                      5                      6
                      A                      A                      A
 Frequencies --    106.9344               152.8412               210.1515
 Red. masses --      5.4606                 4.1949                 2.1468
 Frc consts  --      0.0368                 0.0577                 0.0559
 IR Inten    --      2.4016                 1.1826                 4.4351

                      7                      8                      9
                      A                      A                      A
 Frequencies --    233.1972               282.2069               283.2636
 Red. masses --      2.6972                 1.6543                 3.5145
 Frc consts  --      0.0864                 0.0776                 0.1661
 IR Inten    --     12.1593                 1.0367                 1.0104

                     10                     11                     12
                      A                      A                      A
 Frequencies --    323.8758               352.5740               379.6786
 Red. masses --      3.7201                 3.9693                 1.3720
 Frc consts  --      0.2299                 0.2907                 0.1165
 IR Inten    --     12.7747                 0.0728                39.4521

                     13                     14                     15
                      A                      A                      A
 Frequencies --    445.4417               459.0195               483.6911
 Red. masses --      1.9874                 4.6164                 3.0270
 Frc consts  --      0.2323                 0.5731                 0.4173
 IR Inten    --      9.6978                 0.3403                 0.4327

                     16                     17                     18
                      A                      A                      A
 Frequencies --    561.0843               565.4894               595.8376
 Red. masses --      3.0548                 1.7191                 3.9854
 Frc consts  --      0.5666                 0.3239                 0.8336
 IR Inten    --    107.8744               199.3713                 8.8339

                     19                     20                     21
                      A                      A                      A
 Frequencies --    635.3991               701.2231               713.9499
 Red. masses --      4.6455                 5.5740                 2.9659
 Frc consts  --      1.1050                 1.6148                 0.8907
 IR Inten    --      2.4786                10.1813                34.8392

                     22                     23                     24
                      A                      A                      A
 Frequencies --    730.5366               744.5059               801.5700
 Red. masses --      4.7237                 4.0811                 2.3973
 Frc consts  --      1.4853                 1.3328                 0.9075
 IR Inten    --      3.6215                53.8033                 3.3489

                     25                     26                     27
                      A                      A                      A
 Frequencies --    804.9946               892.6311               895.7572
 Red. masses --      2.5924                 1.5127                 1.4236
 Frc consts  --      0.9898                 0.7101                 0.6730
 IR Inten    --     52.9314                12.5954                 0.7164

                     28                     29                     30
                      A                      A                      A
 Frequencies --    906.6732               944.0361               970.4874
 Red. masses --      2.9009                 4.4415                 1.2620
 Frc consts  --      1.4050                 2.3321                 0.7003
 IR Inten    --     12.9571                17.3685                 0.5193

                     31                     32                     33
                      A                      A                      A
 Frequencies --    996.6352              1007.7983              1015.1506
 Red. masses --      3.4370                 4.6396                 3.7484
 Frc consts  --      2.0114                 2.7764                 2.2759
 IR Inten    --     11.0297                64.2575                61.2718

                     34                     35                     36
                      A                      A                      A
 Frequencies --   1020.6415              1061.3579              1087.9329
 Red. masses --      5.5297                 2.0299                 3.7719
 Frc consts  --      3.3939                 1.3472                 2.6303
 IR Inten    --     43.5495                 7.9762                39.9028

                     37                     38                     39
                      A                      A                      A
 Frequencies --   1118.2610              1186.0387              1186.1794
 Red. masses --      1.5911                 2.0484                 1.2726
 Frc consts  --      1.1723                 1.6977                 1.0550
 IR Inten    --      1.4749                 3.5172                 0.6045

                     40                     41                     42
                      A                      A                      A
 Frequencies --   1196.0812              1205.3983              1219.3424
 Red. masses --      1.1626                 1.3844                 1.2505
 Frc consts  --      0.9799                 1.1851                 1.0955
 IR Inten    --      4.4440                23.1479                15.1451

                     43                     44                     45
                      A                      A                      A
 Frequencies --   1231.3253              1302.7895              1314.2636
 Red. masses --      1.5492                 1.8606                 1.7211
 Frc consts  --      1.3839                 1.8606                 1.7515
 IR Inten    --     16.4936                83.2315                95.5806

                     46                     47                     48
                      A                      A                      A
 Frequencies --   1324.0886              1335.7610              1377.2591
 Red. masses --      2.1028                 1.4594                 1.8008
 Frc consts  --      2.1721                 1.5342                 2.0125
 IR Inten    --     41.2879                13.0614                28.3517

                     49                     50                     51
                      A                      A                      A
 Frequencies --   1401.7288              1447.8791              1488.8354
 Red. masses --      2.5984                 3.1079                 1.6503
 Frc consts  --      3.0080                 3.8387                 2.1553
 IR Inten    --     67.8507               191.7565                25.4006

                     52                     53                     54
                      A                      A                      A
 Frequencies --   1511.6998              1520.5848              1533.4496
 Red. masses --      1.6306                 1.0475                 1.1453
 Frc consts  --      2.1955                 1.4270                 1.5867
 IR Inten    --      0.4351                 6.8862                56.1209

                     55                     56                     57
                      A                      A                      A
 Frequencies --   1539.6023              1550.7184              1648.3773
 Red. masses --      1.1135                 2.1166                 1.2339
 Frc consts  --      1.5550                 2.9988                 1.9753
 IR Inten    --      5.1977                27.3785                49.0383

                     58                     59                     60
                      A                      A                      A
 Frequencies --   1658.3034              1665.4182              1768.4041
 Red. masses --      6.1635                 5.4082                 6.5930
 Frc consts  --      9.9864                 8.8379                12.1478
 IR Inten    --     15.1286                93.9818               375.9060

                     61                     62                     63
                      A                      A                      A
 Frequencies --   3027.2512              3039.0270              3086.1227
 Red. masses --      1.0347                 1.0691                 1.1065
 Frc consts  --      5.5870                 5.8177                 6.2089
 IR Inten    --     43.0889                61.3186                38.8592

                     64                     65                     66
                      A                      A                      A
 Frequencies --   3094.9107              3112.5197              3160.1892
 Red. masses --      1.0961                 1.0889                 1.1000
 Frc consts  --      6.1859                 6.2155                 6.4726
 IR Inten    --     24.5071                34.7664                27.7559

                     67                     68                     69
                      A                      A                      A
 Frequencies --   3186.5050              3201.7197              3219.6638
 Red. masses --      1.0867                 1.0922                 1.0946
 Frc consts  --      6.5014                 6.5967                 6.6854
 IR Inten    --      6.3704                22.4736                10.8047

                     70                     71                     72
                      A                      A                      A
 Frequencies --   3225.8472              3577.5096              3689.2857
 Red. masses --      1.0896                 1.0468                 1.1004
 Frc consts  --      6.6805                 7.8935                 8.8246
 IR Inten    --      2.6688                31.7355                30.7301

 - Thermochemistry -
 -------------------
 Temperature   298.150 Kelvin.  Pressure   1.00000 Atm.
 Atom     1 has atomic number  6 and mass  12.00000

 Molecular mass:   192.08988 amu.
 Principal axes and moments of inertia in atomic units:
                           1         2         3
     Eigenvalues --  1685.418293698.813104709.10387
           X            1.00000  -0.00008   0.00045
           Y            0.00009   0.99997  -0.00813
           Z           -0.00045   0.00813   0.99997
 This molecule is an asymmetric top.
 Rotational symmetry number  1.
 Warning -- assumption of classical behavior for rotation
           may cause significant error
 Rotational temperatures (Kelvin)      0.05139     0.02342     0.01839
 Rotational constants (GHZ):           1.07080     0.48792     0.38325
 Zero-point vibrational energy     561624.5 (Joules/Mol)
                                  134.23147 (Kcal/Mol)
 Warning -- explicit consideration of  18 degrees of freedom as
           vibrations may cause significant error
 Vibrational temperatures:     40.80    74.82   139.57   153.85   219.90
          (Kelvin)            302.36   335.52   406.03   407.55   465.99
                              507.28   546.27   640.89   660.43   695.92
                              807.28   813.61   857.28   914.20  1008.90
                             1027.21  1051.08  1071.18  1153.28  1158.21
                             1284.30  1288.79  1304.50  1358.26  1396.31
                             1433.94  1450.00  1460.58  1468.48  1527.06
                             1565.29  1608.93  1706.45  1706.65  1720.89
                             1734.30  1754.36  1771.60  1874.42  1890.93
                             1905.07  1921.86  1981.57  2016.78  2083.18
                             2142.10  2175.00  2187.78  2206.29  2215.14
                             2231.14  2371.65  2385.93  2396.17  2544.34
                             4355.54  4372.48  4440.24  4452.89  4478.22
                             4546.81  4584.67  4606.56  4632.38  4641.27
                             5147.24  5308.06

 Zero-point correction=                           0.213911 (Hartree/Particle)
 Thermal correction to Energy=                    0.226242
 Thermal correction to Enthalpy=                  0.227186
 Thermal correction to Gibbs Free Energy=         0.174272
 Sum of electronic and zero-point Energies=           -648.056174
 Sum of electronic and thermal Energies=              -648.043844
 Sum of electronic and thermal Enthalpies=            -648.042899
 Sum of electronic and thermal Free Energies=         -648.095813

                     E (Thermal)             CV                S
                      KCal/Mol        Cal/Mol-Kelvin    Cal/Mol-Kelvin
 Total                  141.969             47.460            111.366
 Electronic               0.000              0.000              0.000
 Translational            0.889              2.981             41.664
 Rotational               0.889              2.981             31.751
 Vibrational            140.191             41.498             37.951
 Vibration     1          0.593              1.984              5.941
 Vibration     2          0.596              1.977              4.740
 Vibration     3          0.603              1.951              3.514
 Vibration     4          0.606              1.944              3.324
 Vibration     5          0.619              1.900              2.637
 Vibration     6          0.642              1.825              2.042
 Vibration     7          0.654              1.790              1.854
 Vibration     8          0.681              1.707              1.520
 Vibration     9          0.682              1.705              1.514
 Vibration    10          0.708              1.628              1.290
 Vibration    11          0.729              1.570              1.155
 Vibration    12          0.750              1.513              1.040
 Vibration    13          0.805              1.371              0.810
 Vibration    14          0.817              1.341              0.769
 Vibration    15          0.840              1.286              0.700
 Vibration    16          0.917              1.115              0.522
 Vibration    17          0.921              1.106              0.513
 Vibration    18          0.954              1.041              0.457

                           ! Non-Optimized Parameters !
 Normal termination of Gaussian 16 at Thu Dec 10 10:52:03 2020.

 ----------------------------------------------------------------------
 # B3LYP/6-311++G(d,p) empiricaldispersion=gd3bj scf=xqc pop=npa geom=c
 heck
 ----------------------------------------------------------------------

 --------------------------------------
 CID_65585136_JID_4820_Energie_neutraal
 --------------------------------------
 Structure from the checkpoint file:  "JID_4820.chk"
 Charge =  0 Multiplicity = 1

 SCF Done:  E(RB3LYP) =  -648.455795706     A.U. after   15 cycles
 Normal termination of Gaussian 16 at Thu Dec 10 10:54:44 2020.

 ----------------------------------------------------------------------
 # B3LYP/6-311++G(d,p) empiricaldispersion=gd3bj scf=xqc pop=npa geom=c
 heck
 ----------------------------------------------------------------------

 ------------------------------------
 CID_65585136_JID_4820_Energie_kation
 ------------------------------------
 Structure from the checkpoint file:  "JID_4820.chk"
 Charge =  1 Multiplicity = 2

 SCF Done:  E(UB3LYP) =  -648.159949243     A.U. after   27 cycles
 Normal termination of Gaussian 16 at Thu Dec 10 11:00:43 2020.
 Gaussian 16:  ES64L-G16RevA.03 25-Dec-2016

 ----------------------------------------------------------------------
 # B3LYP/6-311++G(d,p) empiricaldispersion=gd3bj scf=xqc pop=npa geom=c
 heck
 ----------------------------------------------------------------------

 -----------------------------------
 CID_65585136_JID_4820_Energie_anion
 -----------------------------------
 Structure from the checkpoint file:  "JID_4820.chk"
 Charge = -1 Multiplicity = 2

                         Standard orientation:
 ---------------------------------------------------------------------
 Center     Atomic      Atomic             Coordinates (Angstroms)
 Number     Number       Type             X           Y           Z
 ---------------------------------------------------------------------
      1          6           0       -1.928271    2.770950    0.256673
      2          8           0       -2.734829    1.633333   -0.001071
      3          6           0       -2.120508    0.416036   -0.048123
      4          6           0       -2.963522   -0.680910   -0.288967
      5          6           0       -2.429196   -1.959736   -0.350230
      6          6           0       -1.055392   -2.165032   -0.178055
      7          6           0       -0.217653   -1.079145    0.062524
      8          6           0       -0.751274    0.217581    0.129589
      9          6           0        1.263424   -1.279932    0.258746
     10          6           0        1.861330   -0.568913    1.511969
     11          7           0        2.587567    0.590566    0.986634
     12          6           0        2.639842    0.416069   -0.279901
     13          8           0        1.999064   -0.651805   -0.838210
     14          7           0        3.332731    1.176765   -1.185084
     15          1           0       -2.606700    3.625608    0.258215
     16          1           0       -1.168315    2.910198   -0.523528
     17          1           0       -1.429643    2.698420    1.231938
     18          1           0       -4.025270   -0.499547   -0.420098
     19          1           0       -3.084575   -2.805912   -0.536102
     20          1           0       -0.640225   -3.167529   -0.232960
     21          1           0       -0.085832    1.049656    0.327641
     22          1           0        1.505125   -2.344338    0.223399
     23          1           0        2.545090   -1.230983    2.059696
     24          1           0        1.074429   -0.258657    2.206749
     25          1           0        2.937311    1.205881   -2.115553
     26          1           0        3.629956    2.071846   -0.821353
 ---------------------------------------------------------------------

 SCF Done:  E(UB3LYP) =  -648.444117947     A.U. after   33 cycles
 SCF Done:  E(UB3LYP) =  -648.444117947     a.u. after    1 cycles

 The electronic state is 2-A.
 Alpha  occ. eigenvalues --  -19.05636 -19.05476 -14.22190 -14.17626 -10.18060
 Alpha  occ. eigenvalues --  -10.13752 -10.13681 -10.12070 -10.09945 -10.08371
 Alpha  occ. eigenvalues --  -10.08070 -10.07400 -10.07284 -10.07092  -0.99157
 Alpha  occ. eigenvalues --   -0.97232  -0.82426  -0.78486  -0.76118  -0.68582
 Alpha  occ. eigenvalues --   -0.65514  -0.62756  -0.59751  -0.54711  -0.50845
 Alpha  occ. eigenvalues --   -0.50023  -0.47697  -0.44162  -0.41896  -0.40777
 Alpha  occ. eigenvalues --   -0.39259  -0.38517  -0.37513  -0.37066  -0.35209
 Alpha  occ. eigenvalues --   -0.33397  -0.32498  -0.31671  -0.30896  -0.29493
 Alpha  occ. eigenvalues --   -0.28064  -0.27545  -0.26695  -0.25353  -0.23774
 Alpha  occ. eigenvalues --   -0.22594  -0.19086  -0.17511  -0.15556  -0.13113
 Alpha  occ. eigenvalues --   -0.13029   0.04460
 Alpha virt. eigenvalues --    0.06390   0.06995   0.07143   0.07689   0.09144
 Alpha virt. eigenvalues --    0.09515   0.09565   0.10385   0.10913   0.11353
 Alpha virt. eigenvalues --    0.11762   0.13224   0.13430   0.14178   0.14796

  Beta  occ. eigenvalues --  -19.05633 -19.05448 -14.22114 -14.17617 -10.18046
  Beta  occ. eigenvalues --  -10.13763 -10.13667 -10.12026 -10.09939 -10.08329
  Beta  occ. eigenvalues --  -10.08050 -10.07397 -10.07231 -10.07045  -0.99105
  Beta  occ. eigenvalues --   -0.97222  -0.82344  -0.78436  -0.76047  -0.68491
  Beta  occ. eigenvalues --   -0.65457  -0.62681  -0.59682  -0.54655  -0.50747
  Beta  occ. eigenvalues --   -0.49975  -0.47603  -0.44114  -0.41831  -0.40721
  Beta  occ. eigenvalues --   -0.39192  -0.38468  -0.37468  -0.37037  -0.35154
  Beta  occ. eigenvalues --   -0.33339  -0.32455  -0.31623  -0.30848  -0.29446
  Beta  occ. eigenvalues --   -0.27962  -0.27501  -0.26657  -0.25316  -0.23733
  Beta  occ. eigenvalues --   -0.22523  -0.19016  -0.17463  -0.15324  -0.13064
  Beta  occ. eigenvalues --   -0.12900
  Beta virt. eigenvalues --    0.06497   0.07339   0.07566   0.07717   0.08593
  Beta virt. eigenvalues --    0.09278   0.09541   0.09785   0.10793   0.11667
  Beta virt. eigenvalues --    0.11835   0.12416   0.13227   0.13628   0.14176

 Mulliken charges and spin densities:
               1          2
     1  C    0.651393  -0.979485
     2  O   -0.205376   0.053926
     3  C   -1.270842   0.335480
     4  C    0.318638  -0.661230
     5  C    0.302427  -0.486202
     6  C   -0.843589   0.307106
     7  C    0.634316   0.114895
     8  C   -0.070611   0.748404
     9  C    1.115187  -0.846136
    10  C   -0.226703  -0.548522
    11  N   -0.027703  -0.069960
    12  C    0.211358  -0.400351
    13  O   -0.004560  -0.070336
    14  N   -0.497822   0.210752
    15  H   -0.496232   0.672161
    16  H   -0.407703   0.582047
    17  H   -0.204973   0.365564
    18  H    0.011157   0.145035
    19  H   -0.180328   0.339112
    20  H   -0.140600   0.250478
    21  H    0.831470  -0.668855
    22  H    0.080233   0.177199
    23  H    0.032450   0.098046
    24  H    0.083798   0.089183
    25  H   -0.331379   0.596225
    26  H   -0.364008   0.645463
 Sum of Mulliken charges =  -1.00000   1.00000

 Dipole moment (field-independent basis, Debye):
    X=             -2.5373    Y=             -6.2393    Z=              2.5534  Tot=              7.2033
 Quadrupole moment (field-independent basis, Debye-Ang):
   XX=           -142.7552   YY=           -133.5736   ZZ=           -113.0764
   XY=             -8.1376   XZ=              5.8964   YZ=              3.7612

 Summary of Natural Population Analysis:

                                       Natural Population
                Natural  -----------------------------------------------
    Atom  No    Charge         Core      Valence    Rydberg      Total
 -----------------------------------------------------------------------
      C    1   -0.10155      0.99960     2.09266    0.00929     3.10155
      O    2   -0.27403      0.99986     3.26420    0.00997     4.27403
      C    3    0.16220      0.99939     1.82432    0.01410     2.83780
      C    4   -0.11141      0.99952     2.10252    0.00936     3.11141
      C    5   -0.09403      0.99957     2.08463    0.00983     3.09403
      C    6   -0.11391      0.99951     2.10500    0.00941     3.11391
      C    7   -0.01449      0.99950     2.00475    0.01024     3.01449
      C    8   -0.13718      0.99947     2.12921    0.00850     3.13718
      C    9    0.05435      0.99950     1.93245    0.01369     2.94565
      C   10   -0.10161      0.99962     2.09181    0.01018     3.10161
      N   11   -0.30468      0.99966     2.79359    0.01143     3.80468
      C   12    0.36003      0.99959     1.61861    0.02177     2.63997
      O   13   -0.28235      0.99987     3.27456    0.00791     4.28235
      N   14   -0.39860      0.99970     2.88886    0.01005     3.89860
      H   15    0.09342      0.00000     0.40517    0.00141     0.40658
      H   16    0.08933      0.00000     0.40853    0.00214     0.41067
      H   17    0.08555      0.00000     0.41290    0.00155     0.41445
      H   18    0.10399      0.00000     0.39489    0.00113     0.39601
      H   19    0.09862      0.00000     0.40051    0.00087     0.40138
      H   20    0.09883      0.00000     0.39995    0.00122     0.40117
      H   21    0.11179      0.00000     0.38522    0.00299     0.38821
      H   22    0.09362      0.00000     0.40502    0.00136     0.40638
      H   23    0.08906      0.00000     0.40957    0.00137     0.41094
      H   24    0.09669      0.00000     0.40180    0.00151     0.40331
      H   25    0.19707      0.00000     0.29737    0.00555     0.30293
      H   26    0.19929      0.00000     0.29417    0.00654     0.30071
 =======================================================================
   * Total *   -0.00000     13.99437    36.82227    0.18336    51.00000

 Normal termination of Gaussian 16 at Thu Dec 10 11:09:43 2020.
