 Gaussian 16, Revision A.03,

 -----------------------------------------------------------
 # opt freq B3LYP/6-31G(d) empiricaldispersion=gd3bj scf=xqc
 -----------------------------------------------------------

 -------------------------------
 CID_148208227_JID_3039_neutraal
 -------------------------------
 Symbolic Z-matrix:
 Charge =  0 Multiplicity = 1

 SCF Done:  E(RB3LYP) =  -508.581298082     A.U. after   14 cycles
 SCF Done:  E(RB3LYP) =  -508.586592475     A.U. after   12 cycles
 SCF Done:  E(RB3LYP) =  -508.587440381     A.U. after   12 cycles
 SCF Done:  E(RB3LYP) =  -508.587636281     A.U. after   11 cycles
 SCF Done:  E(RB3LYP) =  -508.587698299     A.U. after   10 cycles
 SCF Done:  E(RB3LYP) =  -508.587716890     A.U. after    9 cycles
 SCF Done:  E(RB3LYP) =  -508.587725334     A.U. after    9 cycles
 SCF Done:  E(RB3LYP) =  -508.587727936     A.U. after    9 cycles
 SCF Done:  E(RB3LYP) =  -508.587729094     A.U. after    8 cycles
 SCF Done:  E(RB3LYP) =  -508.587730321     A.U. after    8 cycles
 SCF Done:  E(RB3LYP) =  -508.587731063     A.U. after    8 cycles
 SCF Done:  E(RB3LYP) =  -508.587731097     A.U. after    6 cycles
 Optimization completed.
    -- Stationary point found.
 Normal termination of Gaussian 16 at Wed Dec  9 22:23:08 2020.

 --------------------------------------------------------------------
 #N Geom=AllCheck Guess=TCheck SCRF=Check GenChk RB3LYP/6-31G(d) Freq
 --------------------------------------------------------------------

 Structure from the checkpoint file:  "JID_3039.chk"
 -------------------------------
 CID_148208227_JID_3039_neutraal
 -------------------------------
 Charge =  0 Multiplicity = 1

 SCF Done:  E(RB3LYP) =  -508.587731097     A.U. after    1 cycles

  Exact polarizability: 166.821   5.803 121.960  -7.566  -2.092 112.179
 Approx polarizability: 216.732  17.422 187.459 -20.157  -8.588 171.787

                      1                      2                      3
                      A                      A                      A
 Frequencies --     32.7442                52.4139                75.2482
 Red. masses --      3.3082                 3.1978                 2.1246
 Frc consts  --      0.0021                 0.0052                 0.0071
 IR Inten    --      0.1209                 0.7566                 0.2713

                      4                      5                      6
                      A                      A                      A
 Frequencies --     92.0714               110.3427               125.7033
 Red. masses --      2.6888                 3.0286                 2.6089
 Frc consts  --      0.0134                 0.0217                 0.0243
 IR Inten    --      0.1916                 0.1536                 0.8799

                      7                      8                      9
                      A                      A                      A
 Frequencies --    184.5473               217.7585               235.8169
 Red. masses --      2.1847                 1.0375                 1.4018
 Frc consts  --      0.0438                 0.0290                 0.0459
 IR Inten    --      0.3704                 0.0338                 0.0435

                     10                     11                     12
                      A                      A                      A
 Frequencies --    242.1554               265.5522               270.3860
 Red. masses --      1.8938                 2.2962                 2.8387
 Frc consts  --      0.0654                 0.0954                 0.1223
 IR Inten    --      0.4460                 2.8266                 4.3003

                     13                     14                     15
                      A                      A                      A
 Frequencies --    271.6877               304.1142               333.8963
 Red. masses --      1.8826                 1.7997                 2.0611
 Frc consts  --      0.0819                 0.0981                 0.1354
 IR Inten    --      1.2431                 0.4142                 0.0676

                     16                     17                     18
                      A                      A                      A
 Frequencies --    380.7353               390.4645               411.3917
 Red. masses --      4.8968                 2.7706                 2.6661
 Frc consts  --      0.4182                 0.2489                 0.2659
 IR Inten    --     81.8456                19.5761                 8.9999

                     19                     20                     21
                      A                      A                      A
 Frequencies --    437.2685               487.0111               505.7646
 Red. masses --      2.7966                 2.7188                 2.0771
 Frc consts  --      0.3150                 0.3799                 0.3130
 IR Inten    --      2.3240                 2.1004                 9.2165

                     22                     23                     24
                      A                      A                      A
 Frequencies --    543.9305               569.7354               774.3261
 Red. masses --      3.1099                 2.8369                 1.8372
 Frc consts  --      0.5421                 0.5425                 0.6490
 IR Inten    --      1.8411                 9.8429                 2.1653

                     25                     26                     27
                      A                      A                      A
 Frequencies --    797.9983               819.6802               837.0331
 Red. masses --      1.4566                 2.2844                 2.2628
 Frc consts  --      0.5465                 0.9043                 0.9341
 IR Inten    --      1.2545                 0.1782                 4.7405

                     28                     29                     30
                      A                      A                      A
 Frequencies --    855.1358               887.4352               890.3448
 Red. masses --      2.2598                 2.0348                 1.6199
 Frc consts  --      0.9736                 0.9441                 0.7566
 IR Inten    --     14.8952                 8.4653                 1.2485

                     31                     32                     33
                      A                      A                      A
 Frequencies --    911.0707               933.9170               955.0802
 Red. masses --      1.4253                 2.3071                 1.9166
 Frc consts  --      0.6971                 1.1856                 1.0300
 IR Inten    --      1.1187                10.4260                 2.2299

                     34                     35                     36
                      A                      A                      A
 Frequencies --    979.2823               989.3407              1009.8382
 Red. masses --      1.9585                 1.2953                 1.7968
 Frc consts  --      1.1066                 0.7470                 1.0796
 IR Inten    --      6.8854                 1.6627                 3.2454

                     37                     38                     39
                      A                      A                      A
 Frequencies --   1030.5391              1042.6999              1059.7398
 Red. masses --      2.7028                 1.5796                 2.7056
 Frc consts  --      1.6912                 1.0118                 1.7903
 IR Inten    --      2.6156                 2.7255                 0.2790

                     40                     41                     42
                      A                      A                      A
 Frequencies --   1063.8619              1096.7988              1127.7184
 Red. masses --      1.6699                 2.3675                 2.5663
 Frc consts  --      1.1136                 1.6780                 1.9229
 IR Inten    --      1.7642                 4.4252                 5.9783

                     43                     44                     45
                      A                      A                      A
 Frequencies --   1148.8855              1160.0101              1177.9074
 Red. masses --      1.4952                 1.8941                 1.6027
 Frc consts  --      1.1628                 1.5016                 1.3102
 IR Inten    --      2.5804                 0.1727                 3.7859

                     46                     47                     48
                      A                      A                      A
 Frequencies --   1189.0969              1202.9455              1215.6326
 Red. masses --      1.6841                 1.7748                 1.5668
 Frc consts  --      1.4029                 1.5131                 1.3642
 IR Inten    --      2.1344                 1.8537                 1.1685

                     49                     50                     51
                      A                      A                      A
 Frequencies --   1250.7366              1260.5731              1294.4924
 Red. masses --      1.2945                 1.3551                 1.3280
 Frc consts  --      1.1931                 1.2687                 1.3111
 IR Inten    --      2.3577                 2.8641                 6.9480

                     52                     53                     54
                      A                      A                      A
 Frequencies --   1311.9498              1322.5305              1336.3837
 Red. masses --      1.2281                 1.2360                 1.3195
 Frc consts  --      1.2454                 1.2737                 1.3884
 IR Inten    --      8.8023                 3.9911                 2.7945

                     55                     56                     57
                      A                      A                      A
 Frequencies --   1340.8732              1357.9319              1370.1885
 Red. masses --      1.2866                 1.3367                 1.2444
 Frc consts  --      1.3629                 1.4522                 1.3764
 IR Inten    --      3.0466                 2.5079                 3.4180

                     58                     59                     60
                      A                      A                      A
 Frequencies --   1380.4954              1387.2259              1395.7791
 Red. masses --      1.2590                 1.2593                 1.4523
 Frc consts  --      1.4137                 1.4278                 1.6670
 IR Inten    --      7.4206                 3.0235                 3.7112

                     61                     62                     63
                      A                      A                      A
 Frequencies --   1411.5455              1422.3271              1438.0304
 Red. masses --      1.4805                 1.4541                 1.2799
 Frc consts  --      1.7380                 1.7332                 1.5594
 IR Inten    --      2.3201                 1.7408                 2.8937

                     64                     65                     66
                      A                      A                      A
 Frequencies --   1440.8636              1443.8913              1502.6153
 Red. masses --      1.2468                 1.2301                 1.0878
 Frc consts  --      1.5251                 1.5109                 1.4471
 IR Inten    --      6.6113                 2.9460                 2.3635

                     67                     68                     69
                      A                      A                      A
 Frequencies --   1504.3072              1510.8194              1514.0686
 Red. masses --      1.0862                 1.0836                 1.0659
 Frc consts  --      1.4482                 1.4573                 1.4396
 IR Inten    --      1.2692                 0.3679                 0.5395

                     70                     71                     72
                      A                      A                      A
 Frequencies --   1519.7855              1527.1913              1528.6479
 Red. masses --      1.0914                 1.0442                 1.0577
 Frc consts  --      1.4853                 1.4349                 1.4562
 IR Inten    --      0.6218                 7.1274                 1.2737

                     73                     74                     75
                      A                      A                      A
 Frequencies --   1531.1601              1535.8748              1540.4984
 Red. masses --      1.0559                 1.0620                 1.0459
 Frc consts  --      1.4586                 1.4760                 1.4624
 IR Inten    --      1.6219                 8.3133                 7.6749

                     76                     77                     78
                      A                      A                      A
 Frequencies --   1545.3449              2215.7778              3009.6503
 Red. masses --      1.0493                11.6488                 1.0735
 Frc consts  --      1.4764                33.6964                 5.7290
 IR Inten    --      1.3240                 3.2942                15.7926

                     79                     80                     81
                      A                      A                      A
 Frequencies --   3010.7086              3012.6289              3027.3510
 Red. masses --      1.0785                 1.0710                 1.0657
 Frc consts  --      5.7596                 5.7269                 5.7545
 IR Inten    --      2.9342                23.3917                22.6376

                     82                     83                     84
                      A                      A                      A
 Frequencies --   3034.4792              3039.4633              3041.9614
 Red. masses --      1.0776                 1.0648                 1.0389
 Frc consts  --      5.8463                 5.7959                 5.6643
 IR Inten    --      1.5370                30.5824                31.0457

                     85                     86                     87
                      A                      A                      A
 Frequencies --   3043.1051              3045.2239              3046.1765
 Red. masses --      1.0617                 1.0396                 1.0453
 Frc consts  --      5.7925                 5.6803                 5.7149
 IR Inten    --     25.2591                26.8807                14.7008

                     88                     89                     90
                      A                      A                      A
 Frequencies --   3050.6126              3058.2585              3070.9782
 Red. masses --      1.0630                 1.0952                 1.0956
 Frc consts  --      5.8284                 6.0351                 6.0876
 IR Inten    --     58.1265                63.6925                25.3104

                     91                     92                     93
                      A                      A                      A
 Frequencies --   3080.5792              3088.7225              3097.5470
 Red. masses --      1.0991                 1.1024                 1.1046
 Frc consts  --      6.1455                 6.1964                 6.2442
 IR Inten    --     24.9627                24.3508                60.1152

                     94                     95                     96
                      A                      A                      A
 Frequencies --   3103.9553              3107.1777              3113.4151
 Red. masses --      1.1007                 1.1009                 1.0960
 Frc consts  --      6.2483                 6.2622                 6.2593
 IR Inten    --     30.9941                59.5774                20.4068

                     97                     98                     99
                      A                      A                      A
 Frequencies --   3117.6938              3126.9888              3128.5091
 Red. masses --      1.1017                 1.0999                 1.1014
 Frc consts  --      6.3093                 6.3364                 6.3514
 IR Inten    --     58.1769                40.4076                41.8654

 - Thermochemistry -
 -------------------
 Temperature   298.150 Kelvin.  Pressure   1.00000 Atm.
 Atom     1 has atomic number  6 and mass  12.00000

 Molecular mass:   178.17215 amu.
 Principal axes and moments of inertia in atomic units:
                           1         2         3
     Eigenvalues --  1121.851005350.437695611.85887
           X            0.99994  -0.01130   0.00039
           Y            0.01129   0.99991   0.00773
           Z           -0.00047  -0.00772   0.99997
 This molecule is an asymmetric top.
 Rotational symmetry number  1.
 Warning -- assumption of classical behavior for rotation
           may cause significant error
 Rotational temperatures (Kelvin)      0.07721     0.01619     0.01543
 Rotational constants (GHZ):           1.60872     0.33731     0.32159
 Zero-point vibrational energy     845126.7 (Joules/Mol)
                                  201.99013 (Kcal/Mol)
 Warning -- explicit consideration of  23 degrees of freedom as
           vibrations may cause significant error
 Vibrational temperatures:     47.11    75.41   108.27   132.47   158.76
          (Kelvin)            180.86   265.52   313.31   339.29   348.41
                              382.07   389.03   390.90   437.55   480.40
                              547.79   561.79   591.90   629.13   700.70
                              727.68   782.59   819.72  1114.08  1148.14
                             1179.34  1204.30  1230.35  1276.82  1281.01
                             1310.83  1343.70  1374.15  1408.97  1423.44
                             1452.93  1482.72  1500.21  1524.73  1530.66
                             1578.05  1622.54  1652.99  1669.00  1694.75
                             1710.85  1730.77  1749.02  1799.53  1813.68
                             1862.49  1887.60  1902.83  1922.76  1929.22
                             1953.76  1971.40  1986.23  1995.91  2008.21
                             2030.90  2046.41  2069.01  2073.08  2077.44
                             2161.93  2164.36  2173.73  2178.41  2186.63
                             2197.29  2199.38  2203.00  2209.78  2216.43
                             2223.41  3188.01  4330.22  4331.74  4334.50
                             4355.68  4365.94  4373.11  4376.70  4378.35
                             4381.40  4382.77  4389.15  4400.15  4418.45
                             4432.27  4443.98  4456.68  4465.90  4470.54
                             4479.51  4485.67  4499.04  4501.23

 Zero-point correction=                           0.321892 (Hartree/Particle)
 Thermal correction to Energy=                    0.336922
 Thermal correction to Enthalpy=                  0.337866
 Thermal correction to Gibbs Free Energy=         0.279795
 Sum of electronic and zero-point Energies=           -508.265839
 Sum of electronic and thermal Energies=              -508.250809
 Sum of electronic and thermal Enthalpies=            -508.249865
 Sum of electronic and thermal Free Energies=         -508.307936

                     E (Thermal)             CV                S
                      KCal/Mol        Cal/Mol-Kelvin    Cal/Mol-Kelvin
 Total                  211.422             56.687            122.222
 Electronic               0.000              0.000              0.000
 Translational            0.889              2.981             41.440
 Rotational               0.889              2.981             31.888
 Vibrational            209.644             50.725             48.894
 Vibration     1          0.594              1.983              5.656
 Vibration     2          0.596              1.977              4.724
 Vibration     3          0.599              1.966              4.011
 Vibration     4          0.602              1.955              3.616
 Vibration     5          0.606              1.941              3.263
 Vibration     6          0.611              1.927              3.011
 Vibration     7          0.631              1.861              2.282
 Vibration     8          0.646              1.814              1.978
 Vibration     9          0.655              1.786              1.834
 Vibration    10          0.658              1.776              1.787
 Vibration    11          0.671              1.736              1.625
 Vibration    12          0.674              1.728              1.594
 Vibration    13          0.675              1.725              1.585
 Vibration    14          0.695              1.666              1.394
 Vibration    15          0.715              1.608              1.241
 Vibration    16          0.750              1.511              1.036
 Vibration    17          0.758              1.491              0.998
 Vibration    18          0.775              1.445              0.922
 Vibration    19          0.798              1.389              0.835
 Vibration    20          0.843              1.279              0.691
 Vibration    21          0.861              1.237              0.644
 Vibration    22          0.899              1.153              0.557
 Vibration    23          0.926              1.097              0.505

 Optimization completed.
    -- Stationary point found.
 Normal termination of Gaussian 16 at Wed Dec  9 22:31:48 2020.

 ----------------------------------------------------------------------
 # B3LYP/6-311++G(d,p) empiricaldispersion=gd3bj scf=xqc pop=npa geom=c
 heck
 ----------------------------------------------------------------------

 ---------------------------------------
 CID_148208227_JID_3039_Energie_neutraal
 ---------------------------------------
 Structure from the checkpoint file:  "JID_3039.chk"
 Charge =  0 Multiplicity = 1

 SCF Done:  E(RB3LYP) =  -508.727850156     A.U. after   14 cycles
 Normal termination of Gaussian 16 at Wed Dec  9 22:35:34 2020.

 ----------------------------------------------------------------------
 # B3LYP/6-311++G(d,p) empiricaldispersion=gd3bj scf=xqc pop=npa geom=c
 heck
 ----------------------------------------------------------------------

 -------------------------------------
 CID_148208227_JID_3039_Energie_kation
 -------------------------------------
 Structure from the checkpoint file:  "JID_3039.chk"
 Charge =  1 Multiplicity = 2

 SCF Done:  E(UB3LYP) =  -508.409806829     A.U. after   29 cycles
 Normal termination of Gaussian 16 at Wed Dec  9 22:46:14 2020.
 Gaussian 16:  ES64L-G16RevA.03 25-Dec-2016

 ----------------------------------------------------------------------
 # B3LYP/6-311++G(d,p) empiricaldispersion=gd3bj scf=xqc pop=npa geom=c
 heck
 ----------------------------------------------------------------------

 ------------------------------------
 CID_148208227_JID_3039_Energie_anion
 ------------------------------------
 Structure from the checkpoint file:  "JID_3039.chk"
 Charge = -1 Multiplicity = 2

                         Standard orientation:
 ---------------------------------------------------------------------
 Center     Atomic      Atomic             Coordinates (Angstroms)
 Number     Number       Type             X           Y           Z
 ---------------------------------------------------------------------
      1          6           0        4.263992    0.026324    1.485976
      2          6           0        2.810678   -0.206551    1.061960
      3          6           0        2.557941   -0.077267   -0.450751
      4          6           0        3.409778   -1.064732   -1.260825
      5          6           0        1.073426   -0.281304   -0.804659
      6          6           0        0.053880    0.645913   -0.120234
      7          6           0        0.334455    2.124989   -0.410622
      8          6           0       -1.370006    0.248815   -0.557125
      9          6           0       -2.504335    1.046621    0.198729
     10          6           0       -3.920025    0.433003    0.119231
     11          6           0       -4.035933   -1.033275    0.675314
     12          6           0       -2.791491   -1.654546    0.170170
     13          6           0       -1.765005   -1.149353   -0.255601
     14          1           0        4.934954   -0.744240    1.092681
     15          1           0        4.359127    0.018982    2.577523
     16          1           0        4.627085    0.997726    1.127137
     17          1           0        2.484121   -1.203953    1.391278
     18          1           0        2.175314    0.511642    1.594590
     19          1           0        2.853602    0.938608   -0.752847
     20          1           0        3.200881   -2.098437   -0.956012
     21          1           0        3.188949   -0.983711   -2.331452
     22          1           0        4.481557   -0.886287   -1.129554
     23          1           0        0.959136   -0.173858   -1.893927
     24          1           0        0.795682   -1.319232   -0.572543
     25          1           0        0.105847    0.486532    0.965191
     26          1           0        0.280768    2.325997   -1.488660
     27          1           0       -0.383471    2.781869    0.090293
     28          1           0        1.333360    2.413631   -0.069549
     29          1           0       -1.458096    0.430306   -1.638988
     30          1           0       -2.204792    1.126603    1.252423
     31          1           0       -2.546418    2.066660   -0.201693
     32          1           0       -4.620489    1.079375    0.664357
     33          1           0       -4.244423    0.421522   -0.928825
     34          1           0       -4.062680   -1.041465    1.772353
     35          1           0       -4.964134   -1.500096    0.326838
 ---------------------------------------------------------------------

 SCF Done:  E(UB3LYP) =  -508.718464934     A.U. after   33 cycles
 SCF Done:  E(UB3LYP) =  -508.718464934     a.u. after    1 cycles

 The electronic state is 2-A.
 Alpha  occ. eigenvalues --  -10.07063 -10.06696 -10.06426 -10.06213 -10.06153
 Alpha  occ. eigenvalues --  -10.06083 -10.05929 -10.05717 -10.05626 -10.05416
 Alpha  occ. eigenvalues --  -10.04997 -10.00172  -9.99830  -0.72909  -0.70877
 Alpha  occ. eigenvalues --   -0.67501  -0.62932  -0.60920  -0.60193  -0.57433
 Alpha  occ. eigenvalues --   -0.53500  -0.50917  -0.47617  -0.46211  -0.44069
 Alpha  occ. eigenvalues --   -0.37684  -0.36677  -0.35566  -0.34378  -0.33703
 Alpha  occ. eigenvalues --   -0.32667  -0.32102  -0.30525  -0.29498  -0.28741
 Alpha  occ. eigenvalues --   -0.28147  -0.27724  -0.26582  -0.26156  -0.25606
 Alpha  occ. eigenvalues --   -0.24163  -0.23629  -0.23357  -0.22343  -0.22087
 Alpha  occ. eigenvalues --   -0.21037  -0.20499  -0.19577  -0.11399  -0.10969
 Alpha  occ. eigenvalues --    0.04788
 Alpha virt. eigenvalues --    0.06199   0.07239   0.07944   0.08133   0.09182
 Alpha virt. eigenvalues --    0.09327   0.09609   0.10630   0.10826   0.11331
 Alpha virt. eigenvalues --    0.11703   0.12112   0.12456   0.12721   0.13581

  Beta  occ. eigenvalues --  -10.06976 -10.06691 -10.06294 -10.06211 -10.06122
  Beta  occ. eigenvalues --  -10.06078 -10.05914 -10.05702 -10.05591 -10.05405
  Beta  occ. eigenvalues --  -10.04989  -9.99886  -9.99546  -0.72802  -0.70775
  Beta  occ. eigenvalues --   -0.67415  -0.62874  -0.60741  -0.59902  -0.57393
  Beta  occ. eigenvalues --   -0.53432  -0.50799  -0.47437  -0.46087  -0.44036
  Beta  occ. eigenvalues --   -0.37487  -0.36578  -0.35461  -0.34259  -0.33570
  Beta  occ. eigenvalues --   -0.32599  -0.32030  -0.30432  -0.29433  -0.28650
  Beta  occ. eigenvalues --   -0.28112  -0.27609  -0.26497  -0.25987  -0.25479
  Beta  occ. eigenvalues --   -0.24038  -0.23555  -0.23240  -0.22190  -0.22048
  Beta  occ. eigenvalues --   -0.20965  -0.20474  -0.19486  -0.11065  -0.09123
  Beta virt. eigenvalues --    0.06805   0.07347   0.08095   0.08335   0.09277
  Beta virt. eigenvalues --    0.09310   0.09765   0.10169   0.10773   0.11029
  Beta virt. eigenvalues --    0.11434   0.11860   0.12320   0.12683   0.12822

 Mulliken charges and spin densities:
               1          2
     1  C    1.003014  -1.699360
     2  C   -1.582351   1.269187
     3  C    0.432832   0.227269
     4  C    0.190593  -0.967259
     5  C   -0.545613  -0.280383
     6  C   -0.028944   0.281527
     7  C   -0.099683  -0.581288
     8  C    0.640151   0.104254
     9  C   -0.279180  -0.232862
    10  C   -0.270007   0.188104
    11  C   -0.275424  -0.590339
    12  C    0.599334   0.305629
    13  C   -1.091185   0.304615
    14  H   -0.099068   0.235439
    15  H   -0.308763   0.442260
    16  H   -0.363410   0.508817
    17  H    0.082066   0.072932
    18  H    0.251977  -0.115341
    19  H    0.125412   0.016285
    20  H    0.123687   0.020293
    21  H    0.069603   0.050682
    22  H   -0.176039   0.326457
    23  H    0.106685   0.011221
    24  H    0.136765  -0.005671
    25  H    0.064657   0.050945
    26  H    0.118178   0.027828
    27  H   -0.122240   0.258198
    28  H   -0.054645   0.200710
    29  H    0.139868   0.008135
    30  H    0.117840   0.046059
    31  H    0.023131   0.100323
    32  H    0.034935   0.088805
    33  H    0.111345   0.002566
    34  H   -0.056001   0.169756
    35  H   -0.019517   0.154203
 Sum of Mulliken charges =  -1.00000   1.00000

 Dipole moment (field-independent basis, Debye):
    X=             -1.9188    Y=              2.2681    Z=             -2.0713  Tot=              3.6216
 Quadrupole moment (field-independent basis, Debye-Ang):
   XX=           -167.9908   YY=           -121.7322   ZZ=           -106.8095
   XY=            -13.4771   XZ=             -4.9617   YZ=             -1.5604

 Summary of Natural Population Analysis:

                                       Natural Population
                Natural  -----------------------------------------------
    Atom  No    Charge         Core      Valence    Rydberg      Total
 -----------------------------------------------------------------------
      C    1   -0.28536      0.99967     2.28070    0.00499     3.28536
      C    2   -0.18977      0.99962     2.18170    0.00845     3.18977
      C    3   -0.11189      0.99960     2.10312    0.00917     3.11189
      C    4   -0.28421      0.99965     2.27845    0.00610     3.28421
      C    5   -0.18468      0.99961     2.17594    0.00914     3.18468
      C    6   -0.10910      0.99958     2.09945    0.01007     3.10910
      C    7   -0.28692      0.99965     2.28138    0.00590     3.28692
      C    8   -0.12066      0.99953     2.11008    0.01105     3.12066
      C    9   -0.18436      0.99962     2.17562    0.00911     3.18436
      C   10   -0.18172      0.99963     2.17387    0.00822     3.18172
      C   11   -0.20738      0.99958     2.19747    0.01033     3.20738
      C   12    0.02215      0.99888     1.96573    0.01324     2.97785
      C   13    0.00805      0.99891     1.98207    0.01096     2.99195
      H   14    0.09555      0.00000     0.40336    0.00110     0.40445
      H   15    0.09793      0.00000     0.40119    0.00088     0.40207
      H   16    0.09679      0.00000     0.40176    0.00145     0.40321
      H   17    0.09364      0.00000     0.40529    0.00107     0.40636
      H   18    0.09688      0.00000     0.40191    0.00120     0.40312
      H   19    0.09060      0.00000     0.40750    0.00191     0.40940
      H   20    0.09552      0.00000     0.40372    0.00076     0.40448
      H   21    0.09676      0.00000     0.40253    0.00071     0.40324
      H   22    0.09929      0.00000     0.39997    0.00075     0.40071
      H   23    0.09202      0.00000     0.40697    0.00101     0.40798
      H   24    0.10860      0.00000     0.38989    0.00151     0.39140
      H   25    0.09440      0.00000     0.40341    0.00219     0.40560
      H   26    0.09369      0.00000     0.40548    0.00083     0.40631
      H   27    0.09981      0.00000     0.39937    0.00082     0.40019
      H   28    0.09913      0.00000     0.40003    0.00084     0.40087
      H   29    0.09457      0.00000     0.40371    0.00172     0.40543
      H   30    0.09331      0.00000     0.40548    0.00121     0.40669
      H   31    0.09901      0.00000     0.39997    0.00102     0.40099
      H   32    0.09403      0.00000     0.40487    0.00110     0.40597
      H   33    0.09081      0.00000     0.40802    0.00117     0.40919
      H   34    0.09735      0.00000     0.40139    0.00126     0.40265
      H   35    0.09617      0.00000     0.40270    0.00113     0.40383
 =======================================================================
   * Total *    0.00000     12.99354    36.86409    0.14237    50.00000

 Normal termination of Gaussian 16 at Wed Dec  9 22:58:28 2020.
