 Gaussian 16, Revision A.03,

 -----------------------------------------------------------
 # opt freq B3LYP/6-31G(d) empiricaldispersion=gd3bj scf=xqc
 -----------------------------------------------------------

 ------------------------------
 CID_82407134_JID_2221_neutraal
 ------------------------------
 Symbolic Z-matrix:
 Charge =  0 Multiplicity = 1

 SCF Done:  E(RB3LYP) =  -909.863263336     A.U. after   17 cycles
 SCF Done:  E(RB3LYP) =  -909.868864005     A.U. after   13 cycles
 SCF Done:  E(RB3LYP) =  -909.869734152     A.U. after   12 cycles
 SCF Done:  E(RB3LYP) =  -909.868973332     A.U. after   14 cycles
 SCF Done:  E(RB3LYP) =  -909.870302325     A.U. after   12 cycles
 SCF Done:  E(RB3LYP) =  -909.870387752     A.U. after   11 cycles
 SCF Done:  E(RB3LYP) =  -909.870411332     A.U. after   11 cycles
 SCF Done:  E(RB3LYP) =  -909.870416588     A.U. after    9 cycles
 SCF Done:  E(RB3LYP) =  -909.870419052     A.U. after    9 cycles
 SCF Done:  E(RB3LYP) =  -909.870420957     A.U. after   10 cycles
 SCF Done:  E(RB3LYP) =  -909.870474972     A.U. after    9 cycles
 SCF Done:  E(RB3LYP) =  -909.870477697     A.U. after   10 cycles
 SCF Done:  E(RB3LYP) =  -909.870478077     A.U. after    9 cycles
 SCF Done:  E(RB3LYP) =  -909.870478128     A.U. after    7 cycles
 SCF Done:  E(RB3LYP) =  -909.870478171     A.U. after    9 cycles
 SCF Done:  E(RB3LYP) =  -909.870478178     A.U. after    8 cycles
 Optimization completed.
    -- Stationary point found.
 Normal termination of Gaussian 16 at Wed Dec  9 17:03:24 2020.

 --------------------------------------------------------------------
 #N Geom=AllCheck Guess=TCheck SCRF=Check GenChk RB3LYP/6-31G(d) Freq
 --------------------------------------------------------------------

 Structure from the checkpoint file:  "JID_2221.chk"
 ------------------------------
 CID_82407134_JID_2221_neutraal
 ------------------------------
 Charge =  0 Multiplicity = 1

 SCF Done:  E(RB3LYP) =  -909.870478178     A.U. after    1 cycles

  Exact polarizability: 162.200   7.442 117.105  -0.828  -0.089  59.822
 Approx polarizability: 279.835  18.824 185.638   0.682   1.353  96.101

                      1                      2                      3
                      A                      A                      A
 Frequencies --     42.7808                83.3744               118.9549
 Red. masses --      4.5669                 4.8085                 3.3813
 Frc consts  --      0.0049                 0.0197                 0.0282
 IR Inten    --     11.3620                 7.6572                 0.5310

                      4                      5                      6
                      A                      A                      A
 Frequencies --    223.8966               247.0955               296.3179
 Red. masses --      5.2620                 5.5800                 2.1164
 Frc consts  --      0.1554                 0.2007                 0.1095
 IR Inten    --      1.0217                 3.7946                29.0684

                      7                      8                      9
                      A                      A                      A
 Frequencies --    327.5160               345.1994               361.3125
 Red. masses --      1.5956                 3.1182                 4.7557
 Frc consts  --      0.1008                 0.2189                 0.3658
 IR Inten    --     52.1437                27.7186                 5.4144

                     10                     11                     12
                      A                      A                      A
 Frequencies --    369.8251               399.8238               476.7418
 Red. masses --      3.3091                 5.8994                 4.0567
 Frc consts  --      0.2667                 0.5556                 0.5432
 IR Inten    --      7.6966                 1.1612                 5.0897

                     13                     14                     15
                      A                      A                      A
 Frequencies --    519.1777               542.7206               546.7891
 Red. masses --      3.0812                 3.1847                 3.8766
 Frc consts  --      0.4893                 0.5527                 0.6829
 IR Inten    --      1.0715                57.1286                 7.1591

                     16                     17                     18
                      A                      A                      A
 Frequencies --    586.4109               599.6529               657.9845
 Red. masses --      4.3095                 1.8152                 3.5862
 Frc consts  --      0.8731                 0.3846                 0.9148
 IR Inten    --     14.4371               163.3334                19.1762

                     19                     20                     21
                      A                      A                      A
 Frequencies --    689.1314               745.9135               772.0629
 Red. masses --      5.4465                 6.1264                11.3591
 Frc consts  --      1.5239                 2.0083                 3.9893
 IR Inten    --      9.1771                 4.0311                 8.2304

                     22                     23                     24
                      A                      A                      A
 Frequencies --    872.2450               875.9647               924.6984
 Red. masses --      3.9952                 1.3725                 1.7202
 Frc consts  --      1.7909                 0.6205                 0.8666
 IR Inten    --      2.1569                 3.6883                 3.4889

                     25                     26                     27
                      A                      A                      A
 Frequencies --    926.0387               955.5530              1058.7359
 Red. masses --      2.0874                 2.2863                 2.2699
 Frc consts  --      1.0547                 1.2300                 1.4991
 IR Inten    --      1.4191                 6.6889                 1.1537

                     28                     29                     30
                      A                      A                      A
 Frequencies --   1072.7789              1105.3869              1151.2738
 Red. masses --      1.5699                 3.5638                 2.2082
 Frc consts  --      1.0645                 2.5656                 1.7244
 IR Inten    --      7.8119                 9.3806                11.5425

                     31                     32                     33
                      A                      A                      A
 Frequencies --   1170.8129              1207.9949              1231.0010
 Red. masses --      2.6386                 1.5197                 1.5145
 Frc consts  --      2.1311                 1.3066                 1.3522
 IR Inten    --     12.2945                26.4303                16.3696

                     34                     35                     36
                      A                      A                      A
 Frequencies --   1270.1405              1320.3210              1335.3202
 Red. masses --      1.9825                 2.1289                 1.3862
 Frc consts  --      1.8844                 2.1866                 1.4563
 IR Inten    --     93.3162                27.8240                84.1172

                     37                     38                     39
                      A                      A                      A
 Frequencies --   1359.2113              1397.7545              1415.9174
 Red. masses --      1.9461                 1.4694                 1.4477
 Frc consts  --      2.1183                 1.6914                 1.7100
 IR Inten    --     50.3154                 4.5865                18.0716

                     40                     41                     42
                      A                      A                      A
 Frequencies --   1459.1847              1474.2690              1501.8642
 Red. masses --      1.5341                 2.8544                 1.0902
 Frc consts  --      1.9245                 3.6552                 1.4488
 IR Inten    --      1.4761               100.7758                10.3988

                     43                     44                     45
                      A                      A                      A
 Frequencies --   1507.6542              1528.5594              1617.7542
 Red. masses --      1.1161                 1.1085                 1.6253
 Frc consts  --      1.4947                 1.5260                 2.5061
 IR Inten    --     19.7096                15.6616               110.7002

                     46                     47                     48
                      A                      A                      A
 Frequencies --   1632.7130              1674.6187              1748.0369
 Red. masses --      5.2813                 4.2810                 6.6441
 Frc consts  --      8.2948                 7.0734                11.9616
 IR Inten    --    373.0474               144.8664               346.8981

                     49                     50                     51
                      A                      A                      A
 Frequencies --   3028.7187              3059.1231              3072.5841
 Red. masses --      1.0706                 1.0622                 1.0634
 Frc consts  --      5.7860                 5.8567                 5.9147
 IR Inten    --     36.8684                24.7874                23.5249

                     52                     53                     54
                      A                      A                      A
 Frequencies --   3109.6417              3120.9331              3136.3011
 Red. masses --      1.0996                 1.0960                 1.1048
 Frc consts  --      6.2646                 6.2896                 6.4026
 IR Inten    --     19.2868                15.0102                 8.8180

                     55                     56                     57
                      A                      A                      A
 Frequencies --   3163.1789              3539.2119              3674.7161
 Red. masses --      1.0902                 1.0494                 1.0970
 Frc consts  --      6.4267                 7.7449                 8.7277
 IR Inten    --     20.5044                58.4112                27.1681

 - Thermochemistry -
 -------------------
 Temperature   298.150 Kelvin.  Pressure   1.00000 Atm.
 Atom     1 has atomic number  6 and mass  12.00000

 Molecular mass:   183.04663 amu.
 Principal axes and moments of inertia in atomic units:
                           1         2         3
     Eigenvalues --  1164.784492620.055443703.70063
           X            0.99927   0.03796  -0.00385
           Y           -0.03797   0.99928  -0.00108
           Z            0.00380   0.00123   0.99999
 This molecule is an asymmetric top.
 Rotational symmetry number  1.
 Warning -- assumption of classical behavior for rotation
           may cause significant error
 Rotational temperatures (Kelvin)      0.07436     0.03306     0.02339
 Rotational constants (GHZ):           1.54942     0.68882     0.48728
 Zero-point vibrational energy     434560.8 (Joules/Mol)
                                  103.86253 (Kcal/Mol)
 Warning -- explicit consideration of  17 degrees of freedom as
           vibrations may cause significant error
 Vibrational temperatures:     61.55   119.96   171.15   322.14   355.52
          (Kelvin)            426.34   471.22   496.66   519.85   532.10
                              575.26   685.93   746.98   780.85   786.71
                              843.71   862.77   946.69   991.51  1073.20
                             1110.83  1254.97  1260.32  1330.43  1332.36
                             1374.83  1523.28  1543.49  1590.41  1656.43
                             1684.54  1738.04  1771.14  1827.45  1899.65
                             1921.23  1955.60  2011.06  2037.19  2099.44
                             2121.14  2160.85  2169.18  2199.26  2327.59
                             2349.11  2409.40  2515.04  4357.65  4401.40
                             4420.76  4474.08  4490.33  4512.44  4551.11
                             5092.14  5287.10

 Zero-point correction=                           0.165515 (Hartree/Particle)
 Thermal correction to Energy=                    0.175955
 Thermal correction to Enthalpy=                  0.176900
 Thermal correction to Gibbs Free Energy=         0.128951
 Sum of electronic and zero-point Energies=           -909.704963
 Sum of electronic and thermal Energies=              -909.694523
 Sum of electronic and thermal Enthalpies=            -909.693579
 Sum of electronic and thermal Free Energies=         -909.741527

                     E (Thermal)             CV                S
                      KCal/Mol        Cal/Mol-Kelvin    Cal/Mol-Kelvin
 Total                  110.414             40.452            100.916
 Electronic               0.000              0.000              0.000
 Translational            0.889              2.981             41.520
 Rotational               0.889              2.981             30.803
 Vibrational            108.636             34.490             28.593
 Vibration     1          0.595              1.980              5.126
 Vibration     2          0.600              1.961              3.810
 Vibration     3          0.609              1.934              3.117
 Vibration     4          0.649              1.805              1.927
 Vibration     5          0.661              1.768              1.751
 Vibration     6          0.690              1.681              1.438
 Vibration     7          0.711              1.621              1.272
 Vibration     8          0.724              1.585              1.188
 Vibration     9          0.735              1.552              1.116
 Vibration    10          0.742              1.534              1.081
 Vibration    11          0.766              1.470              0.963
 Vibration    12          0.833              1.302              0.719
 Vibration    13          0.874              1.208              0.612
 Vibration    14          0.898              1.156              0.559
 Vibration    15          0.902              1.147              0.551
 Vibration    16          0.943              1.061              0.474
 Vibration    17          0.958              1.033              0.450

 Optimization completed.
    -- Stationary point found.
 Normal termination of Gaussian 16 at Wed Dec  9 17:08:10 2020.

 ----------------------------------------------------------------------
 # B3LYP/6-311++G(d,p) empiricaldispersion=gd3bj scf=xqc pop=npa geom=c
 heck
 ----------------------------------------------------------------------

 --------------------------------------
 CID_82407134_JID_2221_Energie_neutraal
 --------------------------------------
 Structure from the checkpoint file:  "JID_2221.chk"
 Charge =  0 Multiplicity = 1

 SCF Done:  E(RB3LYP) =  -910.044797616     A.U. after   18 cycles
 Normal termination of Gaussian 16 at Wed Dec  9 17:10:53 2020.

 ----------------------------------------------------------------------
 # B3LYP/6-311++G(d,p) empiricaldispersion=gd3bj scf=xqc pop=npa geom=c
 heck
 ----------------------------------------------------------------------

 ------------------------------------
 CID_82407134_JID_2221_Energie_kation
 ------------------------------------
 Structure from the checkpoint file:  "JID_2221.chk"
 Charge =  1 Multiplicity = 2

 SCF Done:  E(UB3LYP) =  -909.770161102     A.U. after   22 cycles
 Normal termination of Gaussian 16 at Wed Dec  9 17:15:12 2020.
 Gaussian 16:  ES64L-G16RevA.03 25-Dec-2016

 ----------------------------------------------------------------------
 # B3LYP/6-311++G(d,p) empiricaldispersion=gd3bj scf=xqc pop=npa geom=c
 heck
 ----------------------------------------------------------------------

 -----------------------------------
 CID_82407134_JID_2221_Energie_anion
 -----------------------------------
 Structure from the checkpoint file:  "JID_2221.chk"
 Charge = -1 Multiplicity = 2

                         Standard orientation:
 ---------------------------------------------------------------------
 Center     Atomic      Atomic             Coordinates (Angstroms)
 Number     Number       Type             X           Y           Z
 ---------------------------------------------------------------------
      1          6           0        2.823829    0.776400    0.255790
      2          6           0        1.660169    1.600269   -0.280286
      3          7           0        0.336164    1.056116    0.064220
      4          6           0       -0.711249    1.929817    0.103202
      5          7           0       -1.971521    1.634764    0.104712
      6          6           0       -2.342283    0.300382   -0.009096
      7          8           0       -3.516202   -0.066139   -0.024084
      8          6           0       -1.259173   -0.709344   -0.080895
      9          6           0        0.049343   -0.313878   -0.019186
     10         16           0        1.316657   -1.537164    0.221730
     11          6           0        2.809109   -0.632057   -0.327132
     12          7           0       -1.701035   -2.005180   -0.193356
     13          1           0        2.788136    0.731972    1.349591
     14          1           0        3.753599    1.283143   -0.030842
     15          1           0        1.697827    2.616616    0.119688
     16          1           0        1.741159    1.668217   -1.374473
     17          1           0       -0.415283    2.978025    0.132422
     18          1           0        2.849330   -0.606053   -1.421347
     19          1           0        3.652093   -1.226815    0.033814
     20          1           0       -2.697484   -2.074306   -0.012005
     21          1           0       -1.130007   -2.756500    0.164731
 ---------------------------------------------------------------------

 SCF Done:  E(UB3LYP) =  -910.047094021     A.U. after   32 cycles

 The electronic state is 2-A.
 Alpha  occ. eigenvalues --  -88.75263 -18.95747 -14.26980 -14.21363 -14.18797
 Alpha  occ. eigenvalues --  -10.13726 -10.13553 -10.12746 -10.11779 -10.10301
 Alpha  occ. eigenvalues --  -10.10142 -10.08123  -7.83863  -5.80252  -5.79882
 Alpha  occ. eigenvalues --   -5.79259  -0.91532  -0.88947  -0.81159  -0.79039
 Alpha  occ. eigenvalues --   -0.71804  -0.69252  -0.62155  -0.57752  -0.54304
 Alpha  occ. eigenvalues --   -0.53022  -0.47149  -0.45825  -0.42177  -0.38553
 Alpha  occ. eigenvalues --   -0.37975  -0.36895  -0.35698  -0.34649  -0.32892
 Alpha  occ. eigenvalues --   -0.32161  -0.29850  -0.28498  -0.27848  -0.25828
 Alpha  occ. eigenvalues --   -0.24351  -0.24098  -0.22295  -0.17617  -0.16631
 Alpha  occ. eigenvalues --   -0.14223  -0.13230  -0.08931   0.03805
 Alpha virt. eigenvalues --    0.06991   0.07640   0.08469   0.08556   0.09345
 Alpha virt. eigenvalues --    0.09796   0.11039   0.11708   0.11887   0.12928
 Alpha virt. eigenvalues --    0.13876   0.14453   0.14895   0.15604   0.16621

  Beta  occ. eigenvalues --  -88.75259 -18.95581 -14.26923 -14.21370 -14.18852
  Beta  occ. eigenvalues --  -10.13618 -10.13433 -10.12642 -10.11732 -10.10313
  Beta  occ. eigenvalues --  -10.10054 -10.08075  -7.83858  -5.80229  -5.79884
  Beta  occ. eigenvalues --   -5.79258  -0.91315  -0.88736  -0.81147  -0.78961
  Beta  occ. eigenvalues --   -0.71705  -0.69122  -0.62000  -0.57649  -0.54206
  Beta  occ. eigenvalues --   -0.52757  -0.46976  -0.45768  -0.42115  -0.38463
  Beta  occ. eigenvalues --   -0.37837  -0.36821  -0.35480  -0.34531  -0.32758
  Beta  occ. eigenvalues --   -0.31934  -0.29686  -0.28338  -0.27537  -0.25729
  Beta  occ. eigenvalues --   -0.24187  -0.23709  -0.22130  -0.17348  -0.16566
  Beta  occ. eigenvalues --   -0.14059  -0.13113  -0.08510
  Beta virt. eigenvalues --    0.06975   0.07890   0.08473   0.08583   0.09457
  Beta virt. eigenvalues --    0.09967   0.10427   0.11460   0.11953   0.12366
  Beta virt. eigenvalues --    0.13205   0.14345   0.14551   0.14914   0.15727

 Mulliken charges and spin densities:
               1          2
     1  C   -0.374922   0.101830
     2  C    0.908989  -1.185252
     3  N    0.123230   0.178380
     4  C    0.024656   0.178341
     5  N   -0.181957  -0.033383
     6  C    0.014850  -0.159640
     7  O   -0.421517   0.059114
     8  C    0.955769  -0.745042
     9  C   -0.865891   0.727485
    10  S    0.062632  -0.462832
    11  C    0.655256  -1.029411
    12  N   -0.305611   0.003286
    13  H    0.058952   0.085911
    14  H   -0.930495   1.131168
    15  H   -0.118537   0.265952
    16  H   -0.317788   0.526330
    17  H    0.053189   0.123544
    18  H   -0.098394   0.321978
    19  H   -0.725220   0.908409
    20  H    0.272640  -0.005282
    21  H    0.210171   0.009114
 Sum of Mulliken charges =  -1.00000   1.00000

 Dipole moment (field-independent basis, Debye):
    X=             -1.7342    Y=             -2.1365    Z=              2.3976  Tot=              3.6497
 Quadrupole moment (field-independent basis, Debye-Ang):
   XX=           -162.4524   YY=            -99.8330   ZZ=            -99.5633
   XY=              3.2401   XZ=              4.7649   YZ=              2.1351

 Summary of Natural Population Analysis:

                                       Natural Population
                Natural  -----------------------------------------------
    Atom  No    Charge         Core      Valence    Rydberg      Total
 -----------------------------------------------------------------------
      C    1   -0.20276      0.99962     2.19260    0.01054     3.20276
      C    2   -0.07793      0.99960     2.06618    0.01215     3.07793
      N    3   -0.21813      0.99960     2.70825    0.01027     3.71813
      C    4    0.17606      0.99964     1.80703    0.01727     2.82394
      N    5   -0.28619      0.99967     2.77529    0.01122     3.78619
      C    6    0.31376      0.99960     1.66256    0.02408     2.68624
      O    7   -0.31412      0.99988     3.30777    0.00647     4.31412
      C    8    0.01791      0.99942     1.96778    0.01489     2.98209
      C    9    0.01319      0.99939     1.97341    0.01401     2.98681
      S   10    0.11592      4.99955     2.86472    0.01981     7.88408
      C   11   -0.24119      0.99959     2.22988    0.01172     3.24119
      N   12   -0.40019      0.99971     2.89046    0.01002     3.90019
      H   13    0.10157      0.00000     0.39695    0.00148     0.39843
      H   14    0.11289      0.00000     0.38194    0.00517     0.38711
      H   15    0.10031      0.00000     0.39835    0.00134     0.39969
      H   16    0.10039      0.00000     0.39659    0.00302     0.39961
      H   17    0.08162      0.00000     0.41634    0.00203     0.41838
      H   18    0.10609      0.00000     0.39130    0.00261     0.39391
      H   19    0.11281      0.00000     0.38473    0.00246     0.38719
      H   20    0.20076      0.00000     0.29754    0.00170     0.29924
      H   21    0.18721      0.00000     0.31127    0.00151     0.31279
 =======================================================================
   * Total *   -0.00000     15.99526    31.82095    0.18379    48.00000

 Normal termination of Gaussian 16 at Wed Dec  9 17:21:25 2020.
