 Gaussian 16, Revision A.03,

 -----------------------------------------------------------
 # opt freq B3LYP/6-31G(d) empiricaldispersion=gd3bj scf=xqc
 -----------------------------------------------------------

 -------------------------------
 CID_151617849_JID_1849_neutraal
 -------------------------------
 Symbolic Z-matrix:
 Charge =  0 Multiplicity = 1

 SCF Done:  E(RB3LYP) =  -526.448194791     A.U. after   17 cycles
 SCF Done:  E(RB3LYP) =  -526.453888711     A.U. after   14 cycles
 SCF Done:  E(RB3LYP) =  -526.454564825     A.U. after   13 cycles
 SCF Done:  E(RB3LYP) =  -526.454670429     A.U. after   13 cycles
 SCF Done:  E(RB3LYP) =  -526.454767511     A.U. after   12 cycles
 SCF Done:  E(RB3LYP) =  -526.454776548     A.U. after   10 cycles
 SCF Done:  E(RB3LYP) =  -526.454776347     A.U. after   10 cycles
 SCF Done:  E(RB3LYP) =  -526.454779485     A.U. after    9 cycles
 SCF Done:  E(RB3LYP) =  -526.454781418     A.U. after    9 cycles
 SCF Done:  E(RB3LYP) =  -526.454784799     A.U. after   10 cycles
 SCF Done:  E(RB3LYP) =  -526.454786257     A.U. after    9 cycles
 SCF Done:  E(RB3LYP) =  -526.454786642     A.U. after    8 cycles
 SCF Done:  E(RB3LYP) =  -526.454786725     A.U. after    8 cycles
 Optimization completed.
    -- Stationary point found.
 Normal termination of Gaussian 16 at Tue Dec  8 21:18:43 2020.

 --------------------------------------------------------------------
 #N Geom=AllCheck Guess=TCheck SCRF=Check GenChk RB3LYP/6-31G(d) Freq
 --------------------------------------------------------------------

 Structure from the checkpoint file:  "JID_1849.chk"
 -------------------------------
 CID_151617849_JID_1849_neutraal
 -------------------------------
 Charge =  0 Multiplicity = 1

 SCF Done:  E(RB3LYP) =  -526.454786725     A.U. after    1 cycles

  Exact polarizability: 148.294   0.247  90.699   0.001  -0.001  38.466
 Approx polarizability: 248.888  14.815 150.533   0.005   0.002  58.730

                      1                      2                      3
                      A                      A                      A
 Frequencies --     58.8758                88.6406               105.4822
 Red. masses --      6.7725                 4.5119                 1.1771
 Frc consts  --      0.0138                 0.0209                 0.0077
 IR Inten    --      1.1754                 0.0277                 0.0952

                      4                      5                      6
                      A                      A                      A
 Frequencies --    110.3616               196.3488               207.6118
 Red. masses --      7.0562                 5.7218                 7.8907
 Frc consts  --      0.0506                 0.1300                 0.2004
 IR Inten    --      0.1142                 0.0015                 0.7946

                      7                      8                      9
                      A                      A                      A
 Frequencies --    259.0920               325.8038               361.0701
 Red. masses --      3.5372                 3.7681                 6.0834
 Frc consts  --      0.1399                 0.2357                 0.4673
 IR Inten    --      2.8113                 1.9108                 4.6714

                     10                     11                     12
                      A                      A                      A
 Frequencies --    495.3971               531.9304               558.7657
 Red. masses --      8.8641                 1.4037                 6.5565
 Frc consts  --      1.2817                 0.2340                 1.2061
 IR Inten    --      1.3357                68.2693                 1.5951

                     13                     14                     15
                      A                      A                      A
 Frequencies --    583.4604               625.3738               652.1660
 Red. masses --     13.1209                 3.7331                 2.6173
 Frc consts  --      2.6317                 0.8602                 0.6559
 IR Inten    --      6.8495                 0.0141                 2.2772

                     16                     17                     18
                      A                      A                      A
 Frequencies --    680.1319               713.9134               763.5930
 Red. masses --      4.7392                 1.3933                 5.0893
 Frc consts  --      1.2916                 0.4184                 1.7484
 IR Inten    --     15.5982                71.2182                 8.9895

                     19                     20                     21
                      A                      A                      A
 Frequencies --    850.3346               876.9595               916.5729
 Red. masses --     12.2828                 1.3300                 5.7755
 Frc consts  --      5.2327                 0.6026                 2.8587
 IR Inten    --     15.8476                 5.7900                37.3486

                     22                     23                     24
                      A                      A                      A
 Frequencies --    981.8864              1010.0669              1071.7351
 Red. masses --      3.1865                 1.7028                 1.4473
 Frc consts  --      1.8100                 1.0235                 0.9795
 IR Inten    --    161.2833                49.6827                 2.6937

                     25                     26                     27
                      A                      A                      A
 Frequencies --   1104.6259              1111.1302              1191.7680
 Red. masses --      1.5141                 1.5920                 3.6432
 Frc consts  --      1.0885                 1.1580                 3.0487
 IR Inten    --    118.2539                 3.0438                 5.8811

                     28                     29                     30
                      A                      A                      A
 Frequencies --   1292.6839              1302.1799              1355.8441
 Red. masses --      2.1736                 5.0643                 3.6154
 Frc consts  --      2.1400                 5.0595                 3.9158
 IR Inten    --     27.6390               414.4319               118.3382

                     31                     32                     33
                      A                      A                      A
 Frequencies --   1434.6871              1457.0653              1499.2899
 Red. masses --      2.5800                 1.4952                 1.0429
 Frc consts  --      3.1289                 1.8703                 1.3812
 IR Inten    --      5.3421                 0.0195                 6.3577

                     34                     35                     36
                      A                      A                      A
 Frequencies --   1502.3579              1524.5755              1540.2612
 Red. masses --      2.0144                 3.2895                 1.8360
 Frc consts  --      2.6788                 4.5049                 2.5664
 IR Inten    --    229.9393                 2.1737                52.5299

                     37                     38                     39
                      A                      A                      A
 Frequencies --   1618.7407              1777.5703              2293.1054
 Red. masses --      4.0613                13.0258                13.9874
 Frc consts  --      6.2701                24.2498                43.3346
 IR Inten    --     12.7582               332.4237               634.2311

                     40                     41                     42
                      A                      A                      A
 Frequencies --   3057.5543              3126.2843              3128.7323
 Red. masses --      1.0372                 1.1010                 1.1013
 Frc consts  --      5.7132                 6.3401                 6.3520
 IR Inten    --     25.5871                22.0887                 6.6554

                     43                     44                     45
                      A                      A                      A
 Frequencies --   3279.6178              3297.5974              3651.1604
 Red. masses --      1.0900                 1.1049                 1.0803
 Frc consts  --      6.9074                 7.0786                 8.4851
 IR Inten    --      0.0856                 2.7029                60.2472

 - Thermochemistry -
 -------------------
 Temperature   298.150 Kelvin.  Pressure   1.00000 Atm.
 Atom     1 has atomic number  6 and mass  12.00000

 Molecular mass:   150.05416 amu.
 Principal axes and moments of inertia in atomic units:
                           1         2         3
     Eigenvalues --   722.196592463.157473174.25760
           X            0.99999   0.00415  -0.00000
           Y           -0.00415   0.99999  -0.00001
           Z            0.00000   0.00001   1.00000
 This molecule is an asymmetric top.
 Rotational symmetry number  1.
 Warning -- assumption of classical behavior for rotation
           may cause significant error
 Rotational temperatures (Kelvin)      0.11993     0.03516     0.02729
 Rotational constants (GHZ):           2.49896     0.73269     0.56856
 Zero-point vibrational energy     326415.5 (Joules/Mol)
                                   78.01517 (Kcal/Mol)
 Warning -- explicit consideration of  13 degrees of freedom as
           vibrations may cause significant error
 Vibrational temperatures:     84.71   127.53   151.77   158.79   282.50
          (Kelvin)            298.71   372.78   468.76   519.50   712.77
                              765.33   803.94   839.47   899.77   938.32
                              978.56  1027.16  1098.64  1223.44  1261.75
                             1318.74  1412.72  1453.26  1541.99  1589.31
                             1598.67  1714.69  1859.88  1873.55  1950.76
                             2064.19  2096.39  2157.14  2161.56  2193.52
                             2216.09  2329.01  2557.53  3299.27  4399.14
                             4498.03  4501.55  4718.64  4744.51  5253.21

 Zero-point correction=                           0.124325 (Hartree/Particle)
 Thermal correction to Energy=                    0.134287
 Thermal correction to Enthalpy=                  0.135231
 Thermal correction to Gibbs Free Energy=         0.088160
 Sum of electronic and zero-point Energies=           -526.330462
 Sum of electronic and thermal Energies=              -526.320499
 Sum of electronic and thermal Enthalpies=            -526.319555
 Sum of electronic and thermal Free Energies=         -526.366626

                     E (Thermal)             CV                S
                      KCal/Mol        Cal/Mol-Kelvin    Cal/Mol-Kelvin
 Total                   84.267             35.662             99.069
 Electronic               0.000              0.000              0.000
 Translational            0.889              2.981             40.928
 Rotational               0.889              2.981             30.114
 Vibrational             82.489             29.701             28.028
 Vibration     1          0.596              1.974              4.495
 Vibration     2          0.601              1.957              3.690
 Vibration     3          0.605              1.945              3.350
 Vibration     4          0.606              1.941              3.263
 Vibration     5          0.636              1.845              2.167
 Vibration     6          0.641              1.829              2.065
 Vibration     7          0.668              1.747              1.668
 Vibration     8          0.710              1.624              1.281
 Vibration     9          0.735              1.552              1.117
 Vibration    10          0.851              1.260              0.670
 Vibration    11          0.887              1.179              0.583
 Vibration    12          0.914              1.121              0.526
 Vibration    13          0.940              1.067              0.479

 Optimization completed.
    -- Stationary point found.
 Normal termination of Gaussian 16 at Tue Dec  8 21:21:58 2020.

 ----------------------------------------------------------------------
 # B3LYP/6-311++G(d,p) empiricaldispersion=gd3bj scf=xqc pop=npa geom=c
 heck
 ----------------------------------------------------------------------

 ---------------------------------------
 CID_151617849_JID_1849_Energie_neutraal
 ---------------------------------------
 Structure from the checkpoint file:  "JID_1849.chk"
 Charge =  0 Multiplicity = 1

 SCF Done:  E(RB3LYP) =  -526.604438943     A.U. after   17 cycles
 Normal termination of Gaussian 16 at Tue Dec  8 21:23:21 2020.

 ----------------------------------------------------------------------
 # B3LYP/6-311++G(d,p) empiricaldispersion=gd3bj scf=xqc pop=npa geom=c
 heck
 ----------------------------------------------------------------------

 -------------------------------------
 CID_151617849_JID_1849_Energie_kation
 -------------------------------------
 Structure from the checkpoint file:  "JID_1849.chk"
 Charge =  1 Multiplicity = 2

 SCF Done:  E(UB3LYP) =  -526.296951689     A.U. after   24 cycles
 Normal termination of Gaussian 16 at Tue Dec  8 21:27:24 2020.
 Gaussian 16:  ES64L-G16RevA.03 25-Dec-2016

 ----------------------------------------------------------------------
 # B3LYP/6-311++G(d,p) empiricaldispersion=gd3bj scf=xqc pop=npa geom=c
 heck
 ----------------------------------------------------------------------

 ------------------------------------
 CID_151617849_JID_1849_Energie_anion
 ------------------------------------
 Structure from the checkpoint file:  "JID_1849.chk"
 Charge = -1 Multiplicity = 2

                         Standard orientation:
 ---------------------------------------------------------------------
 Center     Atomic      Atomic             Coordinates (Angstroms)
 Number     Number       Type             X           Y           Z
 ---------------------------------------------------------------------
      1          6           0        0.842821    2.223284   -0.000019
      2          6           0        1.316653    0.805332    0.000034
      3          6           0        0.645612   -0.422346    0.000004
      4          6           0        1.632494   -1.461856    0.000007
      5          6           0        2.860283   -0.859524    0.000047
      6          7           0        2.649712    0.510166   -0.000004
      7          6           0       -0.781721   -0.686161   -0.000003
      8          8           0       -1.294855   -1.790077   -0.000088
      9          7           0       -1.570030    0.530879    0.000085
     10          7           0       -2.798341    0.340357    0.000040
     11          7           0       -3.930172    0.264313   -0.000030
     12          1           0        0.226014    2.437695    0.877812
     13          1           0        1.694202    2.913060    0.000172
     14          1           0        0.226363    2.437743   -0.878091
     15          1           0        1.418891   -2.520197    0.000076
     16          1           0        3.859434   -1.268252    0.000161
     17          1           0        3.378896    1.208191   -0.000494
 ---------------------------------------------------------------------

 SCF Done:  E(UB3LYP) =  -526.600986114     A.U. after   33 cycles
 SCF Done:  E(UB3LYP) =  -526.600986114     a.u. after    1 cycles

 The electronic state is 2-A.
 Alpha  occ. eigenvalues --  -18.89996 -14.28853 -14.22412 -14.19927 -14.18370
 Alpha  occ. eigenvalues --  -10.07258 -10.05956 -10.05192 -10.04605 -10.01625
 Alpha  occ. eigenvalues --  -10.00991  -0.96486  -0.85784  -0.84513  -0.78845
 Alpha  occ. eigenvalues --   -0.64353  -0.63428  -0.55413  -0.51875  -0.45887
 Alpha  occ. eigenvalues --   -0.41904  -0.38570  -0.34311  -0.33668  -0.32786
 Alpha  occ. eigenvalues --   -0.30667  -0.29439  -0.28675  -0.27271  -0.26534
 Alpha  occ. eigenvalues --   -0.25782  -0.24455  -0.22705  -0.22451  -0.15775
 Alpha  occ. eigenvalues --   -0.11069  -0.10362  -0.08232  -0.07900   0.06886
 Alpha virt. eigenvalues --    0.07518   0.09245   0.10966   0.12802   0.13221
 Alpha virt. eigenvalues --    0.13442   0.13987   0.14661   0.16589   0.16955
 Alpha virt. eigenvalues --    0.17343   0.17579   0.18508   0.19263   0.19693

  Beta  occ. eigenvalues --  -18.89487 -14.28452 -14.22366 -14.19460 -14.18597
  Beta  occ. eigenvalues --  -10.06812 -10.06020 -10.04835 -10.04632 -10.01518
  Beta  occ. eigenvalues --  -10.01073  -0.95803  -0.85035  -0.84253  -0.78495
  Beta  occ. eigenvalues --   -0.64157  -0.63155  -0.55177  -0.51206  -0.45736
  Beta  occ. eigenvalues --   -0.41698  -0.38403  -0.33371  -0.32485  -0.32430
  Beta  occ. eigenvalues --   -0.30080  -0.29273  -0.27922  -0.26950  -0.26245
  Beta  occ. eigenvalues --   -0.25513  -0.23995  -0.22626  -0.19968  -0.15655
  Beta  occ. eigenvalues --   -0.10499  -0.08928  -0.07883  -0.06917
  Beta virt. eigenvalues --    0.07479   0.09198   0.10939   0.12795   0.12831
  Beta virt. eigenvalues --    0.13392   0.14330   0.14455   0.15114   0.16479
  Beta virt. eigenvalues --    0.17327   0.17580   0.18266   0.18473   0.19247

 Mulliken charges and spin densities:
               1          2
     1  C   -0.855209  -0.037849
     2  C    0.080342   0.170157
     3  C    0.382890  -0.050241
     4  C   -0.368196   0.094206
     5  C   -0.139243  -0.039489
     6  N   -0.083394   0.020944
     7  C   -0.354526   0.311339
     8  O   -0.465315   0.180353
     9  N   -0.424591  -0.126639
    10  N    0.873228   0.090834
    11  N   -0.508625   0.316115
    12  H    0.142499   0.037853
    13  H    0.065324   0.000120
    14  H    0.142579   0.037757
    15  H    0.143516  -0.007194
    16  H    0.114889   0.003399
    17  H    0.253831  -0.001662
 Sum of Mulliken charges =  -1.00000   1.00000

 Dipole moment (field-independent basis, Debye):
    X=              7.8825    Y=              3.9723    Z=             -0.0007  Tot=              8.8269
 Quadrupole moment (field-independent basis, Debye-Ang):
   XX=            -95.6402   YY=            -76.8730   ZZ=            -70.9695
   XY=             -0.1990   XZ=             -0.0028   YZ=             -0.0031

 Summary of Natural Population Analysis:

                                       Natural Population
                Natural  -----------------------------------------------
    Atom  No    Charge         Core      Valence    Rydberg      Total
 -----------------------------------------------------------------------
      C    1   -0.30113      0.99964     2.29717    0.00432     3.30113
      C    2    0.15171      0.99954     1.83686    0.01188     2.84829
      C    3   -0.11682      0.99944     2.10750    0.00988     3.11682
      C    4   -0.10214      0.99955     2.09311    0.00948     3.10214
      C    5   -0.06586      0.99959     2.05277    0.01351     3.06586
      N    6   -0.26560      0.99966     2.75743    0.00851     3.76560
      C    7    0.37507      0.99960     1.60272    0.02262     2.62493
      O    8   -0.27617      0.99988     3.26951    0.00678     4.27617
      N    9   -0.26630      0.99969     2.75183    0.01478     3.76630
      N   10    0.16845      0.99971     2.31440    0.01744     3.33155
      N   11    0.00474      0.99981     2.48240    0.01305     3.49526
      H   12    0.11252      0.00000     0.38638    0.00110     0.38748
      H   13    0.08544      0.00000     0.41364    0.00092     0.41456
      H   14    0.11250      0.00000     0.38640    0.00110     0.38750
      H   15    0.10633      0.00000     0.39252    0.00115     0.39367
      H   16    0.08952      0.00000     0.40949    0.00099     0.41048
      H   17    0.18775      0.00000     0.31077    0.00148     0.31225
 =======================================================================
   * Total *   -0.00000     10.99611    27.86490    0.13900    39.00000

 Normal termination of Gaussian 16 at Tue Dec  8 21:33:21 2020.
