 Gaussian 16, Revision A.03,

 -----------------------------------------------------------
 # opt freq B3LYP/6-31G(d) empiricaldispersion=gd3bj scf=xqc
 -----------------------------------------------------------

 ------------------------------
 CID_68873396_JID_1452_neutraal
 ------------------------------
 Symbolic Z-matrix:
 Charge =  0 Multiplicity = 1

 SCF Done:  E(RB3LYP) =  -511.677466527     A.U. after   15 cycles
 SCF Done:  E(RB3LYP) =  -511.684653714     A.U. after   13 cycles
 SCF Done:  E(RB3LYP) =  -511.685452995     A.U. after   12 cycles
 SCF Done:  E(RB3LYP) =  -511.685597176     A.U. after   11 cycles
 SCF Done:  E(RB3LYP) =  -511.685648620     A.U. after   10 cycles
 SCF Done:  E(RB3LYP) =  -511.685650797     A.U. after    9 cycles
 SCF Done:  E(RB3LYP) =  -511.685657309     A.U. after    9 cycles
 Optimization completed.
    -- Stationary point found.
 Normal termination of Gaussian 16 at Tue Dec  8 20:01:32 2020.

 --------------------------------------------------------------------
 #N Geom=AllCheck Guess=TCheck SCRF=Check GenChk RB3LYP/6-31G(d) Freq
 --------------------------------------------------------------------

 Structure from the checkpoint file:  "JID_1452.chk"
 ------------------------------
 CID_68873396_JID_1452_neutraal
 ------------------------------
 Charge =  0 Multiplicity = 1

 SCF Done:  E(RB3LYP) =  -511.685657309     A.U. after    1 cycles

  Exact polarizability: 122.574   1.321 112.827  -2.716  -4.291  49.758
 Approx polarizability: 181.677  -6.926 197.214  -8.883  -7.514  76.356

                      1                      2                      3
                      A                      A                      A
 Frequencies --     66.4084               113.9276               135.7387
 Red. masses --      4.3558                 1.8990                 1.6270
 Frc consts  --      0.0113                 0.0145                 0.0177
 IR Inten    --      1.1621                 0.8125                 1.7898

                      4                      5                      6
                      A                      A                      A
 Frequencies --    171.8708               178.9451               216.6291
 Red. masses --      5.1033                 4.8769                 3.0312
 Frc consts  --      0.0888                 0.0920                 0.0838
 IR Inten    --      0.8693                 3.3728                 3.0675

                      7                      8                      9
                      A                      A                      A
 Frequencies --    293.8580               350.6859               381.7154
 Red. masses --      3.7097                 3.3978                 4.2185
 Frc consts  --      0.1887                 0.2462                 0.3622
 IR Inten    --      3.2124                 4.8432                11.8360

                     10                     11                     12
                      A                      A                      A
 Frequencies --    448.6620               490.5242               528.2075
 Red. masses --      1.3925                 3.1923                 4.9770
 Frc consts  --      0.1652                 0.4526                 0.8181
 IR Inten    --     35.0557                24.4730                 0.4217

                     13                     14                     15
                      A                      A                      A
 Frequencies --    564.6626               567.7391               597.0620
 Red. masses --      5.1023                 3.2678                 2.3830
 Frc consts  --      0.9585                 0.6206                 0.5005
 IR Inten    --      4.8992                 8.2058                70.2111

                     16                     17                     18
                      A                      A                      A
 Frequencies --    634.7074               660.0235               711.2829
 Red. masses --      3.5603                 1.4760                 1.8446
 Frc consts  --      0.8450                 0.3788                 0.5498
 IR Inten    --     11.2832               115.5487                62.8650

                     19                     20                     21
                      A                      A                      A
 Frequencies --    749.7893               769.9905               843.9453
 Red. masses --      2.7264                 3.4776                 1.2703
 Frc consts  --      0.9031                 1.2148                 0.5331
 IR Inten    --     23.6060                89.6553                27.5473

                     22                     23                     24
                      A                      A                      A
 Frequencies --    868.3527               894.5492               918.9228
 Red. masses --      1.2021                 1.6088                 3.4855
 Frc consts  --      0.5341                 0.7585                 1.7341
 IR Inten    --     21.2722                10.3390                 9.7720

                     25                     26                     27
                      A                      A                      A
 Frequencies --    953.2327              1030.2120              1059.7223
 Red. masses --      4.2458                 2.4290                 2.1157
 Frc consts  --      2.2730                 1.5189                 1.3999
 IR Inten    --     20.5527                 2.8582                 2.0481

                     28                     29                     30
                      A                      A                      A
 Frequencies --   1079.5343              1105.4941              1156.7420
 Red. masses --      1.5101                 1.8548                 1.5760
 Frc consts  --      1.0369                 1.3355                 1.2424
 IR Inten    --      4.9526                36.9072                 6.3266

                     31                     32                     33
                      A                      A                      A
 Frequencies --   1193.2229              1234.1385              1250.9587
 Red. masses --      1.3919                 2.6259                 1.9815
 Frc consts  --      1.1676                 2.3565                 1.8269
 IR Inten    --     76.7685                17.0535                16.2767

                     34                     35                     36
                      A                      A                      A
 Frequencies --   1333.3349              1424.7143              1443.5953
 Red. masses --      1.6341                 2.1584                 1.3296
 Frc consts  --      1.7116                 2.5813                 1.6326
 IR Inten    --     12.3753                65.2529                 9.1071

                     37                     38                     39
                      A                      A                      A
 Frequencies --   1451.4865              1482.9050              1509.5832
 Red. masses --      2.6363                 2.1367                 1.0424
 Frc consts  --      3.2725                 2.7684                 1.3996
 IR Inten    --     34.9181                54.4703                 8.5502

                     40                     41                     42
                      A                      A                      A
 Frequencies --   1532.8423              1606.7253              1650.2241
 Red. masses --      1.3645                 6.3072                 1.3514
 Frc consts  --      1.8890                 9.5933                 2.1683
 IR Inten    --      2.4233                84.1233                85.4037

                     43                     44                     45
                      A                      A                      A
 Frequencies --   1682.7097              1724.0022              1793.1784
 Red. masses --      5.6490                 4.3008                 8.1835
 Frc consts  --      9.4241                 7.5314                15.5037
 IR Inten    --     77.8970               199.9368               537.9457

                     46                     47                     48
                      A                      A                      A
 Frequencies --   3047.6763              3099.8612              3156.1052
 Red. masses --      1.0394                 1.1012                 1.0990
 Frc consts  --      5.6881                 6.2344                 6.4500
 IR Inten    --     22.1577                12.2278                 8.0022

                     49                     50                     51
                      A                      A                      A
 Frequencies --   3233.6441              3246.2036              3485.2379
 Red. masses --      1.0912                 1.0916                 1.0747
 Frc consts  --      6.7223                 6.7777                 7.6914
 IR Inten    --      0.3287                 2.3151                 0.7480

                     52                     53                     54
                      A                      A                      A
 Frequencies --   3545.1625              3583.9602              3654.9686
 Red. masses --      1.0469                 1.0773                 1.0995
 Frc consts  --      7.7519                 8.1528                 8.6543
 IR Inten    --     19.7334                46.6650                16.0616

 - Thermochemistry -
 -------------------
 Temperature   298.150 Kelvin.  Pressure   1.00000 Atm.
 Atom     1 has atomic number  6 and mass  12.00000

 Molecular mass:   151.07456 amu.
 Principal axes and moments of inertia in atomic units:
                           1         2         3
     Eigenvalues --  1100.203922148.356963123.93588
           X            0.99871   0.05021   0.00766
           Y           -0.05016   0.99872  -0.00654
           Z           -0.00798   0.00614   0.99995
 This molecule is an asymmetric top.
 Rotational symmetry number  1.
 Warning -- assumption of classical behavior for rotation
           may cause significant error
 Rotational temperatures (Kelvin)      0.07873     0.04032     0.02773
 Rotational constants (GHZ):           1.64037     0.84006     0.57771
 Zero-point vibrational energy     424133.5 (Joules/Mol)
                                  101.37033 (Kcal/Mol)
 Warning -- explicit consideration of  15 degrees of freedom as
           vibrations may cause significant error
 Vibrational temperatures:     95.55   163.92   195.30   247.28   257.46
          (Kelvin)            311.68   422.80   504.56   549.20   645.52
                              705.75   759.97   812.42   816.85   859.04
                              913.20   949.63  1023.38  1078.78  1107.84
                             1214.25  1249.37  1287.06  1322.12  1371.49
                             1482.25  1524.70  1553.21  1590.56  1664.29
                             1716.78  1775.65  1799.85  1918.37  2049.85
                             2077.01  2088.37  2133.57  2171.95  2205.42
                             2311.72  2374.30  2421.04  2480.45  2579.98
                             4384.93  4460.01  4540.93  4652.49  4670.56
                             5014.48  5100.70  5156.52  5258.68

 Zero-point correction=                           0.161544 (Hartree/Particle)
 Thermal correction to Energy=                    0.171699
 Thermal correction to Enthalpy=                  0.172643
 Thermal correction to Gibbs Free Energy=         0.125884
 Sum of electronic and zero-point Energies=           -511.524113
 Sum of electronic and thermal Energies=              -511.513959
 Sum of electronic and thermal Enthalpies=            -511.513015
 Sum of electronic and thermal Free Energies=         -511.559774

                     E (Thermal)             CV                S
                      KCal/Mol        Cal/Mol-Kelvin    Cal/Mol-Kelvin
 Total                  107.742             38.697             98.413
 Electronic               0.000              0.000              0.000
 Translational            0.889              2.981             40.948
 Rotational               0.889              2.981             30.380
 Vibrational            105.965             32.736             27.085
 Vibration     1          0.598              1.970              4.257
 Vibration     2          0.607              1.938              3.201
 Vibration     3          0.614              1.918              2.863
 Vibration     4          0.626              1.877              2.415
 Vibration     5          0.629              1.868              2.339
 Vibration     6          0.645              1.816              1.987
 Vibration     7          0.689              1.685              1.452
 Vibration     8          0.728              1.574              1.163
 Vibration     9          0.751              1.509              1.032
 Vibration    10          0.808              1.364              0.800
 Vibration    11          0.846              1.271              0.682
 Vibration    12          0.883              1.188              0.591
 Vibration    13          0.920              1.108              0.515
 Vibration    14          0.924              1.101              0.509
 Vibration    15          0.955              1.038              0.455

                           ! Non-Optimized Parameters !
 Normal termination of Gaussian 16 at Tue Dec  8 20:05:30 2020.

 ----------------------------------------------------------------------
 # B3LYP/6-311++G(d,p) empiricaldispersion=gd3bj scf=xqc pop=npa geom=c
 heck
 ----------------------------------------------------------------------

 --------------------------------------
 CID_68873396_JID_1452_Energie_neutraal
 --------------------------------------
 Structure from the checkpoint file:  "JID_1452.chk"
 Charge =  0 Multiplicity = 1

 SCF Done:  E(RB3LYP) =  -511.843695151     A.U. after   15 cycles
 Normal termination of Gaussian 16 at Tue Dec  8 20:06:43 2020.

 ----------------------------------------------------------------------
 # B3LYP/6-311++G(d,p) empiricaldispersion=gd3bj scf=xqc pop=npa geom=c
 heck
 ----------------------------------------------------------------------

 ------------------------------------
 CID_68873396_JID_1452_Energie_kation
 ------------------------------------
 Structure from the checkpoint file:  "JID_1452.chk"
 Charge =  1 Multiplicity = 2

 SCF Done:  E(UB3LYP) =  -511.538755186     A.U. after   27 cycles
 Normal termination of Gaussian 16 at Tue Dec  8 20:09:44 2020.
 Gaussian 16:  ES64L-G16RevA.03 25-Dec-2016

 ----------------------------------------------------------------------
 # B3LYP/6-311++G(d,p) empiricaldispersion=gd3bj scf=xqc pop=npa geom=c
 heck
 ----------------------------------------------------------------------

 -----------------------------------
 CID_68873396_JID_1452_Energie_anion
 -----------------------------------
 Structure from the checkpoint file:  "JID_1452.chk"
 Charge = -1 Multiplicity = 2

                         Standard orientation:
 ---------------------------------------------------------------------
 Center     Atomic      Atomic             Coordinates (Angstroms)
 Number     Number       Type             X           Y           Z
 ---------------------------------------------------------------------
      1          6           0       -2.284464   -2.249474   -0.200380
      2          6           0       -1.370683   -1.064587   -0.092832
      3          6           0       -0.005692   -1.139015   -0.109203
      4          6           0        0.762675    0.064698   -0.022770
      5          6           0        0.144357    1.281342    0.092057
      6          6           0       -1.298694    1.406117    0.119226
      7          8           0       -1.949301    2.440970    0.219104
      8          7           0       -1.963056    0.162913    0.022294
      9          6           0        2.258874   -0.007449   -0.056240
     10          7           0        3.037472    0.828919   -0.637182
     11          7           0        2.794411   -1.128984    0.562658
     12          1           0       -2.933235   -2.328398    0.680871
     13          1           0       -2.932206   -2.168355   -1.082040
     14          1           0       -1.707403   -3.172646   -0.284559
     15          1           0        0.488337   -2.095012   -0.223087
     16          1           0        0.711715    2.199635    0.189322
     17          1           0       -2.974285    0.237617    0.040382
     18          1           0        2.489222    1.525355   -1.144263
     19          1           0        2.328776   -1.436732    1.407481
     20          1           0        3.803464   -1.078948    0.649520
 ---------------------------------------------------------------------

 SCF Done:  E(UB3LYP) =  -511.854163733     A.U. after   33 cycles
 SCF Done:  E(UB3LYP) =  -511.854163733     a.u. after    1 cycles

 The electronic state is 2-A.
 Alpha  occ. eigenvalues --  -18.91900 -14.19438 -14.18528 -14.12275 -10.10281
 Alpha  occ. eigenvalues --  -10.08797 -10.06470 -10.05906 -10.01788 -10.01482
 Alpha  occ. eigenvalues --   -9.98998  -0.87457  -0.80490  -0.79503  -0.70615
 Alpha  occ. eigenvalues --   -0.65271  -0.63594  -0.55570  -0.50914  -0.46679
 Alpha  occ. eigenvalues --   -0.43665  -0.39423  -0.38637  -0.35106  -0.31892
 Alpha  occ. eigenvalues --   -0.31197  -0.30669  -0.29612  -0.28042  -0.26920
 Alpha  occ. eigenvalues --   -0.26737  -0.23930  -0.22969  -0.21633  -0.18152
 Alpha  occ. eigenvalues --   -0.14818  -0.12094  -0.10969  -0.09977  -0.06688
 Alpha  occ. eigenvalues --    0.05109
 Alpha virt. eigenvalues --    0.07722   0.09148   0.10734   0.11118   0.12236
 Alpha virt. eigenvalues --    0.12705   0.13116   0.14272   0.14820   0.15783
 Alpha virt. eigenvalues --    0.16849   0.17078   0.18150   0.18395   0.19548

  Beta  occ. eigenvalues --  -18.91812 -14.19173 -14.18496 -14.12085 -10.10255
  Beta  occ. eigenvalues --  -10.08734 -10.06115 -10.05933 -10.01929 -10.01120
  Beta  occ. eigenvalues --   -9.98687  -0.87221  -0.80250  -0.79048  -0.70333
  Beta  occ. eigenvalues --   -0.64758  -0.63145  -0.55243  -0.50192  -0.46488
  Beta  occ. eigenvalues --   -0.43459  -0.39272  -0.38306  -0.34802  -0.31325
  Beta  occ. eigenvalues --   -0.30956  -0.30508  -0.29423  -0.27889  -0.26753
  Beta  occ. eigenvalues --   -0.25880  -0.23596  -0.22366  -0.21406  -0.17266
  Beta  occ. eigenvalues --   -0.13299  -0.11678  -0.10169  -0.09691  -0.05179
  Beta virt. eigenvalues --    0.07710   0.09102   0.10682   0.10807   0.11562
  Beta virt. eigenvalues --    0.12167   0.12668   0.13335   0.14258   0.15097
  Beta virt. eigenvalues --    0.16151   0.16775   0.17200   0.18272   0.18582

 Mulliken charges and spin densities:
               1          2
     1  C   -0.677231  -0.216030
     2  C   -0.074058   0.134911
     3  C   -0.321748   0.140724
     4  C    1.267130   0.100694
     5  C   -0.538527   0.228746
     6  C   -0.120000   0.056317
     7  O   -0.463761   0.030036
     8  N   -0.210646   0.123824
     9  C   -0.572472   0.085084
    10  N   -0.402854   0.109132
    11  N   -0.282670  -0.009640
    12  H   -0.011080   0.154225
    13  H    0.138236  -0.000187
    14  H    0.129906   0.008941
    15  H    0.105376   0.056495
    16  H    0.148776  -0.018107
    17  H    0.271151  -0.006487
    18  H    0.173965  -0.000490
    19  H    0.211329  -0.001858
    20  H    0.229178   0.023669
 Sum of Mulliken charges =  -1.00000   1.00000

 Dipole moment (field-independent basis, Debye):
    X=             -1.1760    Y=             -5.5772    Z=              0.9243  Tot=              5.7743
 Quadrupole moment (field-independent basis, Debye-Ang):
   XX=            -98.9140   YY=            -90.2500   ZZ=            -72.3609
   XY=              4.6791   XZ=              8.5668   YZ=             -2.5763

 Summary of Natural Population Analysis:

                                       Natural Population
                Natural  -----------------------------------------------
    Atom  No    Charge         Core      Valence    Rydberg      Total
 -----------------------------------------------------------------------
      C    1   -0.29978      0.99964     2.29494    0.00520     3.29978
      C    2    0.16535      0.99954     1.82483    0.01028     2.83465
      C    3   -0.18459      0.99949     2.17572    0.00938     3.18459
      C    4    0.02105      0.99947     1.96899    0.01049     2.97895
      C    5   -0.09332      0.99948     2.08506    0.00878     3.09332
      C    6    0.31890      0.99964     1.65979    0.02167     2.68110
      O    7   -0.34754      0.99988     3.34092    0.00674     4.34754
      N    8   -0.26125      0.99963     2.75133    0.01028     3.76125
      C    9    0.22756      0.99963     1.75420    0.01860     2.77244
      N   10   -0.35219      0.99970     2.84367    0.00882     3.85219
      N   11   -0.40694      0.99971     2.89715    0.01008     3.90694
      H   12    0.10039      0.00000     0.39776    0.00184     0.39961
      H   13    0.09928      0.00000     0.39941    0.00130     0.40072
      H   14    0.10173      0.00000     0.39737    0.00090     0.39827
      H   15    0.10098      0.00000     0.39762    0.00139     0.39902
      H   16    0.09648      0.00000     0.40213    0.00139     0.40352
      H   17    0.18623      0.00000     0.31200    0.00177     0.31377
      H   18    0.16454      0.00000     0.33349    0.00197     0.33546
      H   19    0.18276      0.00000     0.31525    0.00199     0.31724
      H   20    0.18035      0.00000     0.31627    0.00338     0.31965
 =======================================================================
   * Total *    0.00000     10.99581    28.86793    0.13626    40.00000

 Normal termination of Gaussian 16 at Tue Dec  8 20:13:41 2020.
