 Gaussian 16, Revision A.03,

 -----------------------------------------------------------
 # opt freq B3LYP/6-31G(d) empiricaldispersion=gd3bj scf=xqc
 -----------------------------------------------------------

 -------------------------------
 CID_131023722_JID_4828_neutraal
 -------------------------------
 Symbolic Z-matrix:
 Charge =  0 Multiplicity = 1

 SCF Done:  E(RB3LYP) =  -582.711936442     A.U. after   15 cycles
 SCF Done:  E(RB3LYP) =  -582.715322190     A.U. after   13 cycles
 SCF Done:  E(RB3LYP) =  -582.715715693     A.U. after   13 cycles
 SCF Done:  E(RB3LYP) =  -582.715607905     A.U. after   13 cycles
 SCF Done:  E(RB3LYP) =  -582.715931287     A.U. after   11 cycles
 SCF Done:  E(RB3LYP) =  -582.716017858     A.U. after   10 cycles
 SCF Done:  E(RB3LYP) =  -582.716127120     A.U. after   12 cycles
 SCF Done:  E(RB3LYP) =  -582.716138499     A.U. after   10 cycles
 SCF Done:  E(RB3LYP) =  -582.716142055     A.U. after   10 cycles
 SCF Done:  E(RB3LYP) =  -582.716142854     A.U. after    8 cycles
 SCF Done:  E(RB3LYP) =  -582.716143255     A.U. after    8 cycles
 SCF Done:  E(RB3LYP) =  -582.716143351     A.U. after    8 cycles
 SCF Done:  E(RB3LYP) =  -582.716143356     A.U. after    7 cycles
 Optimization completed.
    -- Stationary point found.
 Normal termination of Gaussian 16 at Thu Dec 10 10:41:01 2020.

 --------------------------------------------------------------------
 #N Geom=AllCheck Guess=TCheck SCRF=Check GenChk RB3LYP/6-31G(d) Freq
 --------------------------------------------------------------------

 Structure from the checkpoint file:  "JID_4828.chk"
 -------------------------------
 CID_131023722_JID_4828_neutraal
 -------------------------------
 Charge =  0 Multiplicity = 1

 SCF Done:  E(RB3LYP) =  -582.716143356     A.U. after    1 cycles

  Exact polarizability: 164.371   8.187 137.043   0.437   1.478 104.339
 Approx polarizability: 207.769  30.937 218.946   2.468   5.989 158.061

                      1                      2                      3
                      A                      A                      A
 Frequencies --     37.3194                68.9054                91.6256
 Red. masses --      3.6311                 2.9176                 3.9387
 Frc consts  --      0.0030                 0.0082                 0.0195
 IR Inten    --      3.1675                 0.3941                 0.4846

                      4                      5                      6
                      A                      A                      A
 Frequencies --    106.7140               178.1577               192.4995
 Red. masses --      3.1619                 3.1771                 2.1692
 Frc consts  --      0.0212                 0.0594                 0.0474
 IR Inten    --      0.7429                 0.9582                 0.2801

                      7                      8                      9
                      A                      A                      A
 Frequencies --    223.6669               226.7429               243.9212
 Red. masses --      1.1699                 2.5800                 3.4179
 Frc consts  --      0.0345                 0.0782                 0.1198
 IR Inten    --      0.5133                 0.7664                 1.3981

                     10                     11                     12
                      A                      A                      A
 Frequencies --    264.0031               299.8924               359.6187
 Red. masses --      1.8740                 2.4785                 2.0390
 Frc consts  --      0.0770                 0.1313                 0.1554
 IR Inten    --      0.0520                 0.3846                 1.1200

                     13                     14                     15
                      A                      A                      A
 Frequencies --    370.4255               394.0351               458.2846
 Red. masses --      3.6894                 2.0813                 2.6927
 Frc consts  --      0.2983                 0.1904                 0.3332
 IR Inten    --      1.9389                 0.4853                 1.9787

                     16                     17                     18
                      A                      A                      A
 Frequencies --    462.3999               520.4150               528.4295
 Red. masses --      2.7502                 1.8985                 2.2672
 Frc consts  --      0.3465                 0.3029                 0.3730
 IR Inten    --      1.3117                 2.7974                 3.2712

                     19                     20                     21
                      A                      A                      A
 Frequencies --    562.9704               580.9554               602.6223
 Red. masses --      3.2086                 2.4865                 2.3805
 Frc consts  --      0.5991                 0.4945                 0.5093
 IR Inten    --     11.0794                 2.7227                 1.8224

                     22                     23                     24
                      A                      A                      A
 Frequencies --    655.8671               751.2741               792.7673
 Red. masses --      2.4970                 3.8766                 2.3128
 Frc consts  --      0.6328                 1.2891                 0.8564
 IR Inten    --      0.6718                 0.1602                 2.4402

                     25                     26                     27
                      A                      A                      A
 Frequencies --    806.3671               834.3451               855.9878
 Red. masses --      1.8194                 2.1682                 2.0629
 Frc consts  --      0.6970                 0.8893                 0.8906
 IR Inten    --      1.0080                 0.2879                 3.8882

                     28                     29                     30
                      A                      A                      A
 Frequencies --    864.0391               881.7674               905.0678
 Red. masses --      1.9811                 1.9946                 1.4717
 Frc consts  --      0.8714                 0.9137                 0.7103
 IR Inten    --      0.0494                 6.3667                10.1912

                     31                     32                     33
                      A                      A                      A
 Frequencies --    929.8259               934.1405               951.1765
 Red. masses --      1.8404                 1.9797                 2.2056
 Frc consts  --      0.9375                 1.0178                 1.1757
 IR Inten    --      1.7385                 2.6938                 1.9244

                     34                     35                     36
                      A                      A                      A
 Frequencies --    961.5629               976.5320              1009.3778
 Red. masses --      1.4881                 1.9913                 1.8749
 Frc consts  --      0.8107                 1.1188                 1.1255
 IR Inten    --      1.9647                 1.0402                 5.7160

                     37                     38                     39
                      A                      A                      A
 Frequencies --   1033.8660              1041.0895              1051.5954
 Red. masses --      1.8146                 1.8235                 2.3178
 Frc consts  --      1.1428                 1.1645                 1.5102
 IR Inten    --      0.4920                 9.9579                 2.1752

                     40                     41                     42
                      A                      A                      A
 Frequencies --   1052.4576              1063.6971              1088.1376
 Red. masses --      1.8335                 1.8368                 1.5381
 Frc consts  --      1.1966                 1.2245                 1.0730
 IR Inten    --      7.4615                 0.2008                 0.5925

                     43                     44                     45
                      A                      A                      A
 Frequencies --   1104.8737              1139.0025              1165.9575
 Red. masses --      1.9365                 1.1727                 2.4933
 Frc consts  --      1.3928                 0.8964                 1.9970
 IR Inten    --      0.9021                 1.3464                 0.4412

                     46                     47                     48
                      A                      A                      A
 Frequencies --   1189.7396              1205.3898              1222.7103
 Red. masses --      1.3843                 2.6249                 1.4920
 Frc consts  --      1.1545                 2.2470                 1.3142
 IR Inten    --      2.9394                 5.3724                 0.9300

                     49                     50                     51
                      A                      A                      A
 Frequencies --   1251.2811              1284.2616              1292.5298
 Red. masses --      1.8034                 1.2656                 2.7989
 Frc consts  --      1.6637                 1.2299                 2.7550
 IR Inten    --      1.1317                 1.8536               161.6080

                     52                     53                     54
                      A                      A                      A
 Frequencies --   1300.6506              1317.8934              1323.5556
 Red. masses --      1.3539                 1.2279                 1.3687
 Frc consts  --      1.3495                 1.2566                 1.4126
 IR Inten    --      8.2905                 1.1741                 6.5597

                     55                     56                     57
                      A                      A                      A
 Frequencies --   1332.3121              1354.0579              1363.1048
 Red. masses --      1.4046                 1.4092                 1.3641
 Frc consts  --      1.4690                 1.5223                 1.4934
 IR Inten    --      2.7615                 3.3803                 1.2348

                     58                     59                     60
                      A                      A                      A
 Frequencies --   1373.6538              1386.7086              1389.0278
 Red. masses --      1.3928                 1.5743                 1.4528
 Frc consts  --      1.5484                 1.7837                 1.6515
 IR Inten    --      0.4032                 6.0833                 2.3169

                     61                     62                     63
                      A                      A                      A
 Frequencies --   1402.1761              1403.4012              1406.9169
 Red. masses --      1.4577                 1.4160                 1.4602
 Frc consts  --      1.6885                 1.6431                 1.7029
 IR Inten    --      0.5553                 4.4105                 6.1124

                     64                     65                     66
                      A                      A                      A
 Frequencies --   1412.8601              1486.5621              1504.6768
 Red. masses --      1.3539                 1.0726                 1.0637
 Frc consts  --      1.5923                 1.3965                 1.4190
 IR Inten    --     38.1001                14.3812                 7.0353

                     67                     68                     69
                      A                      A                      A
 Frequencies --   1507.8414              1512.0004              1514.0358
 Red. masses --      1.0831                 1.0593                 1.0876
 Frc consts  --      1.4509                 1.4268                 1.4690
 IR Inten    --      0.1309                 9.4152                 1.3767

                     70                     71                     72
                      A                      A                      A
 Frequencies --   1517.9276              1522.7239              1527.5447
 Red. masses --      1.0935                 1.0812                 1.0839
 Frc consts  --      1.4845                 1.4771                 1.4902
 IR Inten    --      4.9786                 9.9843                 3.7575

                     73                     74                     75
                      A                      A                      A
 Frequencies --   1535.1909              1542.2410              1704.7364
 Red. masses --      1.1023                 1.1000                 8.8786
 Frc consts  --      1.5306                 1.5416                15.2023
 IR Inten    --      4.1263                 0.7229                61.9707

                     76                     77                     78
                      A                      A                      A
 Frequencies --   1755.6118              3025.2027              3026.1714
 Red. masses --      9.5727                 1.0679                 1.0727
 Frc consts  --     17.3837                 5.7583                 5.7880
 IR Inten    --    240.8825                19.0951                14.2868

                     79                     80                     81
                      A                      A                      A
 Frequencies --   3035.4703              3037.2868              3040.3092
 Red. masses --      1.0630                 1.0624                 1.0673
 Frc consts  --      5.7710                 5.7742                 5.8126
 IR Inten    --     18.8784                21.2287                23.9695

                     82                     83                     84
                      A                      A                      A
 Frequencies --   3041.2527              3046.6221              3056.6264
 Red. masses --      1.0621                 1.0657                 1.0388
 Frc consts  --      5.7879                 5.8280                 5.7184
 IR Inten    --     25.6331                 8.0636                 6.0718

                     85                     86                     87
                      A                      A                      A
 Frequencies --   3061.0366              3073.7295              3075.6544
 Red. masses --      1.0645                 1.0959                 1.0930
 Frc consts  --      5.8769                 6.1001                 6.0918
 IR Inten    --     19.2188                78.2956                68.6165

                     88                     89                     90
                      A                      A                      A
 Frequencies --   3077.6792              3083.2399              3089.0787
 Red. masses --      1.1025                 1.1041                 1.1040
 Frc consts  --      6.1526                 6.1840                 6.2071
 IR Inten    --      9.1897                 3.4423                97.8152

                     91                     92                     93
                      A                      A                      A
 Frequencies --   3111.1866              3120.9346              3122.1309
 Red. masses --      1.0983                 1.0976                 1.0940
 Frc consts  --      6.2637                 6.2989                 6.2833
 IR Inten    --     39.8653                14.1057                35.6496

                     94                     95                     96
                      A                      A                      A
 Frequencies --   3126.3770              3165.7022              3175.3628
 Red. masses --      1.0926                 1.1024                 1.0874
 Frc consts  --      6.2919                 6.5095                 6.4599
 IR Inten    --     23.2940                14.2147                11.0240

 - Thermochemistry -
 -------------------
 Temperature   298.150 Kelvin.  Pressure   1.00000 Atm.
 Atom     1 has atomic number  6 and mass  12.00000

 Molecular mass:   192.15142 amu.
 Principal axes and moments of inertia in atomic units:
                           1         2         3
     Eigenvalues --  1591.270374191.647765000.12150
           X            0.99949  -0.03201  -0.00170
           Y            0.03200   0.99948  -0.00501
           Z            0.00186   0.00496   0.99999
 This molecule is an asymmetric top.
 Rotational symmetry number  1.
 Warning -- assumption of classical behavior for rotation
           may cause significant error
 Rotational temperatures (Kelvin)      0.05443     0.02066     0.01732
 Rotational constants (GHZ):           1.13415     0.43056     0.36094
 Zero-point vibrational energy     807830.8 (Joules/Mol)
                                  193.07619 (Kcal/Mol)
 Warning -- explicit consideration of  21 degrees of freedom as
           vibrations may cause significant error
 Vibrational temperatures:     53.69    99.14   131.83   153.54   256.33
          (Kelvin)            276.96   321.81   326.23   350.95   379.84
                              431.48   517.41   532.96   566.93   659.37
                              665.29   748.76   760.29   809.99   835.87
                              867.04   943.65  1080.92  1140.62  1160.18
                             1200.44  1231.58  1243.16  1268.67  1302.19
                             1337.81  1344.02  1368.53  1383.47  1405.01
                             1452.27  1487.50  1497.90  1513.01  1514.25
                             1530.42  1565.59  1589.67  1638.77  1677.55
                             1711.77  1734.29  1759.21  1800.31  1847.77
                             1859.66  1871.35  1896.15  1904.30  1916.90
                             1948.19  1961.20  1976.38  1995.16  1998.50
                             2017.42  2019.18  2024.24  2032.79  2138.83
                             2164.89  2169.45  2175.43  2178.36  2183.96
                             2190.86  2197.80  2208.80  2218.94  2452.74
                             2525.93  4352.59  4353.99  4367.36  4369.98
                             4374.33  4375.68  4383.41  4397.80  4404.15
                             4422.41  4425.18  4428.09  4436.09  4444.50
                             4476.30  4490.33  4492.05  4498.16  4554.74
                             4568.64

 Zero-point correction=                           0.307686 (Hartree/Particle)
 Thermal correction to Energy=                    0.321123
 Thermal correction to Enthalpy=                  0.322067
 Thermal correction to Gibbs Free Energy=         0.267734
 Sum of electronic and zero-point Energies=           -582.408457
 Sum of electronic and thermal Energies=              -582.395021
 Sum of electronic and thermal Enthalpies=            -582.394076
 Sum of electronic and thermal Free Energies=         -582.448409

                     E (Thermal)             CV                S
                      KCal/Mol        Cal/Mol-Kelvin    Cal/Mol-Kelvin
 Total                  201.508             53.484            114.353
 Electronic               0.000              0.000              0.000
 Translational            0.889              2.981             41.665
 Rotational               0.889              2.981             31.878
 Vibrational            199.730             47.522             40.810
 Vibration     1          0.594              1.982              5.397
 Vibration     2          0.598              1.969              4.184
 Vibration     3          0.602              1.955              3.625
 Vibration     4          0.606              1.944              3.328
 Vibration     5          0.629              1.869              2.348
 Vibration     6          0.634              1.850              2.204
 Vibration     7          0.649              1.805              1.929
 Vibration     8          0.650              1.800              1.905
 Vibration     9          0.659              1.773              1.774
 Vibration    10          0.671              1.739              1.635
 Vibration    11          0.692              1.674              1.418
 Vibration    12          0.734              1.555              1.124
 Vibration    13          0.742              1.533              1.078
 Vibration    14          0.761              1.483              0.985
 Vibration    15          0.816              1.343              0.771
 Vibration    16          0.820              1.333              0.759
 Vibration    17          0.875              1.205              0.609
 Vibration    18          0.883              1.187              0.591
 Vibration    19          0.919              1.111              0.518
 Vibration    20          0.938              1.072              0.484
 Vibration    21          0.961              1.026              0.445

 Optimization completed.
    -- Stationary point found.
 Normal termination of Gaussian 16 at Thu Dec 10 10:51:35 2020.

 ----------------------------------------------------------------------
 # B3LYP/6-311++G(d,p) empiricaldispersion=gd3bj scf=xqc pop=npa geom=c
 heck
 ----------------------------------------------------------------------

 ---------------------------------------
 CID_131023722_JID_4828_Energie_neutraal
 ---------------------------------------
 Structure from the checkpoint file:  "JID_4828.chk"
 Charge =  0 Multiplicity = 1

 SCF Done:  E(RB3LYP) =  -582.874504809     A.U. after   14 cycles
 Normal termination of Gaussian 16 at Thu Dec 10 10:56:33 2020.

 ----------------------------------------------------------------------
 # B3LYP/6-311++G(d,p) empiricaldispersion=gd3bj scf=xqc pop=npa geom=c
 heck
 ----------------------------------------------------------------------

 -------------------------------------
 CID_131023722_JID_4828_Energie_kation
 -------------------------------------
 Structure from the checkpoint file:  "JID_4828.chk"
 Charge =  1 Multiplicity = 2

 SCF Done:  E(UB3LYP) =  -582.554300422     A.U. after   24 cycles
 Normal termination of Gaussian 16 at Thu Dec 10 11:09:18 2020.
 Gaussian 16:  ES64L-G16RevA.03 25-Dec-2016

 ----------------------------------------------------------------------
 # B3LYP/6-311++G(d,p) empiricaldispersion=gd3bj scf=xqc pop=npa geom=c
 heck
 ----------------------------------------------------------------------

 ------------------------------------
 CID_131023722_JID_4828_Energie_anion
 ------------------------------------
 Structure from the checkpoint file:  "JID_4828.chk"
 Charge = -1 Multiplicity = 2

                         Standard orientation:
 ---------------------------------------------------------------------
 Center     Atomic      Atomic             Coordinates (Angstroms)
 Number     Number       Type             X           Y           Z
 ---------------------------------------------------------------------
      1          6           0       -3.943195    0.236026    0.016069
      2          6           0       -3.005255   -0.957008   -0.066150
      3          8           0       -3.465676   -2.087363   -0.178621
      4          6           0       -1.536649   -0.790281   -0.001916
      5          6           0       -0.781325    0.320672    0.076337
      6          6           0       -1.226696    1.771852    0.100261
      7          6           0        0.055136    2.582621   -0.154050
      8          6           0        1.151933    1.719889    0.477650
      9          6           0        0.753672    0.259287    0.135048
     10          6           0        1.268748   -0.741675    1.190508
     11          6           0        2.797913   -0.863223    1.181047
     12          6           0        3.304952   -1.288891   -0.202424
     13          6           0        2.821445   -0.322531   -1.290565
     14          6           0        1.295773   -0.157119   -1.261688
     15          1           0       -4.966585   -0.136352    0.089907
     16          1           0       -3.856979    0.859022   -0.882076
     17          1           0       -3.717861    0.872679    0.877752
     18          1           0       -1.036797   -1.756411   -0.020265
     19          1           0       -1.627658    2.013050    1.095566
     20          1           0       -2.019652    1.992937   -0.617509
     21          1           0        0.006277    3.592495    0.264262
     22          1           0        0.225939    2.684430   -1.232441
     23          1           0        1.143088    1.850539    1.568183
     24          1           0        2.153940    1.984628    0.130892
     25          1           0        0.840108   -1.731988    0.992101
     26          1           0        0.909137   -0.438994    2.181769
     27          1           0        3.114500   -1.587222    1.941669
     28          1           0        3.250589    0.098621    1.458991
     29          1           0        4.399985   -1.351441   -0.207988
     30          1           0        2.929877   -2.298492   -0.424898
     31          1           0        3.307681    0.652424   -1.151904
     32          1           0        3.128223   -0.678980   -2.281657
     33          1           0        0.825124   -1.109995   -1.535285
     34          1           0        0.977775    0.570235   -2.018857
 ---------------------------------------------------------------------

 SCF Done:  E(UB3LYP) =  -582.869516096     A.U. after   33 cycles
 SCF Done:  E(UB3LYP) =  -582.869959297     a.u. after    9 cycles

 The electronic state is 2-A.
 Alpha  occ. eigenvalues --  -18.93081 -10.08263 -10.06026 -10.05742 -10.05614
 Alpha  occ. eigenvalues --  -10.05531 -10.05202 -10.05073 -10.05057 -10.04836
 Alpha  occ. eigenvalues --  -10.04656 -10.03802 -10.02751 -10.01031  -0.87015
 Alpha  occ. eigenvalues --   -0.74318  -0.69748  -0.63508  -0.62972  -0.62367
 Alpha  occ. eigenvalues --   -0.59238  -0.55081  -0.51360  -0.49882  -0.47511
 Alpha  occ. eigenvalues --   -0.43741  -0.40858  -0.38624  -0.36403  -0.35589
 Alpha  occ. eigenvalues --   -0.34613  -0.32818  -0.31880  -0.31176  -0.30442
 Alpha  occ. eigenvalues --   -0.29860  -0.28369  -0.27008  -0.26815  -0.26675
 Alpha  occ. eigenvalues --   -0.25818  -0.24074  -0.23631  -0.23224  -0.22231
 Alpha  occ. eigenvalues --   -0.21788  -0.21680  -0.21275  -0.19459  -0.18701
 Alpha  occ. eigenvalues --   -0.17682  -0.11499  -0.09328   0.05049
 Alpha virt. eigenvalues --    0.06627   0.07915   0.08428   0.08789   0.09665
 Alpha virt. eigenvalues --    0.10050   0.10168   0.11203   0.11638   0.12256
 Alpha virt. eigenvalues --    0.12627   0.13100   0.13666   0.13917   0.14719

  Beta  occ. eigenvalues --  -18.92671 -10.08020 -10.06061 -10.05737 -10.05608
  Beta  occ. eigenvalues --  -10.05517 -10.05191 -10.05094 -10.05042 -10.04808
  Beta  occ. eigenvalues --  -10.04619 -10.03818 -10.02296 -10.01032  -0.86278
  Beta  occ. eigenvalues --   -0.74124  -0.69629  -0.63232  -0.62869  -0.62262
  Beta  occ. eigenvalues --   -0.59030  -0.54973  -0.51112  -0.49805  -0.47448
  Beta  occ. eigenvalues --   -0.43358  -0.40607  -0.38393  -0.36272  -0.35437
  Beta  occ. eigenvalues --   -0.34503  -0.32732  -0.31786  -0.31006  -0.30114
  Beta  occ. eigenvalues --   -0.29760  -0.28238  -0.26766  -0.26664  -0.26419
  Beta  occ. eigenvalues --   -0.25697  -0.23857  -0.23548  -0.23157  -0.22172
  Beta  occ. eigenvalues --   -0.21744  -0.21223  -0.19981  -0.19404  -0.18541
  Beta  occ. eigenvalues --   -0.17482  -0.09845  -0.08964
  Beta virt. eigenvalues --    0.07120   0.08006   0.08598   0.08923   0.09891
  Beta virt. eigenvalues --    0.10079   0.10213   0.11051   0.11355   0.11681
  Beta virt. eigenvalues --    0.12367   0.12743   0.13165   0.13600   0.13947

 Mulliken charges and spin densities:
               1          2
     1  C   -0.396846  -0.010622
     2  C   -0.171672   0.216388
     3  O   -0.378951   0.132396
     4  C   -0.237911   0.068068
     5  C    0.640138   0.344616
     6  C   -0.584264   0.031291
     7  C   -0.347486  -0.309525
     8  C   -0.240603  -0.248249
     9  C    0.549369   0.332185
    10  C   -0.268103  -0.255708
    11  C   -0.268344  -0.035164
    12  C   -0.059146  -0.393729
    13  C    0.650691  -1.000227
    14  C   -0.939858   0.353556
    15  H    0.156171   0.002334
    16  H    0.117872   0.002982
    17  H    0.115507   0.002057
    18  H    0.156797   0.026395
    19  H    0.136188   0.024169
    20  H    0.098157   0.033619
    21  H    0.154511  -0.002312
    22  H    0.074799   0.047299
    23  H    0.128164   0.015427
    24  H    0.063064   0.066169
    25  H    0.090662   0.005151
    26  H    0.172462  -0.010997
    27  H    0.072533   0.091726
    28  H   -0.040863   0.166147
    29  H   -0.455532   0.620926
    30  H    0.183639  -0.076879
    31  H   -0.118282   0.238154
    32  H   -0.310536   0.477826
    33  H    0.145612   0.003810
    34  H    0.112059   0.040721
 Sum of Mulliken charges =  -1.00000   1.00000

 Dipole moment (field-independent basis, Debye):
    X=              0.3054    Y=              4.5289    Z=              2.2685  Tot=              5.0745
 Quadrupole moment (field-independent basis, Debye-Ang):
   XX=           -164.1635   YY=           -115.2836   ZZ=           -105.9268
   XY=            -14.5495   XZ=              6.6687   YZ=             -1.2499

 Summary of Natural Population Analysis:

                                       Natural Population
                Natural  -----------------------------------------------
    Atom  No    Charge         Core      Valence    Rydberg      Total
 -----------------------------------------------------------------------
      C    1   -0.32900      0.99964     2.32524    0.00412     3.32900
      C    2    0.28818      0.99967     1.69242    0.01973     2.71182
      O    3   -0.27298      0.99988     3.26570    0.00741     4.27298
      C    4   -0.16238      0.99942     2.15356    0.00939     3.16238
      C    5    0.10755      0.99949     1.88151    0.01145     2.89245
      C    6   -0.21164      0.99960     2.20421    0.00782     3.21164
      C    7   -0.18837      0.99964     2.18017    0.00856     3.18837
      C    8   -0.19002      0.99960     2.18035    0.01006     3.19002
      C    9   -0.04776      0.99953     2.03669    0.01154     3.04776
      C   10   -0.18069      0.99959     2.17128    0.00982     3.18069
      C   11   -0.19012      0.99963     2.18192    0.00858     3.19012
      C   12   -0.18926      0.99963     2.18075    0.00888     3.18926
      C   13   -0.19146      0.99963     2.18241    0.00942     3.19146
      C   14   -0.17975      0.99959     2.16995    0.01021     3.17975
      H   15    0.10157      0.00000     0.39690    0.00153     0.39843
      H   16    0.10043      0.00000     0.39864    0.00093     0.39957
      H   17    0.09956      0.00000     0.39953    0.00091     0.40044
      H   18    0.09566      0.00000     0.40200    0.00234     0.40434
      H   19    0.10157      0.00000     0.39728    0.00115     0.39843
      H   20    0.10383      0.00000     0.39495    0.00121     0.39617
      H   21    0.09293      0.00000     0.40627    0.00081     0.40707
      H   22    0.09254      0.00000     0.40624    0.00122     0.40746
      H   23    0.09286      0.00000     0.40620    0.00094     0.40714
      H   24    0.09953      0.00000     0.39934    0.00113     0.40047
      H   25    0.09813      0.00000     0.40068    0.00119     0.40187
      H   26    0.09736      0.00000     0.40178    0.00086     0.40264
      H   27    0.09371      0.00000     0.40548    0.00081     0.40629
      H   28    0.09214      0.00000     0.40673    0.00113     0.40786
      H   29    0.09752      0.00000     0.40121    0.00127     0.40248
      H   30    0.09020      0.00000     0.40870    0.00109     0.40980
      H   31    0.09207      0.00000     0.40659    0.00134     0.40793
      H   32    0.09908      0.00000     0.39961    0.00131     0.40092
      H   33    0.09967      0.00000     0.39916    0.00117     0.40033
      H   34    0.09733      0.00000     0.40163    0.00104     0.40267
 =======================================================================
   * Total *   -0.00000     13.99454    38.84508    0.16037    53.00000

 Normal termination of Gaussian 16 at Thu Dec 10 13:15:18 2020.
