 Gaussian 16, Revision A.03,

 -----------------------------------------------------------
 # opt freq B3LYP/6-31G(d) empiricaldispersion=gd3bj scf=xqc
 -----------------------------------------------------------

 -------------------------------
 CID_150508277_JID_4415_neutraal
 -------------------------------
 Symbolic Z-matrix:
 Charge =  0 Multiplicity = 1

 SCF Done:  E(RB3LYP) =  -1005.67672932     A.U. after   17 cycles
 SCF Done:  E(RB3LYP) =  -1005.68320049     A.U. after   14 cycles
 SCF Done:  E(RB3LYP) =  -1005.68246530     A.U. after   16 cycles
 SCF Done:  E(RB3LYP) =  -1005.68427159     A.U. after   14 cycles
 SCF Done:  E(RB3LYP) =  -1005.68550622     A.U. after   13 cycles
 SCF Done:  E(RB3LYP) =  -1005.68565568     A.U. after   13 cycles
 SCF Done:  E(RB3LYP) =  -1005.68573161     A.U. after   12 cycles
 SCF Done:  E(RB3LYP) =  -1005.68577964     A.U. after   11 cycles
 SCF Done:  E(RB3LYP) =  -1005.68579764     A.U. after   11 cycles
 SCF Done:  E(RB3LYP) =  -1005.68580133     A.U. after   10 cycles
 SCF Done:  E(RB3LYP) =  -1005.68580199     A.U. after    8 cycles
 SCF Done:  E(RB3LYP) =  -1005.68580207     A.U. after    8 cycles
 Optimization completed.
    -- Stationary point found.
 Normal termination of Gaussian 16 at Thu Dec 10 09:42:29 2020.

 --------------------------------------------------------------------
 #N Geom=AllCheck Guess=TCheck SCRF=Check GenChk RB3LYP/6-31G(d) Freq
 --------------------------------------------------------------------

 Structure from the checkpoint file:  "JID_4415.chk"
 -------------------------------
 CID_150508277_JID_4415_neutraal
 -------------------------------
 Charge =  0 Multiplicity = 1

 SCF Done:  E(RB3LYP) =  -1005.68580207     A.U. after    1 cycles

  Exact polarizability: 139.436 -11.969 126.652   7.116  -1.646 115.529
 Approx polarizability: 197.066 -36.361 211.879  17.250  -8.806 192.278

                      1                      2                      3
                      A                      A                      A
 Frequencies --     41.7996                50.3073                80.9650
 Red. masses --      6.8318                 5.8680                10.5402
 Frc consts  --      0.0070                 0.0087                 0.0407
 IR Inten    --      0.1478                 0.9769                 2.7583

                      4                      5                      6
                      A                      A                      A
 Frequencies --     91.2324               133.2230               154.7422
 Red. masses --      4.7206                 5.1844                 8.2462
 Frc consts  --      0.0231                 0.0542                 0.1163
 IR Inten    --      0.8059                 3.0825                 0.4493

                      7                      8                      9
                      A                      A                      A
 Frequencies --    166.7271               223.8213               243.7026
 Red. masses --      4.1605                 3.4071                 3.3718
 Frc consts  --      0.0681                 0.1006                 0.1180
 IR Inten    --      0.6133                 5.5636                 5.6518

                     10                     11                     12
                      A                      A                      A
 Frequencies --    254.2567               284.2642               299.0456
 Red. masses --      1.0376                 2.0367                 1.2674
 Frc consts  --      0.0395                 0.0970                 0.0668
 IR Inten    --      0.0780                 4.2642                 0.1349

                     13                     14                     15
                      A                      A                      A
 Frequencies --    310.1035               326.8098               362.0684
 Red. masses --      2.7328                 3.9356                 2.5575
 Frc consts  --      0.1548                 0.2477                 0.1975
 IR Inten    --      3.1559                 2.4449                 0.3300

                     16                     17                     18
                      A                      A                      A
 Frequencies --    378.9060               386.1275               434.5823
 Red. masses --      4.2767                 2.6690                 1.9725
 Frc consts  --      0.3618                 0.2345                 0.2195
 IR Inten    --      1.2721                 0.5296                 0.3225

                     19                     20                     21
                      A                      A                      A
 Frequencies --    477.6353               496.8301               538.3904
 Red. masses --      3.0956                 8.0784                 3.2308
 Frc consts  --      0.4161                 1.1749                 0.5518
 IR Inten    --      8.1505                 0.5270                 2.1667

                     22                     23                     24
                      A                      A                      A
 Frequencies --    585.2891               607.3343               631.3202
 Red. masses --      8.2696                 4.3295                 4.1502
 Frc consts  --      1.6691                 0.9409                 0.9746
 IR Inten    --     14.3392                 5.6306                46.6655

                     25                     26                     27
                      A                      A                      A
 Frequencies --    680.0492               763.9509               808.7911
 Red. masses --      4.9098                 4.2767                 3.4891
 Frc consts  --      1.3378                 1.4706                 1.3447
 IR Inten    --      4.0842                37.4203                19.5468

                     28                     29                     30
                      A                      A                      A
 Frequencies --    841.0976               866.9726               928.1629
 Red. masses --      2.7770                 7.4258                 2.1812
 Frc consts  --      1.1575                 3.2886                 1.1071
 IR Inten    --      0.4143                18.0274                 1.8283

                     31                     32                     33
                      A                      A                      A
 Frequencies --    941.6086               964.7128               978.0650
 Red. masses --      1.8248                 1.4553                 2.2098
 Frc consts  --      0.9532                 0.7980                 1.2455
 IR Inten    --      2.6330                 2.3544                 5.0757

                     34                     35                     36
                      A                      A                      A
 Frequencies --   1014.4229              1017.9523              1048.8941
 Red. masses --      2.0146                 1.6567                 1.3989
 Frc consts  --      1.2215                 1.0114                 0.9068
 IR Inten    --      9.9497                11.5015                10.1119

                     37                     38                     39
                      A                      A                      A
 Frequencies --   1064.6443              1123.9296              1153.8185
 Red. masses --      1.7190                 2.8340                 1.9310
 Frc consts  --      1.1480                 2.1093                 1.5147
 IR Inten    --     11.8435               133.1963                60.2818

                     40                     41                     42
                      A                      A                      A
 Frequencies --   1193.3449              1200.7239              1215.5207
 Red. masses --      1.7149                 2.8701                 1.8612
 Frc consts  --      1.4389                 2.4380                 1.6202
 IR Inten    --      4.0268                 5.9445                11.5311

                     43                     44                     45
                      A                      A                      A
 Frequencies --   1237.1051              1258.7825              1264.8793
 Red. masses --      2.0873                 2.4798                 2.5435
 Frc consts  --      1.8821                 2.3151                 2.3976
 IR Inten    --     13.7805                 1.4839               181.3899

                     46                     47                     48
                      A                      A                      A
 Frequencies --   1281.5125              1329.2894              1366.6852
 Red. masses --      2.1412                 1.2855                 1.4051
 Frc consts  --      2.0718                 1.3383                 1.5463
 IR Inten    --    191.7267                32.6905                54.0598

                     49                     50                     51
                      A                      A                      A
 Frequencies --   1375.8932              1386.6725              1425.8777
 Red. masses --      1.3100                 1.3232                 1.4172
 Frc consts  --      1.4612                 1.4991                 1.6976
 IR Inten    --      8.3469                 9.2784                 6.5465

                     52                     53                     54
                      A                      A                      A
 Frequencies --   1432.8795              1434.7104              1457.8165
 Red. masses --      1.2325                 1.4573                 1.2403
 Frc consts  --      1.4910                 1.7673                 1.5530
 IR Inten    --      4.0707                16.0435                 6.5397

                     55                     56                     57
                      A                      A                      A
 Frequencies --   1490.0827              1504.6126              1512.6916
 Red. masses --      1.0972                 1.0958                 1.0516
 Frc consts  --      1.4354                 1.4617                 1.4177
 IR Inten    --     13.1667                 8.4431                 0.8548

                     58                     59                     60
                      A                      A                      A
 Frequencies --   1515.8875              1530.5435              1532.6684
 Red. masses --      1.0480                 1.0525                 1.0733
 Frc consts  --      1.4188                 1.4527                 1.4855
 IR Inten    --      1.0046                 6.9866                 6.8982

                     61                     62                     63
                      A                      A                      A
 Frequencies --   1540.8070              1555.4094              1788.9340
 Red. masses --      1.0518                 1.0845                11.5891
 Frc consts  --      1.4712                 1.5459                21.8518
 IR Inten    --     10.9708                12.8603               161.2730

                     64                     65                     66
                      A                      A                      A
 Frequencies --   2293.3245              2995.5751              3010.5784
 Red. masses --     13.9783                 1.0631                 1.0695
 Frc consts  --     43.3147                 5.6205                 5.7112
 IR Inten    --    469.9014                52.0066                40.1781

                     67                     68                     69
                      A                      A                      A
 Frequencies --   3028.7650              3045.7168              3058.8450
 Red. masses --      1.0974                 1.0377                 1.0396
 Frc consts  --      5.9311                 5.6718                 5.7310
 IR Inten    --     40.6368                23.7336                17.2285

                     70                     71                     72
                      A                      A                      A
 Frequencies --   3062.2521              3078.2006              3087.4200
 Red. masses --      1.0586                 1.0611                 1.0931
 Frc consts  --      5.8489                 5.9239                 6.1393
 IR Inten    --     28.9231                36.0875                10.6352

                     73                     74                     75
                      A                      A                      A
 Frequencies --   3112.6225              3118.6457              3126.7969
 Red. masses --      1.0997                 1.1084                 1.1007
 Frc consts  --      6.2772                 6.3518                 6.3405
 IR Inten    --     13.7261                13.2846                23.1841

                     76                     77                     78
                      A                      A                      A
 Frequencies --   3131.7919              3134.7960              3159.2571
 Red. masses --      1.1062                 1.1027                 1.0987
 Frc consts  --      6.3928                 6.3843                 6.4612
 IR Inten    --      9.4167                19.6147                19.5003

 - Thermochemistry -
 -------------------
 Temperature   298.150 Kelvin.  Pressure   1.00000 Atm.
 Atom     1 has atomic number  6 and mass  12.00000

 Molecular mass:   214.08883 amu.
 Principal axes and moments of inertia in atomic units:
                           1         2         3
     Eigenvalues --  1848.664154356.980094612.46746
           X            0.99989   0.01382   0.00523
           Y           -0.01416   0.99721   0.07324
           Z           -0.00420  -0.07331   0.99730
 This molecule is an asymmetric top.
 Rotational symmetry number  1.
 Warning -- assumption of classical behavior for rotation
           may cause significant error
 Rotational temperatures (Kelvin)      0.04685     0.01988     0.01878
 Rotational constants (GHZ):           0.97624     0.41422     0.39127
 Zero-point vibrational energy     604320.4 (Joules/Mol)
                                  144.43603 (Kcal/Mol)
 Warning -- explicit consideration of  23 degrees of freedom as
           vibrations may cause significant error
 Vibrational temperatures:     60.14    72.38   116.49   131.26   191.68
          (Kelvin)            222.64   239.88   322.03   350.63   365.82
                              408.99   430.26   446.17   470.21   520.94
                              545.16   555.55   625.27   687.21   714.83
                              774.62   842.10   873.82   908.33   978.44
                             1099.15  1163.67  1210.15  1247.38  1335.42
                             1354.76  1388.01  1407.22  1459.53  1464.61
                             1509.12  1531.79  1617.08  1660.09  1716.96
                             1727.57  1748.86  1779.92  1811.11  1819.88
                             1843.81  1912.55  1966.36  1979.60  1995.11
                             2051.52  2061.59  2064.23  2097.47  2143.90
                             2164.80  2176.43  2181.02  2202.11  2205.17
                             2216.88  2237.89  2573.88  3299.58  4309.96
                             4331.55  4357.72  4382.11  4401.00  4405.90
                             4428.84  4442.11  4478.37  4487.04  4498.76
                             4505.95  4510.27  4545.47

 Zero-point correction=                           0.230173 (Hartree/Particle)
 Thermal correction to Energy=                    0.244670
 Thermal correction to Enthalpy=                  0.245614
 Thermal correction to Gibbs Free Energy=         0.188522
 Sum of electronic and zero-point Energies=          -1005.455629
 Sum of electronic and thermal Energies=             -1005.441132
 Sum of electronic and thermal Enthalpies=           -1005.440188
 Sum of electronic and thermal Free Energies=        -1005.497280

                     E (Thermal)             CV                S
                      KCal/Mol        Cal/Mol-Kelvin    Cal/Mol-Kelvin
 Total                  153.533             53.906            120.160
 Electronic               0.000              0.000              0.000
 Translational            0.889              2.981             41.987
 Rotational               0.889              2.981             31.985
 Vibrational            151.755             47.944             46.188
 Vibration     1          0.594              1.980              5.172
 Vibration     2          0.595              1.977              4.805
 Vibration     3          0.600              1.962              3.867
 Vibration     4          0.602              1.955              3.633
 Vibration     5          0.613              1.920              2.899
 Vibration     6          0.620              1.897              2.613
 Vibration     7          0.624              1.883              2.472
 Vibration     8          0.649              1.805              1.928
 Vibration     9          0.659              1.773              1.776
 Vibration    10          0.665              1.756              1.701
 Vibration    11          0.683              1.703              1.508
 Vibration    12          0.692              1.675              1.422
 Vibration    13          0.699              1.654              1.362
 Vibration    14          0.710              1.622              1.276
 Vibration    15          0.736              1.550              1.113
 Vibration    16          0.749              1.515              1.044
 Vibration    17          0.755              1.500              1.015
 Vibration    18          0.795              1.395              0.844
 Vibration    19          0.834              1.300              0.716
 Vibration    20          0.852              1.257              0.666
 Vibration    21          0.893              1.165              0.569
 Vibration    22          0.942              1.063              0.476
 Vibration    23          0.966              1.016              0.437

 Optimization completed.
    -- Stationary point found.
 Normal termination of Gaussian 16 at Thu Dec 10 09:51:07 2020.

 ----------------------------------------------------------------------
 # B3LYP/6-311++G(d,p) empiricaldispersion=gd3bj scf=xqc pop=npa geom=c
 heck
 ----------------------------------------------------------------------

 ---------------------------------------
 CID_150508277_JID_4415_Energie_neutraal
 ---------------------------------------
 Structure from the checkpoint file:  "JID_4415.chk"
 Charge =  0 Multiplicity = 1

 SCF Done:  E(RB3LYP) =  -1005.88287629     A.U. after   16 cycles
 Normal termination of Gaussian 16 at Thu Dec 10 09:54:39 2020.

 ----------------------------------------------------------------------
 # B3LYP/6-311++G(d,p) empiricaldispersion=gd3bj scf=xqc pop=npa geom=c
 heck
 ----------------------------------------------------------------------

 -------------------------------------
 CID_150508277_JID_4415_Energie_kation
 -------------------------------------
 Structure from the checkpoint file:  "JID_4415.chk"
 Charge =  1 Multiplicity = 2

 SCF Done:  E(UB3LYP) =  -1005.59594527     A.U. after   25 cycles
 Normal termination of Gaussian 16 at Thu Dec 10 10:02:13 2020.
 Gaussian 16:  ES64L-G16RevA.03 25-Dec-2016

 ----------------------------------------------------------------------
 # B3LYP/6-311++G(d,p) empiricaldispersion=gd3bj scf=xqc pop=npa geom=c
 heck
 ----------------------------------------------------------------------

 ------------------------------------
 CID_150508277_JID_4415_Energie_anion
 ------------------------------------
 Structure from the checkpoint file:  "JID_4415.chk"
 Charge = -1 Multiplicity = 2

                         Standard orientation:
 ---------------------------------------------------------------------
 Center     Atomic      Atomic             Coordinates (Angstroms)
 Number     Number       Type             X           Y           Z
 ---------------------------------------------------------------------
      1          6           0        2.287569    2.050725    0.914765
      2          6           0        1.473459    0.953343    0.218917
      3          6           0        1.025501   -0.075874    1.274956
      4          7           0        0.282523   -1.236726    0.786508
      5          6           0        0.595631   -1.767688   -0.532121
      6          6           0        2.087581   -1.638236   -0.813017
      7         16           0        2.622942    0.113107   -0.995618
      8          6           0       -1.062013   -1.435227    1.283547
      9          6           0       -2.025304   -0.353462    0.812175
     10          8           0       -2.298991    0.649191    1.437489
     11          7           0       -2.487799   -0.607669   -0.524044
     12          7           0       -3.172054    0.317350   -1.010999
     13          7           0       -3.801125    1.105046   -1.526355
     14          6           0        0.291086    1.579686   -0.530875
     15          1           0        3.110854    1.626436    1.496971
     16          1           0        2.712326    2.745322    0.182425
     17          1           0        1.640010    2.627144    1.587512
     18          1           0        1.923221   -0.410731    1.815283
     19          1           0        0.394428    0.448705    2.000809
     20          1           0        0.319427   -2.832099   -0.540050
     21          1           0        0.033845   -1.288416   -1.349234
     22          1           0        2.661439   -2.125863   -0.018921
     23          1           0        2.331197   -2.125607   -1.760790
     24          1           0       -1.416041   -2.417986    0.954489
     25          1           0       -1.063595   -1.405647    2.377980
     26          1           0        0.649502    2.327215   -1.245035
     27          1           0       -0.273311    0.832967   -1.092078
     28          1           0       -0.390308    2.069714    0.174770
 ---------------------------------------------------------------------

 SCF Done:  E(UB3LYP) =  -1005.88813171     A.U. after   33 cycles
 SCF Done:  E(UB3LYP) =  -1005.88813171     a.u. after    1 cycles

 The electronic state is 2-A.
 Alpha  occ. eigenvalues --  -88.72621 -18.94297 -14.31224 -14.22754 -14.21194
 Alpha  occ. eigenvalues --  -14.18580 -10.10779 -10.10513 -10.09132 -10.08939
 Alpha  occ. eigenvalues --  -10.08615 -10.07425 -10.06989 -10.04609  -7.81278
 Alpha  occ. eigenvalues --   -5.77656  -5.77321  -5.76645  -0.99144  -0.89655
 Alpha  occ. eigenvalues --   -0.81770  -0.81367  -0.72030  -0.67581  -0.61162
 Alpha  occ. eigenvalues --   -0.59217  -0.58593  -0.53821  -0.51306  -0.47933
 Alpha  occ. eigenvalues --   -0.41422  -0.38662  -0.38552  -0.37169  -0.36504
 Alpha  occ. eigenvalues --   -0.35831  -0.33742  -0.33576  -0.31649  -0.31118
 Alpha  occ. eigenvalues --   -0.29958  -0.29917  -0.29009  -0.28194  -0.27656
 Alpha  occ. eigenvalues --   -0.26799  -0.25675  -0.24565  -0.24144  -0.23542
 Alpha  occ. eigenvalues --   -0.22189  -0.19186  -0.18611  -0.13249  -0.12484
 Alpha  occ. eigenvalues --   -0.11751  -0.08123   0.05050
 Alpha virt. eigenvalues --    0.07082   0.08000   0.09155   0.09755   0.10699
 Alpha virt. eigenvalues --    0.10937   0.11130   0.11790   0.11894   0.12736
 Alpha virt. eigenvalues --    0.13494   0.14085   0.14443   0.14555   0.15369

  Beta  occ. eigenvalues --  -88.72621 -18.93887 -14.30793 -14.22272 -14.21401
  Beta  occ. eigenvalues --  -14.18512 -10.10779 -10.10090 -10.09112 -10.08935
  Beta  occ. eigenvalues --  -10.08596 -10.07458 -10.06988 -10.04604  -7.81277
  Beta  occ. eigenvalues --   -5.77656  -5.77319  -5.76644  -0.98420  -0.88926
  Beta  occ. eigenvalues --   -0.81470  -0.81263  -0.72000  -0.67535  -0.60871
  Beta  occ. eigenvalues --   -0.59168  -0.58582  -0.53460  -0.51089  -0.47810
  Beta  occ. eigenvalues --   -0.41381  -0.38462  -0.38359  -0.36732  -0.35614
  Beta  occ. eigenvalues --   -0.35180  -0.33570  -0.33027  -0.31305  -0.30810
  Beta  occ. eigenvalues --   -0.29676  -0.29474  -0.28952  -0.27923  -0.27528
  Beta  occ. eigenvalues --   -0.26499  -0.25606  -0.24528  -0.24118  -0.22305
  Beta  occ. eigenvalues --   -0.21531  -0.19098  -0.18538  -0.12278  -0.12029
  Beta  occ. eigenvalues --   -0.11744  -0.07917
  Beta virt. eigenvalues --    0.07377   0.08109   0.09331   0.09861   0.10749
  Beta virt. eigenvalues --    0.10888   0.11366   0.11807   0.11894   0.12170
  Beta virt. eigenvalues --    0.12817   0.13477   0.14074   0.14462   0.14653

 Mulliken charges and spin densities:
               1          2
     1  C   -0.304236  -0.100355
     2  C    0.761789   0.473911
     3  C   -0.506318  -0.532668
     4  N    0.125249   0.191325
     5  C   -0.244628  -0.106970
     6  C    0.002305  -0.583009
     7  S   -0.143723  -0.038933
     8  C   -0.111269  -0.285101
     9  C   -0.325327   0.418956
    10  O   -0.332255   0.137260
    11  N    0.248804  -0.085892
    12  N    0.138860   0.103830
    13  N   -0.482699   0.288977
    14  C   -0.792961  -0.103929
    15  H    0.107487   0.017897
    16  H    0.126341   0.009330
    17  H    0.127091   0.002438
    18  H    0.067024   0.090633
    19  H    0.252698  -0.043089
    20  H   -0.339315   0.495382
    21  H    0.239454  -0.102672
    22  H    0.074644   0.125080
    23  H   -0.235727   0.452981
    24  H    0.117149   0.030735
    25  H    0.077574   0.085802
    26  H    0.119401   0.011216
    27  H    0.040467   0.054363
    28  H    0.192119  -0.007500
 Sum of Mulliken charges =  -1.00000   1.00000

 Dipole moment (field-independent basis, Debye):
    X=              5.0452    Y=              0.8214    Z=              1.2193  Tot=              5.2550
 Quadrupole moment (field-independent basis, Debye-Ang):
   XX=           -145.1984   YY=           -116.7701   ZZ=           -113.9614
   XY=             12.9911   XZ=              1.9564   YZ=              0.5270

 Summary of Natural Population Analysis:

                                       Natural Population
                Natural  -----------------------------------------------
    Atom  No    Charge         Core      Valence    Rydberg      Total
 -----------------------------------------------------------------------
      C    1   -0.28790      0.99961     2.28174    0.00655     3.28790
      C    2   -0.09345      0.99956     2.08040    0.01350     3.09345
      C    3   -0.08848      0.99954     2.07596    0.01299     3.08848
      N    4   -0.28053      0.99971     2.76557    0.01525     3.78053
      C    5   -0.08511      0.99959     2.07284    0.01268     3.08511
      C    6   -0.25090      0.99958     2.24094    0.01038     3.25090
      S    7    0.07568      4.99958     2.90843    0.01632     7.92432
      C    8   -0.11743      0.99957     2.10644    0.01142     3.11743
      C    9    0.37113      0.99969     1.60229    0.02689     2.62887
      O   10   -0.28210      0.99987     3.27572    0.00651     4.28210
      N   11   -0.26834      0.99968     2.75560    0.01306     3.76834
      N   12    0.16903      0.99971     2.31467    0.01658     3.33097
      N   13    0.02735      0.99981     2.46062    0.01221     3.47265
      C   14   -0.29464      0.99960     2.28737    0.00768     3.29464
      H   15    0.10107      0.00000     0.39788    0.00105     0.39893
      H   16    0.10014      0.00000     0.39907    0.00079     0.39986
      H   17    0.10016      0.00000     0.39888    0.00096     0.39984
      H   18    0.08836      0.00000     0.41051    0.00113     0.41164
      H   19    0.10973      0.00000     0.38897    0.00130     0.39027
      H   20    0.09719      0.00000     0.40126    0.00155     0.40281
      H   21    0.08972      0.00000     0.40858    0.00170     0.41028
      H   22    0.09836      0.00000     0.39999    0.00166     0.40164
      H   23    0.10755      0.00000     0.39111    0.00134     0.39245
      H   24    0.10149      0.00000     0.39729    0.00122     0.39851
      H   25    0.09605      0.00000     0.40297    0.00098     0.40395
      H   26    0.09630      0.00000     0.40278    0.00091     0.40370
      H   27    0.10964      0.00000     0.38849    0.00187     0.39036
      H   28    0.10994      0.00000     0.38900    0.00106     0.39006
 =======================================================================
   * Total *    0.00000     17.99510    38.80537    0.19952    57.00000

 Normal termination of Gaussian 16 at Thu Dec 10 10:12:38 2020.
