 Gaussian 16, Revision A.03,

 -----------------------------------------------------------
 # opt freq B3LYP/6-31G(d) empiricaldispersion=gd3bj scf=xqc
 -----------------------------------------------------------

 ------------------------------
 CID_88721049_JID_1885_neutraal
 ------------------------------
 Symbolic Z-matrix:
 Charge =  0 Multiplicity = 1

 SCF Done:  E(RB3LYP) =  -641.624361160     A.U. after   16 cycles
 SCF Done:  E(RB3LYP) =  -641.625489396     A.U. after   13 cycles
 SCF Done:  E(RB3LYP) =  -641.630544664     A.U. after   13 cycles
 SCF Done:  E(RB3LYP) =  -641.630603606     A.U. after   11 cycles
 SCF Done:  E(RB3LYP) =  -641.630589881     A.U. after   11 cycles
 SCF Done:  E(RB3LYP) =  -641.630652836     A.U. after    9 cycles
 SCF Done:  E(RB3LYP) =  -641.630653220     A.U. after    8 cycles
 SCF Done:  E(RB3LYP) =  -641.630653478     A.U. after    8 cycles
 SCF Done:  E(RB3LYP) =  -641.630653517     A.U. after    7 cycles
 SCF Done:  E(RB3LYP) =  -641.630660272     A.U. after   12 cycles
 SCF Done:  E(RB3LYP) =  -641.641809520     A.U. after   11 cycles
 SCF Done:  E(RB3LYP) =  -641.641811185     A.U. after   11 cycles
 SCF Done:  E(RB3LYP) =  -641.641812198     A.U. after    9 cycles
 SCF Done:  E(RB3LYP) =  -641.641812533     A.U. after   10 cycles
 SCF Done:  E(RB3LYP) =  -641.641812856     A.U. after    8 cycles
 SCF Done:  E(RB3LYP) =  -641.641812933     A.U. after    8 cycles
 Optimization completed.
    -- Stationary point found.
 Normal termination of Gaussian 16 at Tue Dec  8 21:38:59 2020.

 --------------------------------------------------------------------
 #N Geom=AllCheck Guess=TCheck SCRF=Check GenChk RB3LYP/6-31G(d) Freq
 --------------------------------------------------------------------

 Structure from the checkpoint file:  "JID_1885.chk"
 ------------------------------
 CID_88721049_JID_1885_neutraal
 ------------------------------
 Charge =  0 Multiplicity = 1

 SCF Done:  E(RB3LYP) =  -641.641812933     A.U. after    1 cycles

  Exact polarizability:  83.318  -1.752  69.546  -5.681   2.977  53.631
 Approx polarizability: 125.111  -3.840  97.713 -15.949   7.079  88.189

                      1                      2                      3
                      A                      A                      A
 Frequencies --     14.8026                51.8851                71.4551
 Red. masses --      7.7181                 4.8417                 3.6087
 Frc consts  --      0.0010                 0.0077                 0.0109
 IR Inten    --      2.8733                 0.7713                 0.5009

                      4                      5                      6
                      A                      A                      A
 Frequencies --    113.9480               131.5331               173.4882
 Red. masses --      1.2167                 6.6793                 5.0575
 Frc consts  --      0.0093                 0.0681                 0.0897
 IR Inten    --      0.0739                 7.1193                 3.8121

                      7                      8                      9
                      A                      A                      A
 Frequencies --    188.6243               201.2284               242.2243
 Red. masses --      5.5684                 8.6561                 5.2432
 Frc consts  --      0.1167                 0.2065                 0.1813
 IR Inten    --      4.7394                 0.9113                 6.0891

                     10                     11                     12
                      A                      A                      A
 Frequencies --    325.7809               336.3701               386.7914
 Red. masses --      3.8947                 4.1375                 2.1076
 Frc consts  --      0.2435                 0.2758                 0.1858
 IR Inten    --     47.0404                 7.0544                36.5899

                     13                     14                     15
                      A                      A                      A
 Frequencies --    423.9080               481.6292               568.4923
 Red. masses --      4.1259                 3.2804                 2.1958
 Frc consts  --      0.4368                 0.4483                 0.4181
 IR Inten    --      3.2875                69.2865               276.9932

                     16                     17                     18
                      A                      A                      A
 Frequencies --    573.9249               658.3128               695.0697
 Red. masses --      2.9017                 1.3184                 6.6955
 Frc consts  --      0.5631                 0.3366                 1.9059
 IR Inten    --     28.9975                84.9873                 6.3038

                     19                     20                     21
                      A                      A                      A
 Frequencies --    755.1719               769.5953               788.1187
 Red. masses --      9.2221                 5.6058                 5.1322
 Frc consts  --      3.0986                 1.9562                 1.8782
 IR Inten    --     23.2994                47.4411                20.6420

                     22                     23                     24
                      A                      A                      A
 Frequencies --    820.6006               919.6402              1091.4520
 Red. masses --     10.7372                 4.1290                 4.9622
 Frc consts  --      4.2600                 2.0575                 3.4829
 IR Inten    --      9.4875                 5.6193                51.1960

                     25                     26                     27
                      A                      A                      A
 Frequencies --   1113.5634              1188.2429              1225.8939
 Red. masses --      6.3387                 1.2651                 1.5167
 Frc consts  --      4.6311                 1.0524                 1.3429
 IR Inten    --     83.6743                 1.3700                23.3404

                     28                     29                     30
                      A                      A                      A
 Frequencies --   1269.6470              1357.3860              1401.0822
 Red. masses --      3.3895                 4.2528                 1.8822
 Frc consts  --      3.2192                 4.6167                 2.1770
 IR Inten    --    303.7929               474.7639                41.5083

                     31                     32                     33
                      A                      A                      A
 Frequencies --   1434.0628              1452.4818              1473.5133
 Red. masses --      2.1184                 2.6218                 1.1210
 Frc consts  --      2.5669                 3.2589                 1.4341
 IR Inten    --     28.9054                46.0667                59.2930

                     34                     35                     36
                      A                      A                      A
 Frequencies --   1499.3649              1512.8732              1524.1493
 Red. masses --      1.2606                 1.0491                 1.0520
 Frc consts  --      1.6697                 1.4148                 1.4399
 IR Inten    --     45.8640                 5.7920                 7.3599

                     37                     38                     39
                      A                      A                      A
 Frequencies --   1791.0176              1812.3519              1853.6558
 Red. masses --     10.2373                10.2312                10.0034
 Frc consts  --     19.3479                19.7999                20.2514
 IR Inten    --    425.8332               163.0421               407.0660

                     40                     41                     42
                      A                      A                      A
 Frequencies --   3085.8521              3166.3643              3195.4509
 Red. masses --      1.0291                 1.1086                 1.1076
 Frc consts  --      5.7738                 6.5485                 6.6633
 IR Inten    --     26.0006                14.1372                11.1936

                     43                     44                     45
                      A                      A                      A
 Frequencies --   3582.2283              3599.0574              3692.1856
 Red. masses --      1.0780                 1.0768                 1.0681
 Frc consts  --      8.1504                 8.2177                 8.5788
 IR Inten    --     31.6659                61.3850                44.8535

 - Thermochemistry -
 -------------------
 Temperature   298.150 Kelvin.  Pressure   1.00000 Atm.
 Atom     1 has atomic number  6 and mass  12.00000

 Molecular mass:   162.02767 amu.
 Principal axes and moments of inertia in atomic units:
                           1         2         3
     Eigenvalues --  1086.550372148.496332556.31489
           X            0.99966  -0.02567  -0.00353
           Y            0.02565   0.99965  -0.00684
           Z            0.00370   0.00674   0.99997
 This molecule is an asymmetric top.
 Rotational symmetry number  1.
 Warning -- assumption of classical behavior for rotation
           may cause significant error
 Rotational temperatures (Kelvin)      0.07971     0.04031     0.03388
 Rotational constants (GHZ):           1.66098     0.84000     0.70599
 Zero-point vibrational energy     317097.0 (Joules/Mol)
                                   75.78799 (Kcal/Mol)
 Warning -- explicit consideration of  16 degrees of freedom as
           vibrations may cause significant error
 Vibrational temperatures:     21.30    74.65   102.81   163.95   189.25
          (Kelvin)            249.61   271.39   289.52   348.51   468.73
                              483.96   556.51   609.91   692.96   817.93
                              825.75   947.17  1000.05  1086.52  1107.28
                             1133.93  1180.66  1323.16  1570.36  1602.17
                             1709.62  1763.79  1826.74  1952.98  2015.84
                             2063.30  2089.80  2120.06  2157.25  2176.69
                             2192.91  2576.87  2607.57  2667.00  4439.85
                             4555.69  4597.54  5154.03  5178.24  5312.23

 Zero-point correction=                           0.120776 (Hartree/Particle)
 Thermal correction to Energy=                    0.132506
 Thermal correction to Enthalpy=                  0.133451
 Thermal correction to Gibbs Free Energy=         0.081069
 Sum of electronic and zero-point Energies=           -641.521037
 Sum of electronic and thermal Energies=              -641.509307
 Sum of electronic and thermal Enthalpies=            -641.508362
 Sum of electronic and thermal Free Energies=         -641.560744

                     E (Thermal)             CV                S
                      KCal/Mol        Cal/Mol-Kelvin    Cal/Mol-Kelvin
 Total                   83.149             39.559            110.246
 Electronic               0.000              0.000              0.000
 Translational            0.889              2.981             41.157
 Rotational               0.889              2.981             30.168
 Vibrational             81.372             33.597             38.921
 Vibration     1          0.593              1.986              7.232
 Vibration     2          0.596              1.977              4.744
 Vibration     3          0.598              1.968              4.113
 Vibration     4          0.607              1.938              3.201
 Vibration     5          0.612              1.922              2.924
 Vibration     6          0.627              1.875              2.397
 Vibration     7          0.633              1.856              2.241
 Vibration     8          0.638              1.838              2.122
 Vibration     9          0.658              1.776              1.786
 Vibration    10          0.710              1.624              1.281
 Vibration    11          0.717              1.603              1.229
 Vibration    12          0.755              1.498              1.012
 Vibration    13          0.786              1.418              0.879
 Vibration    14          0.838              1.291              0.706
 Vibration    15          0.924              1.099              0.507
 Vibration    16          0.930              1.088              0.497

 Optimization completed.
    -- Stationary point found.
 Normal termination of Gaussian 16 at Tue Dec  8 21:42:07 2020.

 ----------------------------------------------------------------------
 # B3LYP/6-311++G(d,p) empiricaldispersion=gd3bj scf=xqc pop=npa geom=c
 heck
 ----------------------------------------------------------------------

 --------------------------------------
 CID_88721049_JID_1885_Energie_neutraal
 --------------------------------------
 Structure from the checkpoint file:  "JID_1885.chk"
 Charge =  0 Multiplicity = 1

 SCF Done:  E(RB3LYP) =  -641.854925734     A.U. after   14 cycles
 Normal termination of Gaussian 16 at Tue Dec  8 21:43:16 2020.

 ----------------------------------------------------------------------
 # B3LYP/6-311++G(d,p) empiricaldispersion=gd3bj scf=xqc pop=npa geom=c
 heck
 ----------------------------------------------------------------------

 ------------------------------------
 CID_88721049_JID_1885_Energie_kation
 ------------------------------------
 Structure from the checkpoint file:  "JID_1885.chk"
 Charge =  1 Multiplicity = 2

 SCF Done:  E(UB3LYP) =  -641.499452571     A.U. after   24 cycles
 Normal termination of Gaussian 16 at Tue Dec  8 21:46:23 2020.
 Gaussian 16:  ES64L-G16RevA.03 25-Dec-2016

 ----------------------------------------------------------------------
 # B3LYP/6-311++G(d,p) empiricaldispersion=gd3bj scf=xqc pop=npa geom=c
 heck
 ----------------------------------------------------------------------

 -----------------------------------
 CID_88721049_JID_1885_Energie_anion
 -----------------------------------
 Structure from the checkpoint file:  "JID_1885.chk"
 Charge = -1 Multiplicity = 2

                         Standard orientation:
 ---------------------------------------------------------------------
 Center     Atomic      Atomic             Coordinates (Angstroms)
 Number     Number       Type             X           Y           Z
 ---------------------------------------------------------------------
      1          6           0        2.409892   -1.623951    0.254969
      2          8           0        1.301157   -0.708321    0.283451
      3          6           0        1.628108    0.582271    0.130133
      4          8           0        2.749278    1.034831    0.107003
      5          7           0        0.488433    1.384852    0.043388
      6          6           0       -0.836742    1.027615   -0.110416
      7          8           0       -1.740652    1.822924    0.072201
      8          6           0       -1.137983   -0.356112   -0.711019
      9          8           0       -0.727890   -0.688587   -1.806095
     10          7           0       -2.088013   -1.050299   -0.008169
     11          8           0       -2.175369   -0.803509    1.372942
     12          1           0        1.967763   -2.610894    0.385778
     13          1           0        3.106492   -1.398425    1.065118
     14          1           0        2.928865   -1.557783   -0.703839
     15          1           0        0.658537    2.375869    0.173945
     16          1           0       -2.198695   -2.034615   -0.227450
     17          1           0       -2.897747   -0.153661    1.441895
 ---------------------------------------------------------------------

 SCF Done:  E(UB3LYP) =  -641.856109423     A.U. after   30 cycles

 The electronic state is 2-A.
 Alpha  occ. eigenvalues --  -19.04707 -19.04104 -18.97326 -18.94742 -18.94036
 Alpha  occ. eigenvalues --  -14.24464 -14.21514 -10.19088 -10.11696 -10.10739
 Alpha  occ. eigenvalues --  -10.10606  -0.99049  -0.96979  -0.90274  -0.89842
 Alpha  occ. eigenvalues --   -0.88440  -0.78829  -0.71786  -0.61041  -0.53787
 Alpha  occ. eigenvalues --   -0.49391  -0.45876  -0.42746  -0.40663  -0.36924
 Alpha  occ. eigenvalues --   -0.36298  -0.34421  -0.33630  -0.31557  -0.30428
 Alpha  occ. eigenvalues --   -0.29416  -0.27774  -0.26887  -0.24803  -0.23065
 Alpha  occ. eigenvalues --   -0.20503  -0.18556  -0.17192  -0.15573  -0.14673
 Alpha  occ. eigenvalues --   -0.13392  -0.09643   0.05684
 Alpha virt. eigenvalues --    0.07809   0.09548   0.10596   0.11503   0.12227
 Alpha virt. eigenvalues --    0.12372   0.14569   0.15027   0.16340   0.18047
 Alpha virt. eigenvalues --    0.18316   0.19244   0.19662   0.19946   0.20376

  Beta  occ. eigenvalues --  -19.04672 -19.04077 -18.97217 -18.94506 -18.93589
  Beta  occ. eigenvalues --  -14.24429 -14.21569 -10.18957 -10.11472 -10.10570
  Beta  occ. eigenvalues --  -10.10309  -0.98914  -0.96850  -0.89739  -0.89564
  Beta  occ. eigenvalues --   -0.87854  -0.78620  -0.71628  -0.60934  -0.52861
  Beta  occ. eigenvalues --   -0.49096  -0.45695  -0.42639  -0.40551  -0.36611
  Beta  occ. eigenvalues --   -0.35810  -0.34215  -0.33370  -0.31410  -0.29891
  Beta  occ. eigenvalues --   -0.28937  -0.27214  -0.26070  -0.24130  -0.21974
  Beta  occ. eigenvalues --   -0.20328  -0.18248  -0.16968  -0.15308  -0.13715
  Beta  occ. eigenvalues --   -0.12686  -0.09208
  Beta virt. eigenvalues --    0.08413   0.09543   0.10706   0.11546   0.12349
  Beta virt. eigenvalues --    0.12558   0.12816   0.15002   0.15990   0.16301
  Beta virt. eigenvalues --    0.18014   0.18318   0.19377   0.19756   0.20424

 Mulliken charges and spin densities:
               1          2
     1  C    0.464865  -0.722873
     2  O   -0.178020   0.061981
     3  C    0.237454   0.049976
     4  O   -0.379772   0.042364
     5  N   -0.303935  -0.042713
     6  C   -0.078552   0.277673
     7  O   -0.435233   0.148656
     8  C    0.042845   0.163835
     9  O   -0.345286   0.075083
    10  N   -0.252638  -0.001143
    11  O   -0.141395   0.007991
    12  H   -0.259907   0.399976
    13  H   -0.119273   0.281575
    14  H   -0.041744   0.219399
    15  H    0.291163   0.016502
    16  H    0.245772   0.023853
    17  H    0.253656  -0.002134
 Sum of Mulliken charges =  -1.00000   1.00000

 Dipole moment (field-independent basis, Debye):
    X=             -1.8628    Y=             -0.3389    Z=              2.2299  Tot=              2.9253
 Quadrupole moment (field-independent basis, Debye-Ang):
   XX=            -93.4932   YY=            -83.5667   ZZ=            -79.6557
   XY=              7.7841   XZ=             -4.2155   YZ=              0.1183

 Summary of Natural Population Analysis:

                                       Natural Population
                Natural  -----------------------------------------------
    Atom  No    Charge         Core      Valence    Rydberg      Total
 -----------------------------------------------------------------------
      C    1   -0.09982      0.99960     2.09114    0.00908     3.09982
      O    2   -0.27331      0.99986     3.26453    0.00893     4.27331
      C    3    0.48180      0.99973     1.49217    0.02629     2.51820
      O    4   -0.32226      0.99987     3.31736    0.00503     4.32226
      N    5   -0.33722      0.99964     2.82803    0.00955     3.83722
      C    6    0.36717      0.99967     1.60757    0.02559     2.63283
      O    7   -0.27990      0.99988     3.27365    0.00637     4.27990
      C    8    0.33302      0.99966     1.64179    0.02553     2.66698
      O    9   -0.29389      0.99987     3.28735    0.00666     4.29389
      N   10   -0.17412      0.99962     2.65847    0.01603     3.67412
      O   11   -0.28116      0.99990     3.27336    0.00790     4.28116
      H   12    0.09087      0.00000     0.40773    0.00140     0.40913
      H   13    0.08965      0.00000     0.40912    0.00123     0.41035
      H   14    0.09011      0.00000     0.40881    0.00108     0.40989
      H   15    0.19832      0.00000     0.29985    0.00182     0.30168
      H   16    0.17768      0.00000     0.31985    0.00247     0.32232
      H   17    0.23306      0.00000     0.26427    0.00266     0.26694
 =======================================================================
   * Total *   -0.00000     10.99730    30.84508    0.15762    42.00000

 Normal termination of Gaussian 16 at Tue Dec  8 21:49:13 2020.
