 Gaussian 16, Revision A.03,

 -----------------------------------------------------------
 # opt freq B3LYP/6-31G(d) empiricaldispersion=gd3bj scf=xqc
 -----------------------------------------------------------

 ------------------------------
 CID_62855294_JID_3285_neutraal
 ------------------------------
 Symbolic Z-matrix:
 Charge =  0 Multiplicity = 1

 SCF Done:  E(RB3LYP) =  -543.121046963     A.U. after   13 cycles
 SCF Done:  E(RB3LYP) =  -543.127412739     A.U. after   11 cycles
 SCF Done:  E(RB3LYP) =  -543.122209477     A.U. after   11 cycles
 SCF Done:  E(RB3LYP) =  -543.127518483     A.U. after   11 cycles
 SCF Done:  E(RB3LYP) =  -543.129133384     A.U. after   11 cycles
 SCF Done:  E(RB3LYP) =  -543.130058894     A.U. after   10 cycles
 SCF Done:  E(RB3LYP) =  -543.130298439     A.U. after   10 cycles
 SCF Done:  E(RB3LYP) =  -543.130433353     A.U. after   10 cycles
 SCF Done:  E(RB3LYP) =  -543.130483869     A.U. after    9 cycles
 SCF Done:  E(RB3LYP) =  -543.130491939     A.U. after    9 cycles
 SCF Done:  E(RB3LYP) =  -543.130493538     A.U. after    7 cycles
 SCF Done:  E(RB3LYP) =  -543.130494090     A.U. after    7 cycles
 SCF Done:  E(RB3LYP) =  -543.130494260     A.U. after    6 cycles
 SCF Done:  E(RB3LYP) =  -543.130494356     A.U. after    6 cycles
 Optimization completed.
    -- Stationary point found.
 Normal termination of Gaussian 16 at Wed Dec  9 22:49:18 2020.

 --------------------------------------------------------------------
 #N Geom=AllCheck Guess=TCheck SCRF=Check GenChk RB3LYP/6-31G(d) Freq
 --------------------------------------------------------------------

 Structure from the checkpoint file:  "JID_3285.chk"
 ------------------------------
 CID_62855294_JID_3285_neutraal
 ------------------------------
 Charge =  0 Multiplicity = 1

 SCF Done:  E(RB3LYP) =  -543.130494356     A.U. after    1 cycles

  Exact polarizability: 143.817   0.114 127.489   0.934  -0.615 114.543
 Approx polarizability: 175.997   2.323 172.497   1.584  -2.222 173.313

                      1                      2                      3
                      A                      A                      A
 Frequencies --     43.2888                58.6655                86.7512
 Red. masses --      3.0793                 2.5351                 3.2482
 Frc consts  --      0.0034                 0.0051                 0.0144
 IR Inten    --      0.0286                 0.3612                 0.1493

                      4                      5                      6
                      A                      A                      A
 Frequencies --     97.8784               122.4590               130.6908
 Red. masses --      2.6947                 2.5851                 2.4708
 Frc consts  --      0.0152                 0.0228                 0.0249
 IR Inten    --      1.0192                 0.0984                 0.6480

                      7                      8                      9
                      A                      A                      A
 Frequencies --    162.4289               168.6695               174.4213
 Red. masses --      2.2375                 1.8933                 1.9328
 Frc consts  --      0.0348                 0.0317                 0.0346
 IR Inten    --      0.6135                 0.8588                 1.8981

                     10                     11                     12
                      A                      A                      A
 Frequencies --    200.3683               227.0199               250.2877
 Red. masses --      1.7963                 2.5588                 1.2066
 Frc consts  --      0.0425                 0.0777                 0.0445
 IR Inten    --      0.4042                 0.9104                 0.5554

                     13                     14                     15
                      A                      A                      A
 Frequencies --    256.9816               271.1301               298.7152
 Red. masses --      1.4248                 1.4874                 2.2964
 Frc consts  --      0.0554                 0.0644                 0.1207
 IR Inten    --      0.6274                 3.5529                 1.0868

                     16                     17                     18
                      A                      A                      A
 Frequencies --    330.9620               352.6837               401.2189
 Red. masses --      2.2475                 2.4254                 2.1750
 Frc consts  --      0.1450                 0.1777                 0.2063
 IR Inten    --      0.8201                 1.0728                 1.0515

                     19                     20                     21
                      A                      A                      A
 Frequencies --    407.1187               450.1641               517.2836
 Red. masses --      2.8141                 2.8756                 2.8422
 Frc consts  --      0.2748                 0.3433                 0.4481
 IR Inten    --      3.5848                 9.0198                 1.4585

                     22                     23                     24
                      A                      A                      A
 Frequencies --    645.7565               652.2754               760.3081
 Red. masses --      2.1456                 2.2921                 2.2865
 Frc consts  --      0.5272                 0.5746                 0.7788
 IR Inten    --      3.1715                 0.1209                10.0223

                     25                     26                     27
                      A                      A                      A
 Frequencies --    776.3473               795.4399               810.9554
 Red. masses --      1.6587                 1.3411                 1.2647
 Frc consts  --      0.5890                 0.5000                 0.4900
 IR Inten    --      9.0494                43.2530                 6.6818

                     28                     29                     30
                      A                      A                      A
 Frequencies --    833.2104               888.0102               892.8270
 Red. masses --      1.4228                 1.9450                 1.8414
 Frc consts  --      0.5820                 0.9037                 0.8648
 IR Inten    --      4.0462                 6.1731                 3.4704

                     31                     32                     33
                      A                      A                      A
 Frequencies --    915.7304               937.0951               942.6147
 Red. masses --      1.8095                 1.7726                 2.2546
 Frc consts  --      0.8940                 0.9171                 1.1803
 IR Inten    --      2.8348                 7.8856                 1.6385

                     34                     35                     36
                      A                      A                      A
 Frequencies --    975.6010               984.2595               998.4996
 Red. masses --      1.4530                 1.7763                 1.8725
 Frc consts  --      0.8148                 1.0139                 1.0999
 IR Inten    --      2.6510                 3.3811                 3.6049

                     37                     38                     39
                      A                      A                      A
 Frequencies --   1015.0325              1055.5706              1074.1621
 Red. masses --      2.0573                 2.5697                 2.1570
 Frc consts  --      1.2489                 1.6869                 1.4664
 IR Inten    --     16.9726                23.5862                 4.7396

                     40                     41                     42
                      A                      A                      A
 Frequencies --   1093.5988              1102.3413              1127.9633
 Red. masses --      1.6049                 1.4752                 2.6808
 Frc consts  --      1.1308                 1.0562                 2.0096
 IR Inten    --     19.3285                15.6701                 8.0112

                     43                     44                     45
                      A                      A                      A
 Frequencies --   1132.7879              1144.5563              1159.5378
 Red. masses --      2.6712                 1.8333                 1.4293
 Frc consts  --      2.0196                 1.4150                 1.1322
 IR Inten    --     24.9400                19.5984                 9.4747

                     46                     47                     48
                      A                      A                      A
 Frequencies --   1167.6152              1185.6374              1207.3000
 Red. masses --      1.7241                 2.1205                 2.0785
 Frc consts  --      1.3849                 1.7563                 1.7850
 IR Inten    --      2.2062                13.9567                11.2198

                     49                     50                     51
                      A                      A                      A
 Frequencies --   1210.7320              1232.1026              1252.7307
 Red. masses --      1.3742                 1.7272                 1.8616
 Frc consts  --      1.1869                 1.5449                 1.7213
 IR Inten    --      1.5807                16.3752                16.9406

                     52                     53                     54
                      A                      A                      A
 Frequencies --   1269.8681              1279.6540              1284.6081
 Red. masses --      1.3258                 1.1922                 1.6066
 Frc consts  --      1.2596                 1.1502                 1.5621
 IR Inten    --      2.6328                 1.8404                 6.6188

                     55                     56                     57
                      A                      A                      A
 Frequencies --   1295.1036              1302.1360              1307.3773
 Red. masses --      1.3511                 1.4428                 1.3205
 Frc consts  --      1.3352                 1.4413                 1.3298
 IR Inten    --      0.3107                 0.8543                 0.0985

                     58                     59                     60
                      A                      A                      A
 Frequencies --   1315.9708              1353.8724              1371.7801
 Red. masses --      1.2770                 1.3768                 1.5770
 Frc consts  --      1.3030                 1.4869                 1.7484
 IR Inten    --     20.2230                 4.6880                11.4649

                     61                     62                     63
                      A                      A                      A
 Frequencies --   1384.9476              1398.4311              1412.7939
 Red. masses --      1.4200                 1.3135                 1.3287
 Frc consts  --      1.6048                 1.5134                 1.5625
 IR Inten    --      8.0822                 8.4178                 5.3777

                     64                     65                     66
                      A                      A                      A
 Frequencies --   1430.2594              1443.2965              1444.9704
 Red. masses --      1.3794                 1.2731                 1.3389
 Frc consts  --      1.6626                 1.5625                 1.6470
 IR Inten    --      8.8199                 1.8967                18.5434

                     67                     68                     69
                      A                      A                      A
 Frequencies --   1482.4485              1492.0530              1501.7740
 Red. masses --      1.1792                 1.1505                 1.1920
 Frc consts  --      1.5268                 1.5091                 1.5840
 IR Inten    --      1.3033                 1.7942                14.6209

                     70                     71                     72
                      A                      A                      A
 Frequencies --   1511.6160              1512.1444              1516.3465
 Red. masses --      1.0803                 1.0846                 1.0567
 Frc consts  --      1.4544                 1.4612                 1.4315
 IR Inten    --      3.4851                 1.3511                 3.5450

                     73                     74                     75
                      A                      A                      A
 Frequencies --   1520.5940              1522.6996              1527.9226
 Red. masses --      1.0811                 1.0848                 1.0536
 Frc consts  --      1.4727                 1.4819                 1.4492
 IR Inten    --      1.6046                 7.9520                 1.0866

                     76                     77                     78
                      A                      A                      A
 Frequencies --   1532.7932              1537.0028              1543.6931
 Red. masses --      1.0539                 1.0724                 1.0867
 Frc consts  --      1.4589                 1.4926                 1.5257
 IR Inten    --      2.2520                12.5344                 4.3156

                     79                     80                     81
                      A                      A                      A
 Frequencies --   1547.4132              1548.8338              1554.5311
 Red. masses --      1.0882                 1.0568                 1.0891
 Frc consts  --      1.5352                 1.4937                 1.5506
 IR Inten    --      8.9125                 7.1152                 5.0305

                     82                     83                     84
                      A                      A                      A
 Frequencies --   2920.4974              2940.2719              2956.7032
 Red. masses --      1.0744                 1.0623                 1.0602
 Frc consts  --      5.3992                 5.4111                 5.4606
 IR Inten    --     85.9363                99.6160               130.9172

                     85                     86                     87
                      A                      A                      A
 Frequencies --   2962.1538              3024.2667              3044.7731
 Red. masses --      1.0745                 1.0837                 1.0370
 Frc consts  --      5.5550                 5.8399                 5.6641
 IR Inten    --     53.7771                22.3421                27.7314

                     88                     89                     90
                      A                      A                      A
 Frequencies --   3050.6588              3052.3070              3055.7087
 Red. masses --      1.0780                 1.0650                 1.0613
 Frc consts  --      5.9107                 5.8460                 5.8389
 IR Inten    --      1.6856                42.5186                39.8584

                     91                     92                     93
                      A                      A                      A
 Frequencies --   3058.7770              3061.5120              3067.6886
 Red. masses --      1.0715                 1.0613                 1.0815
 Frc consts  --      5.9064                 5.8611                 5.9963
 IR Inten    --     78.7065                53.2228                 6.8995

                     94                     95                     96
                      A                      A                      A
 Frequencies --   3071.5950              3074.1311              3087.0312
 Red. masses --      1.0686                 1.0732                 1.0987
 Frc consts  --      5.9398                 5.9757                 6.1692
 IR Inten    --     45.0195                48.7621                 1.2149

                     97                     98                     99
                      A                      A                      A
 Frequencies --   3100.2511              3101.8646              3111.3442
 Red. masses --      1.1028                 1.1058                 1.1020
 Frc consts  --      6.2448                 6.2688                 6.2854
 IR Inten    --     29.6375                32.7849                59.5215

                    100                    101                    102
                      A                      A                      A
 Frequencies --   3115.2981              3115.4503              3119.8963
 Red. masses --      1.1031                 1.1052                 1.1028
 Frc consts  --      6.3075                 6.3205                 6.3243
 IR Inten    --     41.1795                41.6862                30.6033

                    103                    104                    105
                      A                      A                      A
 Frequencies --   3123.3186              3150.1550              3509.9963
 Red. masses --      1.0894                 1.1004                 1.0732
 Frc consts  --      6.2614                 6.4339                 7.7903
 IR Inten    --     45.9516                20.2361                 0.2654

 - Thermochemistry -
 -------------------
 Temperature   298.150 Kelvin.  Pressure   1.00000 Atm.
 Atom     1 has atomic number  6 and mass  12.00000

 Molecular mass:   184.19395 amu.
 Principal axes and moments of inertia in atomic units:
                           1         2         3
     Eigenvalues --  1776.714233431.798734324.86797
           X            0.99998   0.00521  -0.00324
           Y           -0.00522   0.99998  -0.00210
           Z            0.00323   0.00212   0.99999
 This molecule is an asymmetric top.
 Rotational symmetry number  1.
 Warning -- assumption of classical behavior for rotation
           may cause significant error
 Rotational temperatures (Kelvin)      0.04875     0.02524     0.02003
 Rotational constants (GHZ):           1.01577     0.52589     0.41729
 Zero-point vibrational energy     909176.1 (Joules/Mol)
                                  217.29830 (Kcal/Mol)
 Warning -- explicit consideration of  21 degrees of freedom as
           vibrations may cause significant error
 Vibrational temperatures:     62.28    84.41   124.82   140.83   176.19
          (Kelvin)            188.03   233.70   242.68   250.95   288.29
                              326.63   360.11   369.74   390.10   429.78
                              476.18   507.43   577.26   585.75   647.69
                              744.26   929.10   938.48  1093.91  1116.99
                             1144.46  1166.78  1198.80  1277.65  1284.58
                             1317.53  1348.27  1356.21  1403.67  1416.13
                             1436.62  1460.41  1518.73  1545.48  1573.44
                             1586.02  1622.89  1629.83  1646.76  1668.32
                             1679.94  1705.87  1737.04  1741.97  1772.72
                             1802.40  1827.06  1841.14  1848.26  1863.37
                             1873.48  1881.02  1893.39  1947.92  1973.69
                             1992.63  2012.03  2032.70  2057.82  2076.58
                             2078.99  2132.91  2146.73  2160.72  2174.88
                             2175.64  2181.68  2187.80  2190.83  2198.34
                             2205.35  2211.40  2221.03  2226.38  2228.43
                             2236.62  4201.94  4230.40  4254.04  4261.88
                             4351.25  4380.75  4389.22  4391.59  4396.48
                             4400.90  4404.83  4413.72  4419.34  4422.99
                             4441.55  4460.57  4462.89  4476.53  4482.22
                             4482.44  4488.83  4493.76  4532.37  5050.10

 Zero-point correction=                           0.346287 (Hartree/Particle)
 Thermal correction to Energy=                    0.361813
 Thermal correction to Enthalpy=                  0.362757
 Thermal correction to Gibbs Free Energy=         0.304023
 Sum of electronic and zero-point Energies=           -542.784207
 Sum of electronic and thermal Energies=              -542.768682
 Sum of electronic and thermal Enthalpies=            -542.767738
 Sum of electronic and thermal Free Energies=         -542.826471

                     E (Thermal)             CV                S
                      KCal/Mol        Cal/Mol-Kelvin    Cal/Mol-Kelvin
 Total                  227.041             57.960            123.615
 Electronic               0.000              0.000              0.000
 Translational            0.889              2.981             41.539
 Rotational               0.889              2.981             31.645
 Vibrational            225.263             51.999             50.431
 Vibration     1          0.595              1.980              5.103
 Vibration     2          0.596              1.974              4.502
 Vibration     3          0.601              1.958              3.732
 Vibration     4          0.603              1.951              3.496
 Vibration     5          0.610              1.930              3.061
 Vibration     6          0.612              1.923              2.936
 Vibration     7          0.623              1.889              2.521
 Vibration     8          0.625              1.881              2.450
 Vibration     9          0.627              1.874              2.387
 Vibration    10          0.638              1.839              2.130
 Vibration    11          0.651              1.800              1.902
 Vibration    12          0.663              1.762              1.729
 Vibration    13          0.667              1.751              1.682
 Vibration    14          0.675              1.726              1.589
 Vibration    15          0.692              1.676              1.424
 Vibration    16          0.713              1.614              1.255
 Vibration    17          0.729              1.570              1.154
 Vibration    18          0.767              1.467              0.958
 Vibration    19          0.772              1.455              0.937
 Vibration    20          0.809              1.361              0.795
 Vibration    21          0.872              1.212              0.616

 Optimization completed.
    -- Stationary point found.
 Normal termination of Gaussian 16 at Wed Dec  9 23:00:40 2020.

 ----------------------------------------------------------------------
 # B3LYP/6-311++G(d,p) empiricaldispersion=gd3bj scf=xqc pop=npa geom=c
 heck
 ----------------------------------------------------------------------

 --------------------------------------
 CID_62855294_JID_3285_Energie_neutraal
 --------------------------------------
 Structure from the checkpoint file:  "JID_3285.chk"
 Charge =  0 Multiplicity = 1

 SCF Done:  E(RB3LYP) =  -543.283404748     A.U. after   14 cycles
 Normal termination of Gaussian 16 at Wed Dec  9 23:05:23 2020.

 ----------------------------------------------------------------------
 # B3LYP/6-311++G(d,p) empiricaldispersion=gd3bj scf=xqc pop=npa geom=c
 heck
 ----------------------------------------------------------------------

 ------------------------------------
 CID_62855294_JID_3285_Energie_kation
 ------------------------------------
 Structure from the checkpoint file:  "JID_3285.chk"
 Charge =  1 Multiplicity = 2

 SCF Done:  E(UB3LYP) =  -543.022843792     A.U. after   19 cycles
 Normal termination of Gaussian 16 at Wed Dec  9 23:13:58 2020.
 Gaussian 16:  ES64L-G16RevA.03 25-Dec-2016

 ----------------------------------------------------------------------
 # B3LYP/6-311++G(d,p) empiricaldispersion=gd3bj scf=xqc pop=npa geom=c
 heck
 ----------------------------------------------------------------------

 -----------------------------------
 CID_62855294_JID_3285_Energie_anion
 -----------------------------------
 Structure from the checkpoint file:  "JID_3285.chk"
 Charge = -1 Multiplicity = 2

                         Standard orientation:
 ---------------------------------------------------------------------
 Center     Atomic      Atomic             Coordinates (Angstroms)
 Number     Number       Type             X           Y           Z
 ---------------------------------------------------------------------
      1          6           0        3.772316   -0.132959   -0.767423
      2          6           0        2.391858   -0.781260   -0.917902
      3          6           0        1.531821   -0.727501    0.360031
      4          6           0        1.328096    0.714154    0.889126
      5          7           0        0.900750    1.666746   -0.132833
      6          6           0        0.779705    3.022205    0.390455
      7          7           0        0.336645   -1.552953    0.210036
      8          6           0       -0.132240   -2.193907    1.419436
      9          6           0       -0.703439   -1.157072   -0.744270
     10          6           0       -2.045273   -0.701488   -0.168515
     11          6           0       -2.179619    0.648440    0.585825
     12          6           0       -3.542047    0.862801   -0.121820
     13          6           0       -3.105068   -0.183264   -1.180594
     14          1           0        3.708321    0.944887   -0.576622
     15          1           0        4.369474   -0.270120   -1.675423
     16          1           0        4.327757   -0.578409    0.066726
     17          1           0        1.854803   -0.319804   -1.756404
     18          1           0        2.504563   -1.838435   -1.181105
     19          1           0        2.120531   -1.229422    1.140273
     20          1           0        0.558264    0.693285    1.670344
     21          1           0        2.262532    1.042531    1.386008
     22          1           0        1.578174    1.667938   -0.891523
     23          1           0        1.687359    3.385483    0.907511
     24          1           0        0.545964    3.712915   -0.426270
     25          1           0       -0.047198    3.060579    1.109190
     26          1           0       -0.641309   -1.523628    2.138087
     27          1           0       -0.836426   -2.995313    1.165744
     28          1           0        0.714420   -2.656163    1.940191
     29          1           0       -0.308749   -0.349993   -1.365803
     30          1           0       -0.915462   -2.006977   -1.416800
     31          1           0       -2.490802   -1.504784    0.430463
     32          1           0       -2.167192    0.624400    1.681152
     33          1           0       -1.424131    1.351120    0.228333
     34          1           0       -3.781508    1.871812   -0.472645
     35          1           0       -4.379188    0.496457    0.482330
     36          1           0       -2.624141    0.295971   -2.041785
     37          1           0       -3.854477   -0.891775   -1.548487
 ---------------------------------------------------------------------

 SCF Done:  E(UB3LYP) =  -543.267806552     A.U. after   28 cycles

 The electronic state is 2-A.
 Alpha  occ. eigenvalues --  -14.19674 -14.19239 -10.09595 -10.08472 -10.08455
 Alpha  occ. eigenvalues --  -10.08431 -10.08409 -10.06823 -10.06803 -10.06786
 Alpha  occ. eigenvalues --  -10.06271 -10.05820 -10.05596  -0.82140  -0.79803
 Alpha  occ. eigenvalues --   -0.74422  -0.68287  -0.62485  -0.61357  -0.57823
 Alpha  occ. eigenvalues --   -0.55669  -0.54664  -0.52686  -0.49963  -0.45614
 Alpha  occ. eigenvalues --   -0.44268  -0.39795  -0.38763  -0.38019  -0.36879
 Alpha  occ. eigenvalues --   -0.35798  -0.34630  -0.33623  -0.32465  -0.32015
 Alpha  occ. eigenvalues --   -0.30320  -0.29559  -0.28668  -0.28230  -0.27761
 Alpha  occ. eigenvalues --   -0.27121  -0.26452  -0.25519  -0.25460  -0.23621
 Alpha  occ. eigenvalues --   -0.22690  -0.22387  -0.21654  -0.20628  -0.20199
 Alpha  occ. eigenvalues --   -0.12974  -0.09535   0.04436
 Alpha virt. eigenvalues --    0.06341   0.06752   0.07383   0.08289   0.08676
 Alpha virt. eigenvalues --    0.08814   0.09477   0.09788   0.10595   0.10978
 Alpha virt. eigenvalues --    0.11099   0.11948   0.12123   0.12439   0.12771

  Beta  occ. eigenvalues --  -14.19658 -14.19238 -10.09587 -10.08439 -10.08433
  Beta  occ. eigenvalues --  -10.08416 -10.08403 -10.06815 -10.06796 -10.06775
  Beta  occ. eigenvalues --  -10.06261 -10.05777 -10.05584  -0.82126  -0.79782
  Beta  occ. eigenvalues --   -0.74407  -0.68258  -0.62457  -0.61318  -0.57772
  Beta  occ. eigenvalues --   -0.55639  -0.54613  -0.52617  -0.49913  -0.45578
  Beta  occ. eigenvalues --   -0.44237  -0.39757  -0.38727  -0.37985  -0.36855
  Beta  occ. eigenvalues --   -0.35766  -0.34599  -0.33600  -0.32414  -0.31988
  Beta  occ. eigenvalues --   -0.30292  -0.29528  -0.28645  -0.28204  -0.27726
  Beta  occ. eigenvalues --   -0.27085  -0.26420  -0.25488  -0.25432  -0.23597
  Beta  occ. eigenvalues --   -0.22667  -0.22359  -0.21632  -0.20607  -0.20180
  Beta  occ. eigenvalues --   -0.12942  -0.09521
  Beta virt. eigenvalues --    0.06387   0.07163   0.07322   0.07808   0.08682
  Beta virt. eigenvalues --    0.09126   0.09227   0.09820   0.10094   0.10918
  Beta virt. eigenvalues --    0.11389   0.11495   0.12238   0.12404   0.12820

 Mulliken charges and spin densities:
               1          2
     1  C    1.071362  -1.751679
     2  C   -0.794873   0.802337
     3  C   -0.906774   0.091397
     4  C    0.583866  -0.910707
     5  N   -0.259293   0.129998
     6  C    0.552048  -0.881545
     7  N    0.255695   0.071586
     8  C    0.465329  -0.759433
     9  C    0.029756  -0.524326
    10  C    0.203593   0.452117
    11  C   -0.710194   0.147835
    12  C    0.327336  -0.595258
    13  C   -0.418131  -0.144324
    14  H   -0.314080   0.464204
    15  H   -0.450508   0.599166
    16  H   -0.217258   0.359503
    17  H   -0.006090   0.147304
    18  H   -0.019445   0.191680
    19  H   -0.129918   0.274268
    20  H    0.145442   0.016426
    21  H   -0.116028   0.258593
    22  H    0.196969   0.044552
    23  H   -0.328212   0.450649
    24  H   -0.342300   0.483709
    25  H   -0.176208   0.305864
    26  H   -0.128908   0.272594
    27  H   -0.054286   0.186983
    28  H   -0.219979   0.354470
    29  H    0.200549  -0.064307
    30  H    0.004028   0.145763
    31  H    0.070879   0.092269
    32  H   -0.233378   0.360014
    33  H    0.904420  -0.781612
    34  H   -0.091731   0.231550
    35  H   -0.061723   0.193835
    36  H   -0.011737   0.132092
    37  H   -0.020219   0.152434
 Sum of Mulliken charges =  -1.00000   1.00000

 Dipole moment (field-independent basis, Debye):
    X=             -3.9961    Y=             -1.7240    Z=             -0.7753  Tot=              4.4207
 Quadrupole moment (field-independent basis, Debye-Ang):
   XX=           -160.0174   YY=           -137.2556   ZZ=           -122.4101
   XY=             -2.9266   XZ=              3.7296   YZ=              1.8736

 Summary of Natural Population Analysis:

                                       Natural Population
                Natural  -----------------------------------------------
    Atom  No    Charge         Core      Valence    Rydberg      Total
 -----------------------------------------------------------------------
      C    1   -0.28776      0.99966     2.28263    0.00546     3.28776
      C    2   -0.19708      0.99961     2.18737    0.01010     3.19708
      C    3    0.00156      0.99956     1.98415    0.01473     2.99844
      C    4   -0.09732      0.99960     2.08584    0.01188     3.09732
      N    5   -0.34501      0.99975     2.83379    0.01148     3.84501
      C    6   -0.17753      0.99966     2.16932    0.00854     3.17753
      N    7   -0.28699      0.99971     2.77320    0.01409     3.78699
      C    8   -0.17487      0.99964     2.16652    0.00871     3.17487
      C    9   -0.08087      0.99957     2.07098    0.01031     3.08087
      C   10   -0.11575      0.99960     2.10480    0.01135     3.11575
      C   11   -0.19705      0.99961     2.18786    0.00958     3.19705
      C   12   -0.18705      0.99965     2.18050    0.00690     3.18705
      C   13   -0.18396      0.99963     2.17743    0.00690     3.18396
      H   14    0.09594      0.00000     0.40230    0.00176     0.40406
      H   15    0.10047      0.00000     0.39840    0.00114     0.39953
      H   16    0.09748      0.00000     0.40119    0.00133     0.40252
      H   17    0.09371      0.00000     0.40485    0.00145     0.40629
      H   18    0.10237      0.00000     0.39611    0.00153     0.39763
      H   19    0.09561      0.00000     0.40282    0.00157     0.40439
      H   20    0.09590      0.00000     0.40253    0.00157     0.40410
      H   21    0.08267      0.00000     0.41586    0.00147     0.41733
      H   22    0.17341      0.00000     0.32310    0.00349     0.32659
      H   23    0.08131      0.00000     0.41705    0.00164     0.41869
      H   24    0.09487      0.00000     0.40412    0.00100     0.40513
      H   25    0.09049      0.00000     0.40821    0.00129     0.40951
      H   26    0.08072      0.00000     0.41778    0.00150     0.41928
      H   27    0.09268      0.00000     0.40632    0.00099     0.40732
      H   28    0.09449      0.00000     0.40446    0.00105     0.40551
      H   29    0.10223      0.00000     0.39555    0.00222     0.39777
      H   30    0.08548      0.00000     0.41332    0.00120     0.41452
      H   31    0.09422      0.00000     0.40430    0.00148     0.40578
      H   32    0.09368      0.00000     0.40485    0.00147     0.40632
      H   33    0.10977      0.00000     0.38770    0.00252     0.39023
      H   34    0.09291      0.00000     0.40602    0.00107     0.40709
      H   35    0.09227      0.00000     0.40633    0.00140     0.40773
      H   36    0.09409      0.00000     0.40441    0.00149     0.40591
      H   37    0.09291      0.00000     0.40593    0.00115     0.40709
 =======================================================================
   * Total *   -0.00000     12.99524    38.83793    0.16683    52.00000

 Normal termination of Gaussian 16 at Wed Dec  9 23:26:13 2020.
