 Gaussian 16, Revision A.03,

 -----------------------------------------------------------
 # opt freq B3LYP/6-31G(d) empiricaldispersion=gd3bj scf=xqc
 -----------------------------------------------------------

 ------------------------------
 CID_21329204_JID_5527_neutraal
 ------------------------------
 Symbolic Z-matrix:
 Charge =  0 Multiplicity = 1

 SCF Done:  E(RB3LYP) =  -723.505694712     A.U. after   15 cycles
 SCF Done:  E(RB3LYP) =  -723.510113210     A.U. after   13 cycles
 SCF Done:  E(RB3LYP) =  -723.509627901     A.U. after   13 cycles
 SCF Done:  E(RB3LYP) =  -723.511324956     A.U. after   12 cycles
 SCF Done:  E(RB3LYP) =  -723.511616468     A.U. after   12 cycles
 SCF Done:  E(RB3LYP) =  -723.511935678     A.U. after   14 cycles
 SCF Done:  E(RB3LYP) =  -723.512336790     A.U. after   12 cycles
 SCF Done:  E(RB3LYP) =  -723.512479206     A.U. after   11 cycles
 SCF Done:  E(RB3LYP) =  -723.512512368     A.U. after   11 cycles
 SCF Done:  E(RB3LYP) =  -723.512517523     A.U. after    9 cycles
 SCF Done:  E(RB3LYP) =  -723.512703016     A.U. after   13 cycles
 SCF Done:  E(RB3LYP) =  -723.512728825     A.U. after   11 cycles
 SCF Done:  E(RB3LYP) =  -723.512731431     A.U. after   10 cycles
 SCF Done:  E(RB3LYP) =  -723.512732090     A.U. after    9 cycles
 SCF Done:  E(RB3LYP) =  -723.512732215     A.U. after    7 cycles
 SCF Done:  E(RB3LYP) =  -723.512732242     A.U. after    7 cycles
 Optimization completed.
    -- Stationary point found.
 Normal termination of Gaussian 16 at Thu Dec 10 16:42:36 2020.

 --------------------------------------------------------------------
 #N Geom=AllCheck Guess=TCheck SCRF=Check GenChk RB3LYP/6-31G(d) Freq
 --------------------------------------------------------------------

 Structure from the checkpoint file:  "JID_5527.chk"
 ------------------------------
 CID_21329204_JID_5527_neutraal
 ------------------------------
 Charge =  0 Multiplicity = 1

 SCF Done:  E(RB3LYP) =  -723.512732242     A.U. after    1 cycles

  Exact polarizability: 183.614   1.878 111.643  -4.488  -2.835  78.659
 Approx polarizability: 236.267  10.019 194.097 -14.697  -8.853 129.896

                      1                      2                      3
                      A                      A                      A
 Frequencies --     23.7170                30.1695                46.6656
 Red. masses --      5.2136                 3.6308                 1.9222
 Frc consts  --      0.0017                 0.0019                 0.0025
 IR Inten    --      0.7872                 0.3375                 0.7067

                      4                      5                      6
                      A                      A                      A
 Frequencies --     48.4050                65.7596                90.1052
 Red. masses --      1.5781                 3.3657                 3.8840
 Frc consts  --      0.0022                 0.0086                 0.0186
 IR Inten    --      0.5277                 2.5531                 0.0429

                      7                      8                      9
                      A                      A                      A
 Frequencies --    102.7704               121.1339               197.6161
 Red. masses --      5.0668                 4.9897                 6.8947
 Frc consts  --      0.0315                 0.0431                 0.1586
 IR Inten    --      0.9241                 0.7604                 1.6010

                     10                     11                     12
                      A                      A                      A
 Frequencies --    210.9216               269.0331               279.0852
 Red. masses --      1.1960                 4.4645                 5.1550
 Frc consts  --      0.0313                 0.1904                 0.2366
 IR Inten    --      3.8370                 1.3457                 2.1479

                     13                     14                     15
                      A                      A                      A
 Frequencies --    315.1414               365.2552               386.6513
 Red. masses --      2.1208                 3.6858                 2.9796
 Frc consts  --      0.1241                 0.2897                 0.2625
 IR Inten    --      9.5187                 3.5795                 6.4193

                     16                     17                     18
                      A                      A                      A
 Frequencies --    411.7136               448.8195               454.8196
 Red. masses --      3.5603                 4.6133                 3.5799
 Frc consts  --      0.3556                 0.5475                 0.4363
 IR Inten    --     13.2065                 1.6839                 3.5210

                     19                     20                     21
                      A                      A                      A
 Frequencies --    469.2986               582.9597               596.8459
 Red. masses --      4.2339                 5.7168                 3.4490
 Frc consts  --      0.5494                 1.1447                 0.7239
 IR Inten    --      1.8952                20.2137                 3.1619

                     22                     23                     24
                      A                      A                      A
 Frequencies --    650.4197               656.9818               691.6394
 Red. masses --      6.6545                 6.8458                 4.2152
 Frc consts  --      1.6586                 1.7409                 1.1880
 IR Inten    --      2.5350                 2.5624                19.2768

                     25                     26                     27
                      A                      A                      A
 Frequencies --    781.2975               800.7772               847.5461
 Red. masses --      3.8990                 1.4196                 5.2370
 Frc consts  --      1.4023                 0.5364                 2.2164
 IR Inten    --      0.2298                 3.8383                 2.7965

                     28                     29                     30
                      A                      A                      A
 Frequencies --    859.9186               875.1370               913.7427
 Red. masses --      2.2193                 5.4300                 1.5177
 Frc consts  --      0.9669                 2.4502                 0.7466
 IR Inten    --      7.4948                 8.3979                 4.6292

                     31                     32                     33
                      A                      A                      A
 Frequencies --    944.7700               962.3704               981.0203
 Red. masses --      3.0348                 1.3638                 2.4175
 Frc consts  --      1.5960                 0.7442                 1.3708
 IR Inten    --     18.8655                 0.1518                 2.1238

                     34                     35                     36
                      A                      A                      A
 Frequencies --   1019.4987              1032.0174              1059.0684
 Red. masses --      1.6546                 3.4652                 3.7150
 Frc consts  --      1.0132                 2.1745                 2.4550
 IR Inten    --     22.0033                97.6332                42.5489

                     37                     38                     39
                      A                      A                      A
 Frequencies --   1067.4183              1073.0593              1134.6079
 Red. masses --      3.1930                 1.6214                 1.9718
 Frc consts  --      2.1435                 1.1000                 1.4955
 IR Inten    --     38.7695                 6.5360                31.8104

                     40                     41                     42
                      A                      A                      A
 Frequencies --   1177.9446              1211.3397              1234.9069
 Red. masses --      1.4587                 1.7140                 4.1443
 Frc consts  --      1.1925                 1.4818                 3.7237
 IR Inten    --    119.6408                 6.6063               102.4646

                     43                     44                     45
                      A                      A                      A
 Frequencies --   1268.5595              1292.1429              1305.6777
 Red. masses --      6.5210                 1.9634                 2.2874
 Frc consts  --      6.1828                 1.9314                 2.2976
 IR Inten    --      4.5595                21.4558               173.4420

                     46                     47                     48
                      A                      A                      A
 Frequencies --   1342.0560              1346.0775              1363.6884
 Red. masses --      1.1794                 1.6153                 1.9476
 Frc consts  --      1.2516                 1.7244                 2.1339
 IR Inten    --     20.5706               167.4919                32.9595

                     49                     50                     51
                      A                      A                      A
 Frequencies --   1367.4154              1420.3199              1439.4846
 Red. masses --      4.5554                 1.3118                 1.2679
 Frc consts  --      5.0186                 1.5592                 1.5479
 IR Inten    --    117.5941                12.0273                 3.4334

                     52                     53                     54
                      A                      A                      A
 Frequencies --   1446.5899              1475.5567              1504.0198
 Red. masses --      1.3042                 1.1374                 1.0447
 Frc consts  --      1.6080                 1.4590                 1.3924
 IR Inten    --     14.6430                19.8697                 6.7951

                     55                     56                     57
                      A                      A                      A
 Frequencies --   1512.8623              1514.8709              1520.3247
 Red. masses --      1.1215                 1.0456                 1.0744
 Frc consts  --      1.5123                 1.4138                 1.4632
 IR Inten    --     13.2104                 6.3308                 2.0840

                     58                     59                     60
                      A                      A                      A
 Frequencies --   1528.5496              1533.0353              1586.8428
 Red. masses --      2.4876                 1.0705                 7.3100
 Frc consts  --      3.4244                 1.4823                10.8451
 IR Inten    --      2.3595                17.9124                31.0637

                     61                     62                     63
                      A                      A                      A
 Frequencies --   1624.2724              1802.5219              1839.1591
 Red. masses --      5.1247                11.8404                11.0347
 Frc consts  --      7.9660                22.6662                21.9912
 IR Inten    --     30.3733               137.2571               239.5829

                     64                     65                     66
                      A                      A                      A
 Frequencies --   3060.9399              3064.8931              3072.2098
 Red. masses --      1.0361                 1.0374                 1.0602
 Frc consts  --      5.7196                 5.7418                 5.8957
 IR Inten    --      9.1585                15.8893                 9.7122

                     67                     68                     69
                      A                      A                      A
 Frequencies --   3095.8593              3121.4930              3125.5633
 Red. masses --      1.0585                 1.1008                 1.1027
 Frc consts  --      5.9771                 6.3194                 6.3468
 IR Inten    --     31.9633                 7.1925                 2.3096

                     70                     71                     72
                      A                      A                      A
 Frequencies --   3134.0877              3142.9066              3145.8470
 Red. masses --      1.1013                 1.1052                 1.1031
 Frc consts  --      6.3736                 6.4319                 6.4319
 IR Inten    --     28.3388                 9.4807                10.5908

                     73                     74                     75
                      A                      A                      A
 Frequencies --   3164.1089              3176.6960              3195.3409
 Red. masses --      1.1064                 1.0916                 1.0908
 Frc consts  --      6.5261                 6.4901                 6.5617
 IR Inten    --     24.5651                32.7163                15.3010

 - Thermochemistry -
 -------------------
 Temperature   298.150 Kelvin.  Pressure   1.00000 Atm.
 Atom     1 has atomic number  6 and mass  12.00000

 Molecular mass:   208.08479 amu.
 Principal axes and moments of inertia in atomic units:
                           1         2         3
     Eigenvalues --   931.448937471.775447949.74099
           X            0.99997   0.00741   0.00274
           Y           -0.00740   0.99997  -0.00265
           Z           -0.00276   0.00263   0.99999
 This molecule is an asymmetric top.
 Rotational symmetry number  1.
 Warning -- assumption of classical behavior for rotation
           may cause significant error
 Rotational temperatures (Kelvin)      0.09299     0.01159     0.01090
 Rotational constants (GHZ):           1.93756     0.24154     0.22702
 Zero-point vibrational energy     562402.4 (Joules/Mol)
                                  134.41740 (Kcal/Mol)
 Warning -- explicit consideration of  21 degrees of freedom as
           vibrations may cause significant error
 Vibrational temperatures:     34.12    43.41    67.14    69.64    94.61
          (Kelvin)            129.64   147.86   174.28   284.33   303.47
                              387.08   401.54   453.42   525.52   556.30
                              592.36   645.75   654.38   675.22   838.75
                              858.73   935.81   945.25   995.11  1124.11
                             1152.14  1219.43  1237.23  1259.13  1314.67
                             1359.31  1384.64  1411.47  1466.83  1484.84
                             1523.76  1535.78  1543.89  1632.45  1694.80
                             1742.85  1776.76  1825.17  1859.11  1878.58
                             1930.92  1936.71  1962.04  1967.41  2043.52
                             2071.10  2081.32  2123.00  2163.95  2176.67
                             2179.56  2187.41  2199.24  2205.70  2283.11
                             2336.97  2593.43  2646.14  4404.01  4409.70
                             4420.22  4454.25  4491.13  4496.99  4509.25
                             4521.94  4526.17  4552.45  4570.56  4597.38

 Zero-point correction=                           0.214208 (Hartree/Particle)
 Thermal correction to Energy=                    0.229220
 Thermal correction to Enthalpy=                  0.230165
 Thermal correction to Gibbs Free Energy=         0.168915
 Sum of electronic and zero-point Energies=           -723.298524
 Sum of electronic and thermal Energies=              -723.283512
 Sum of electronic and thermal Enthalpies=            -723.282568
 Sum of electronic and thermal Free Energies=         -723.343817

                     E (Thermal)             CV                S
                      KCal/Mol        Cal/Mol-Kelvin    Cal/Mol-Kelvin
 Total                  143.838             52.872            128.909
 Electronic               0.000              0.000              0.000
 Translational            0.889              2.981             41.902
 Rotational               0.889              2.981             32.381
 Vibrational            142.060             46.911             54.626
 Vibration     1          0.593              1.985              6.296
 Vibration     2          0.594              1.984              5.818
 Vibration     3          0.595              1.979              4.954
 Vibration     4          0.595              1.978              4.882
 Vibration     5          0.597              1.971              4.276
 Vibration     6          0.602              1.956              3.658
 Vibration     7          0.605              1.947              3.401
 Vibration     8          0.609              1.932              3.082
 Vibration     9          0.637              1.843              2.155
 Vibration    10          0.643              1.824              2.036
 Vibration    11          0.673              1.730              1.602
 Vibration    12          0.679              1.712              1.539
 Vibration    13          0.703              1.645              1.335
 Vibration    14          0.738              1.544              1.100
 Vibration    15          0.755              1.499              1.013
 Vibration    16          0.776              1.445              0.921
 Vibration    17          0.808              1.363              0.799
 Vibration    18          0.813              1.350              0.781
 Vibration    19          0.826              1.318              0.740
 Vibration    20          0.940              1.068              0.480
 Vibration    21          0.955              1.038              0.455

                           ! Non-Optimized Parameters !
 Normal termination of Gaussian 16 at Thu Dec 10 16:49:33 2020.

 ----------------------------------------------------------------------
 # B3LYP/6-311++G(d,p) empiricaldispersion=gd3bj scf=xqc pop=npa geom=c
 heck
 ----------------------------------------------------------------------

 --------------------------------------
 CID_21329204_JID_5527_Energie_neutraal
 --------------------------------------
 Structure from the checkpoint file:  "JID_5527.chk"
 Charge =  0 Multiplicity = 1

 SCF Done:  E(RB3LYP) =  -723.716034577     A.U. after   14 cycles
 Normal termination of Gaussian 16 at Thu Dec 10 16:54:12 2020.

 ----------------------------------------------------------------------
 # B3LYP/6-311++G(d,p) empiricaldispersion=gd3bj scf=xqc pop=npa geom=c
 heck
 ----------------------------------------------------------------------

 ------------------------------------
 CID_21329204_JID_5527_Energie_kation
 ------------------------------------
 Structure from the checkpoint file:  "JID_5527.chk"
 Charge =  1 Multiplicity = 2

 SCF Done:  E(UB3LYP) =  -723.382744682     A.U. after   28 cycles
 Normal termination of Gaussian 16 at Thu Dec 10 17:05:11 2020.
 Gaussian 16:  ES64L-G16RevA.03 25-Dec-2016

 ----------------------------------------------------------------------
 # B3LYP/6-311++G(d,p) empiricaldispersion=gd3bj scf=xqc pop=npa geom=c
 heck
 ----------------------------------------------------------------------

 -----------------------------------
 CID_21329204_JID_5527_Energie_anion
 -----------------------------------
 Structure from the checkpoint file:  "JID_5527.chk"
 Charge = -1 Multiplicity = 2

                         Standard orientation:
 ---------------------------------------------------------------------
 Center     Atomic      Atomic             Coordinates (Angstroms)
 Number     Number       Type             X           Y           Z
 ---------------------------------------------------------------------
      1          6           0       -4.422417   -1.470490   -0.164448
      2          6           0       -4.371156   -0.086041   -0.789427
      3          8           0       -3.002189    0.379540   -0.879319
      4          6           0       -2.482238    0.907532    0.243279
      5          8           0       -3.100827    1.141333    1.256583
      6          6           0       -0.997600    1.149494    0.069261
      7          6           0       -0.227951   -0.162430    0.260929
      8          8           0       -0.800414   -1.199705    0.521896
      9          6           0        1.270363   -0.108606    0.117769
     10          7           0        1.929790   -1.269275    0.272386
     11          6           0        3.250498   -1.227906    0.148509
     12          6           0        3.955309   -0.041684   -0.129982
     13          7           0        3.296428    1.115033   -0.283642
     14          6           0        1.966673    1.074040   -0.159813
     15          6           0        5.450530   -0.015675   -0.265472
     16          1           0       -3.798903   -2.170820   -0.727872
     17          1           0       -5.454099   -1.840138   -0.162066
     18          1           0       -4.060220   -1.437572    0.865981
     19          1           0       -4.722062   -0.092180   -1.823764
     20          1           0       -4.950985    0.637887   -0.211936
     21          1           0       -0.790265    1.551424   -0.928945
     22          1           0       -0.671459    1.883886    0.812457
     23          1           0        3.784903   -2.168034    0.273223
     24          1           0        1.449487    2.021421   -0.286958
     25          1           0        5.885695    0.667785    0.471787
     26          1           0        5.885032   -1.009006   -0.124163
     27          1           0        5.734726    0.356290   -1.255862
 ---------------------------------------------------------------------

 SCF Done:  E(UB3LYP) =  -723.748958766     A.U. after   23 cycles

 The electronic state is 2-A.
 Alpha  occ. eigenvalues --  -19.05938 -19.00027 -18.93390 -14.15879 -14.14102
 Alpha  occ. eigenvalues --  -10.18954 -10.13333 -10.08472 -10.06900 -10.06295
 Alpha  occ. eigenvalues --  -10.05718 -10.05485 -10.05060 -10.04386 -10.04085
 Alpha  occ. eigenvalues --   -0.99920  -0.91262  -0.87868  -0.81833  -0.74518
 Alpha  occ. eigenvalues --   -0.68338  -0.65038  -0.63152  -0.57998  -0.55087
 Alpha  occ. eigenvalues --   -0.50189  -0.49071  -0.45654  -0.42024  -0.38796
 Alpha  occ. eigenvalues --   -0.38315  -0.37074  -0.36329  -0.34748  -0.33242
 Alpha  occ. eigenvalues --   -0.32465  -0.31266  -0.30483  -0.30010  -0.29399
 Alpha  occ. eigenvalues --   -0.27957  -0.27201  -0.26500  -0.25671  -0.25531
 Alpha  occ. eigenvalues --   -0.24183  -0.23706  -0.21817  -0.19979  -0.17270
 Alpha  occ. eigenvalues --   -0.16926  -0.14836  -0.11829  -0.10006  -0.08609
 Alpha  occ. eigenvalues --    0.03130
 Alpha virt. eigenvalues --    0.07164   0.08609   0.09218   0.10130   0.10316
 Alpha virt. eigenvalues --    0.10417   0.11190   0.11649   0.12137   0.12591
 Alpha virt. eigenvalues --    0.13111   0.13442   0.14413   0.14705   0.16012

  Beta  occ. eigenvalues --  -19.05938 -19.00027 -18.92916 -14.15708 -14.13511
  Beta  occ. eigenvalues --  -10.18953 -10.13333 -10.08219 -10.06899 -10.06339
  Beta  occ. eigenvalues --  -10.05740 -10.05619 -10.04669 -10.04420 -10.03918
  Beta  occ. eigenvalues --   -0.99919  -0.91263  -0.87023  -0.81273  -0.73700
  Beta  occ. eigenvalues --   -0.68311  -0.64652  -0.62970  -0.57718  -0.55053
  Beta  occ. eigenvalues --   -0.50064  -0.48399  -0.45572  -0.41656  -0.38696
  Beta  occ. eigenvalues --   -0.38156  -0.36939  -0.36177  -0.34587  -0.33179
  Beta  occ. eigenvalues --   -0.32260  -0.30763  -0.30050  -0.29799  -0.29245
  Beta  occ. eigenvalues --   -0.27849  -0.27106  -0.26319  -0.25199  -0.24646
  Beta  occ. eigenvalues --   -0.24117  -0.23478  -0.20472  -0.19293  -0.16911
  Beta  occ. eigenvalues --   -0.15310  -0.14380  -0.10256  -0.09491  -0.08132
  Beta virt. eigenvalues --    0.07152   0.08575   0.09199   0.10030   0.10275
  Beta virt. eigenvalues --    0.10371   0.10948   0.11179   0.11693   0.12405
  Beta virt. eigenvalues --    0.12576   0.13091   0.13475   0.14390   0.14698

 Mulliken charges and spin densities:
               1          2
     1  C   -0.414165  -0.002598
     2  C   -0.125812   0.000733
     3  O    0.035788  -0.002517
     4  C   -0.615717   0.012471
     5  O   -0.238169  -0.000819
     6  C    0.073043  -0.009702
     7  C   -0.093207   0.142379
     8  O   -0.304313   0.171941
     9  C    0.006039   0.119897
    10  N   -0.083091   0.283570
    11  C    0.046826  -0.090244
    12  C   -0.041894   0.250484
    13  N   -0.071025   0.085705
    14  C   -0.332726  -0.011757
    15  C   -0.575297  -0.032013
    16  H    0.157473   0.002763
    17  H    0.102656   0.000278
    18  H    0.204373   0.000740
    19  H    0.144254  -0.000987
    20  H    0.141706   0.000099
    21  H    0.151986   0.011046
    22  H    0.148967   0.012582
    23  H    0.139671   0.004711
    24  H    0.196650   0.001930
    25  H    0.116755   0.024613
    26  H    0.113747  -0.000093
    27  H    0.115481   0.024787
 Sum of Mulliken charges =  -1.00000   1.00000

 Dipole moment (field-independent basis, Debye):
    X=             -4.5707    Y=              1.3714    Z=             -2.4822  Tot=              5.3789
 Quadrupole moment (field-independent basis, Debye-Ang):
   XX=           -126.3238   YY=           -104.4093   ZZ=            -98.5241
   XY=             -2.4272   XZ=              9.3208   YZ=              0.8387

 Summary of Natural Population Analysis:

                                       Natural Population
                Natural  -----------------------------------------------
    Atom  No    Charge         Core      Valence    Rydberg      Total
 -----------------------------------------------------------------------
      C    1   -0.30002      0.99967     2.29573    0.00462     3.30002
      C    2   -0.01637      0.99959     2.00697    0.00980     3.01637
      O    3   -0.28295      0.99986     3.27279    0.01030     4.28295
      C    4    0.42263      0.99971     1.55084    0.02681     2.57737
      O    5   -0.31644      0.99987     3.31005    0.00652     4.31644
      C    6   -0.28067      0.99956     2.27398    0.00714     3.28067
      C    7    0.29947      0.99966     1.67928    0.02158     2.70053
      O    8   -0.23810      0.99987     3.23070    0.00753     4.23810
      C    9    0.05085      0.99950     1.93671    0.01295     2.94915
      N   10   -0.11270      0.99968     2.60069    0.01233     3.61270
      C   11   -0.02717      0.99955     2.01393    0.01369     3.02717
      C   12    0.14657      0.99957     1.83834    0.01552     2.85343
      N   13   -0.22449      0.99968     2.71112    0.01369     3.72449
      C   14    0.00818      0.99956     1.97953    0.01272     2.99182
      C   15   -0.29955      0.99965     2.29485    0.00505     3.29955
      H   16    0.10599      0.00000     0.39308    0.00092     0.39401
      H   17    0.09167      0.00000     0.40745    0.00088     0.40833
      H   18    0.11272      0.00000     0.38622    0.00107     0.38728
      H   19    0.08412      0.00000     0.41476    0.00112     0.41588
      H   20    0.09088      0.00000     0.40760    0.00152     0.40912
      H   21    0.11323      0.00000     0.38543    0.00134     0.38677
      H   22    0.11377      0.00000     0.38496    0.00126     0.38623
      H   23    0.07871      0.00000     0.41970    0.00159     0.42129
      H   24    0.08169      0.00000     0.41650    0.00181     0.41831
      H   25    0.10279      0.00000     0.39615    0.00106     0.39721
      H   26    0.09252      0.00000     0.40655    0.00093     0.40748
      H   27    0.10267      0.00000     0.39627    0.00106     0.39733
 =======================================================================
   * Total *    0.00000     14.99497    39.81021    0.19483    55.00000

 Normal termination of Gaussian 16 at Thu Dec 10 17:13:06 2020.
