 Gaussian 16, Revision A.03,

 -----------------------------------------------------------
 # opt freq B3LYP/6-31G(d) empiricaldispersion=gd3bj scf=xqc
 -----------------------------------------------------------

 ------------------------------
 CID_87291276_JID_3379_neutraal
 ------------------------------
 Symbolic Z-matrix:
 Charge =  0 Multiplicity = 1

 SCF Done:  E(RB3LYP) =  -582.898026551     A.U. after   14 cycles
 SCF Done:  E(RB3LYP) =  -582.900232294     A.U. after   12 cycles
 SCF Done:  E(RB3LYP) =  -582.897738590     A.U. after   13 cycles
 SCF Done:  E(RB3LYP) =  -582.900597072     A.U. after   11 cycles
 SCF Done:  E(RB3LYP) =  -582.900708211     A.U. after   11 cycles
 SCF Done:  E(RB3LYP) =  -582.900755495     A.U. after   11 cycles
 SCF Done:  E(RB3LYP) =  -582.900771017     A.U. after   10 cycles
 SCF Done:  E(RB3LYP) =  -582.900783661     A.U. after   10 cycles
 SCF Done:  E(RB3LYP) =  -582.900792135     A.U. after   11 cycles
 SCF Done:  E(RB3LYP) =  -582.900795913     A.U. after   10 cycles
 SCF Done:  E(RB3LYP) =  -582.900799252     A.U. after   11 cycles
 SCF Done:  E(RB3LYP) =  -582.900800592     A.U. after   10 cycles
 SCF Done:  E(RB3LYP) =  -582.900801239     A.U. after    9 cycles
 SCF Done:  E(RB3LYP) =  -582.900801466     A.U. after    7 cycles
 Optimization completed.
    -- Stationary point found.
 Normal termination of Gaussian 16 at Wed Dec  9 23:09:38 2020.

 --------------------------------------------------------------------
 #N Geom=AllCheck Guess=TCheck SCRF=Check GenChk RB3LYP/6-31G(d) Freq
 --------------------------------------------------------------------

 Structure from the checkpoint file:  "JID_3379.chk"
 ------------------------------
 CID_87291276_JID_3379_neutraal
 ------------------------------
 Charge =  0 Multiplicity = 1

 SCF Done:  E(RB3LYP) =  -582.900801465     A.U. after    1 cycles

  Exact polarizability: 143.911   2.065 112.637  -0.629   0.171 106.525
 Approx polarizability: 181.233   5.166 159.840  -1.586   3.425 157.628

                      1                      2                      3
                      A                      A                      A
 Frequencies --     27.3871                38.8797                56.4374
 Red. masses --      4.7017                 3.8743                 2.6927
 Frc consts  --      0.0021                 0.0035                 0.0051
 IR Inten    --      2.6014                 0.1945                 0.9855

                      4                      5                      6
                      A                      A                      A
 Frequencies --     61.3925                80.3853                84.4178
 Red. masses --      3.4638                 2.2281                 2.3634
 Frc consts  --      0.0077                 0.0085                 0.0099
 IR Inten    --      4.6360                 1.9265                 0.8270

                      7                      8                      9
                      A                      A                      A
 Frequencies --    112.1162               149.1107               179.7813
 Red. masses --      3.4196                 3.3306                 2.2932
 Frc consts  --      0.0253                 0.0436                 0.0437
 IR Inten    --      1.7104                 3.3019                 0.4646

                     10                     11                     12
                      A                      A                      A
 Frequencies --    216.1646               218.2768               247.4770
 Red. masses --      1.3871                 1.0533                 1.5791
 Frc consts  --      0.0382                 0.0296                 0.0570
 IR Inten    --      0.7157                 0.0345                 1.1609

                     13                     14                     15
                      A                      A                      A
 Frequencies --    253.1872               280.5512               293.9136
 Red. masses --      2.3640                 2.1928                 2.2279
 Frc consts  --      0.0893                 0.1017                 0.1134
 IR Inten    --      1.0396                 0.2209                 1.0538

                     16                     17                     18
                      A                      A                      A
 Frequencies --    323.7245               360.7753               393.1809
 Red. masses --      1.9066                 2.3995                 2.8995
 Frc consts  --      0.1177                 0.1840                 0.2641
 IR Inten    --      0.5568                 3.1878                 6.6175

                     19                     20                     21
                      A                      A                      A
 Frequencies --    414.2160               445.3780               462.6371
 Red. masses --      2.0703                 2.3125                 2.5027
 Frc consts  --      0.2093                 0.2703                 0.3156
 IR Inten    --      1.3369                 0.6846                 4.2856

                     22                     23                     24
                      A                      A                      A
 Frequencies --    489.6036               553.6909               616.6851
 Red. masses --      2.6537                 2.9823                 2.7576
 Frc consts  --      0.3748                 0.5387                 0.6179
 IR Inten    --     11.2655                 0.2735                 3.0978

                     25                     26                     27
                      A                      A                      A
 Frequencies --    710.5303               754.7765               788.2745
 Red. masses --      1.7947                 2.0401                 1.2476
 Frc consts  --      0.5338                 0.6848                 0.4568
 IR Inten    --      8.0979                 2.6184                 3.1279

                     28                     29                     30
                      A                      A                      A
 Frequencies --    829.8911               870.9739               900.8048
 Red. masses --      1.6234                 2.2725                 1.8017
 Frc consts  --      0.6588                 1.0157                 0.8614
 IR Inten    --      4.1746                 0.6929                 0.3458

                     31                     32                     33
                      A                      A                      A
 Frequencies --    920.3605               939.1352               980.0543
 Red. masses --      2.6488                 2.0277                 1.4317
 Frc consts  --      1.3219                 1.0537                 0.8102
 IR Inten    --     17.8896                 0.6978                 2.4874

                     34                     35                     36
                      A                      A                      A
 Frequencies --    993.6639              1002.4770              1006.8907
 Red. masses --      1.4064                 1.6588                 1.8093
 Frc consts  --      0.8182                 0.9822                 1.0807
 IR Inten    --      5.5644                11.6646                 3.0135

                     37                     38                     39
                      A                      A                      A
 Frequencies --   1041.9896              1057.1525              1078.1556
 Red. masses --      2.0802                 2.5966                 2.0078
 Frc consts  --      1.3307                 1.7098                 1.3751
 IR Inten    --     11.4001                 3.7241                19.4406

                     40                     41                     42
                      A                      A                      A
 Frequencies --   1082.6009              1109.9463              1142.1194
 Red. masses --      1.6698                 2.8006                 2.6793
 Frc consts  --      1.1530                 2.0328                 2.0592
 IR Inten    --      9.9730                 6.2402                81.3814

                     43                     44                     45
                      A                      A                      A
 Frequencies --   1158.8450              1170.6730              1191.1941
 Red. masses --      1.9328                 2.5440                 1.4722
 Frc consts  --      1.5293                 2.0542                 1.2308
 IR Inten    --     12.3418                21.0968                 8.9408

                     46                     47                     48
                      A                      A                      A
 Frequencies --   1193.6879              1218.3182              1235.2903
 Red. masses --      1.5236                 1.4406                 1.4166
 Frc consts  --      1.2791                 1.2598                 1.2736
 IR Inten    --      3.9834                 2.0636                 6.9533

                     49                     50                     51
                      A                      A                      A
 Frequencies --   1246.2390              1267.1555              1301.4970
 Red. masses --      1.4961                 1.3461                 1.3711
 Frc consts  --      1.3690                 1.2735                 1.3683
 IR Inten    --      9.7216                58.7978                 6.5608

                     52                     53                     54
                      A                      A                      A
 Frequencies --   1321.9123              1329.8055              1353.5653
 Red. masses --      1.2820                 1.3443                 1.2314
 Frc consts  --      1.3199                 1.4006                 1.3292
 IR Inten    --      8.0140                10.7345                 5.4972

                     55                     56                     57
                      A                      A                      A
 Frequencies --   1366.4053              1376.7468              1394.6608
 Red. masses --      1.2758                 1.2363                 1.4014
 Frc consts  --      1.4035                 1.3807                 1.6060
 IR Inten    --      0.4832                 2.4676                 5.6394

                     58                     59                     60
                      A                      A                      A
 Frequencies --   1410.2490              1417.7098              1422.0359
 Red. masses --      1.4239                 1.3985                 1.4130
 Frc consts  --      1.6685                 1.6561                 1.6835
 IR Inten    --      0.3930                 1.9261                 1.3043

                     61                     62                     63
                      A                      A                      A
 Frequencies --   1439.7985              1440.4805              1444.8537
 Red. masses --      1.2730                 1.2813                 1.2203
 Frc consts  --      1.5548                 1.5665                 1.5010
 IR Inten    --      5.4705                 3.9525                 1.6525

                     64                     65                     66
                      A                      A                      A
 Frequencies --   1452.9409              1489.5808              1508.6097
 Red. masses --      1.2082                 1.1116                 1.1403
 Frc consts  --      1.5028                 1.4532                 1.5291
 IR Inten    --      6.2851                12.4661                 0.3162

                     67                     68                     69
                      A                      A                      A
 Frequencies --   1513.5401              1519.2186              1527.2219
 Red. masses --      1.0657                 1.0787                 1.0469
 Frc consts  --      1.4384                 1.4669                 1.4387
 IR Inten    --      0.2462                 1.8778                 9.8684

                     70                     71                     72
                      A                      A                      A
 Frequencies --   1528.6682              1530.3020              1531.8979
 Red. masses --      1.0597                 1.0666                 1.0615
 Frc consts  --      1.4591                 1.4717                 1.4677
 IR Inten    --      1.3087                 3.2616                 5.5460

                     73                     74                     75
                      A                      A                      A
 Frequencies --   1535.5066              1536.5117              1545.2604
 Red. masses --      1.0911                 1.0636                 1.0532
 Frc consts  --      1.5158                 1.4795                 1.4817
 IR Inten    --      4.1156                 7.0833                15.0450

                     76                     77                     78
                      A                      A                      A
 Frequencies --   1545.4689              1827.7822              2907.6752
 Red. masses --      1.0504                 9.4240                 1.0827
 Frc consts  --      1.4782                18.5495                 5.3931
 IR Inten    --      2.8479               173.4399                97.6068

                     79                     80                     81
                      A                      A                      A
 Frequencies --   3010.5468              3020.7878              3025.3135
 Red. masses --      1.0799                 1.0615                 1.0411
 Frc consts  --      5.7666                 5.7072                 5.6140
 IR Inten    --      5.6970                16.1206                35.4215

                     82                     83                     84
                      A                      A                      A
 Frequencies --   3026.7002              3038.2473              3041.3242
 Red. masses --      1.0654                 1.0655                 1.0582
 Frc consts  --      5.7506                 5.7950                 5.7668
 IR Inten    --     22.9541                 8.0181                14.6548

                     85                     86                     87
                      A                      A                      A
 Frequencies --   3042.3413              3047.3864              3052.7424
 Red. masses --      1.0501                 1.0383                 1.0906
 Frc consts  --      5.7266                 5.6812                 5.9883
 IR Inten    --     44.5654                29.4966                30.5238

                     88                     89                     90
                      A                      A                      A
 Frequencies --   3056.4965              3068.7319              3077.6522
 Red. masses --      1.0680                 1.0971                 1.0885
 Frc consts  --      5.8784                 6.0873                 6.0743
 IR Inten    --     36.2528                46.8867                 8.0700

                     91                     92                     93
                      A                      A                      A
 Frequencies --   3085.0191              3094.5685              3099.3119
 Red. masses --      1.0925                 1.0970                 1.1009
 Frc consts  --      6.1261                 6.1894                 6.2309
 IR Inten    --     48.2645                75.4372                38.5709

                     94                     95                     96
                      A                      A                      A
 Frequencies --   3102.8841              3109.8671              3119.4542
 Red. masses --      1.1007                 1.1012                 1.1018
 Frc consts  --      6.2439                 6.2750                 6.3169
 IR Inten    --     41.4720                49.0687                44.9611

                     97                     98                     99
                      A                      A                      A
 Frequencies --   3124.9598              3129.0434              3139.9747
 Red. masses --      1.0967                 1.0995                 1.1024
 Frc consts  --      6.3102                 6.3427                 6.4036
 IR Inten    --     12.4005                38.1957                27.6964

 - Thermochemistry -
 -------------------
 Temperature   298.150 Kelvin.  Pressure   1.00000 Atm.
 Atom     1 has atomic number  6 and mass  12.00000

 Molecular mass:   186.16198 amu.
 Principal axes and moments of inertia in atomic units:
                           1         2         3
     Eigenvalues --  1316.347215382.705005798.52175
           X            0.99998   0.00538  -0.00125
           Y           -0.00544   0.99856  -0.05331
           Z            0.00096   0.05331   0.99858
 This molecule is an asymmetric top.
 Rotational symmetry number  1.
 Warning -- assumption of classical behavior for rotation
           may cause significant error
 Rotational temperatures (Kelvin)      0.06580     0.01609     0.01494
 Rotational constants (GHZ):           1.37102     0.33529     0.31124
 Zero-point vibrational energy     839083.6 (Joules/Mol)
                                  200.54580 (Kcal/Mol)
 Warning -- explicit consideration of  24 degrees of freedom as
           vibrations may cause significant error
 Vibrational temperatures:     39.40    55.94    81.20    88.33   115.66
          (Kelvin)            121.46   161.31   214.54   258.67   311.01
                              314.05   356.06   364.28   403.65   422.88
                              465.77   519.08   565.70   595.96   640.80
                              665.63   704.43   796.64   887.27  1022.29
                             1085.96  1134.15  1194.03  1253.14  1296.06
                             1324.19  1351.21  1410.08  1429.66  1442.34
                             1448.69  1499.19  1521.01  1551.23  1557.62
                             1596.97  1643.26  1667.32  1684.34  1713.86
                             1717.45  1752.89  1777.31  1793.06  1823.15
                             1872.56  1901.94  1913.29  1947.48  1965.95
                             1980.83  2006.61  2029.03  2039.77  2045.99
                             2071.55  2072.53  2078.82  2090.46  2143.17
                             2170.55  2177.65  2185.82  2197.33  2199.41
                             2201.76  2204.06  2209.25  2210.70  2223.29
                             2223.58  2629.77  4183.50  4331.51  4346.24
                             4352.75  4354.75  4371.36  4375.79  4377.25
                             4384.51  4392.22  4397.62  4415.22  4428.06
                             4438.65  4452.39  4459.22  4464.36  4474.41
                             4488.20  4496.12  4502.00  4517.72

 Zero-point correction=                           0.319590 (Hartree/Particle)
 Thermal correction to Energy=                    0.335809
 Thermal correction to Enthalpy=                  0.336754
 Thermal correction to Gibbs Free Energy=         0.274609
 Sum of electronic and zero-point Energies=           -582.581211
 Sum of electronic and thermal Energies=              -582.564992
 Sum of electronic and thermal Enthalpies=            -582.564048
 Sum of electronic and thermal Free Energies=         -582.626192

                     E (Thermal)             CV                S
                      KCal/Mol        Cal/Mol-Kelvin    Cal/Mol-Kelvin
 Total                  210.724             58.321            130.794
 Electronic               0.000              0.000              0.000
 Translational            0.889              2.981             41.570
 Rotational               0.889              2.981             32.085
 Vibrational            208.946             52.360             57.138
 Vibration     1          0.593              1.984              6.010
 Vibration     2          0.594              1.981              5.315
 Vibration     3          0.596              1.975              4.578
 Vibration     4          0.597              1.973              4.412
 Vibration     5          0.600              1.962              3.881
 Vibration     6          0.601              1.960              3.785
 Vibration     7          0.607              1.939              3.232
 Vibration     8          0.618              1.904              2.684
 Vibration     9          0.629              1.867              2.331
 Vibration    10          0.645              1.816              1.991
 Vibration    11          0.646              1.813              1.973
 Vibration    12          0.661              1.767              1.748
 Vibration    13          0.664              1.757              1.708
 Vibration    14          0.680              1.710              1.530
 Vibration    15          0.689              1.685              1.451
 Vibration    16          0.708              1.628              1.291
 Vibration    17          0.735              1.553              1.119
 Vibration    18          0.760              1.485              0.988
 Vibration    19          0.778              1.439              0.912
 Vibration    20          0.805              1.371              0.810
 Vibration    21          0.820              1.333              0.758
 Vibration    22          0.845              1.273              0.685
 Vibration    23          0.909              1.132              0.537
 Vibration    24          0.976              0.997              0.422

                           ! Non-Optimized Parameters !
 Normal termination of Gaussian 16 at Wed Dec  9 23:20:00 2020.

 ----------------------------------------------------------------------
 # B3LYP/6-311++G(d,p) empiricaldispersion=gd3bj scf=xqc pop=npa geom=c
 heck
 ----------------------------------------------------------------------

 --------------------------------------
 CID_87291276_JID_3379_Energie_neutraal
 --------------------------------------
 Structure from the checkpoint file:  "JID_3379.chk"
 Charge =  0 Multiplicity = 1

 SCF Done:  E(RB3LYP) =  -583.072363373     A.U. after   13 cycles
 Normal termination of Gaussian 16 at Wed Dec  9 23:24:55 2020.

 ----------------------------------------------------------------------
 # B3LYP/6-311++G(d,p) empiricaldispersion=gd3bj scf=xqc pop=npa geom=c
 heck
 ----------------------------------------------------------------------

 ------------------------------------
 CID_87291276_JID_3379_Energie_kation
 ------------------------------------
 Structure from the checkpoint file:  "JID_3379.chk"
 Charge =  1 Multiplicity = 2

 SCF Done:  E(UB3LYP) =  -582.736709826     A.U. after   27 cycles
 Normal termination of Gaussian 16 at Wed Dec  9 23:39:18 2020.
 Gaussian 16:  ES64L-G16RevA.03 25-Dec-2016

 ----------------------------------------------------------------------
 # B3LYP/6-311++G(d,p) empiricaldispersion=gd3bj scf=xqc pop=npa geom=c
 heck
 ----------------------------------------------------------------------

 -----------------------------------
 CID_87291276_JID_3379_Energie_anion
 -----------------------------------
 Structure from the checkpoint file:  "JID_3379.chk"
 Charge = -1 Multiplicity = 2

                         Standard orientation:
 ---------------------------------------------------------------------
 Center     Atomic      Atomic             Coordinates (Angstroms)
 Number     Number       Type             X           Y           Z
 ---------------------------------------------------------------------
      1          6           0       -4.213074    1.305011   -0.620847
      2          6           0       -3.229375    0.156767   -0.865363
      3          6           0       -2.415731   -0.259038    0.373017
      4          6           0       -3.316964   -0.735687    1.519943
      5          6           0       -1.386192   -1.355455    0.038609
      6          6           0       -0.346668   -1.004972   -1.038975
      7          6           0        0.450836    0.285171   -0.786587
      8          6           0        1.182717    0.337806    0.563579
      9          6           0        2.232150   -0.789797    0.769895
     10          6           0        3.143863   -1.089074   -0.397762
     11          8           0        4.340722   -0.895573   -0.410073
     12          8           0        1.702641    1.632281    0.840121
     13          6           0        2.794102    2.074406    0.048583
     14          1           0       -5.007995    1.022868    0.077068
     15          1           0       -4.691713    1.615884   -1.556020
     16          1           0       -3.698662    2.179624   -0.203568
     17          1           0       -3.772651   -0.721941   -1.243603
     18          1           0       -2.540330    0.455782   -1.664736
     19          1           0       -1.871993    0.630172    0.726103
     20          1           0       -3.924930   -1.594124    1.205658
     21          1           0       -2.718499   -1.050381    2.382861
     22          1           0       -3.998008    0.050181    1.860272
     23          1           0       -0.869319   -1.638017    0.966299
     24          1           0       -1.926660   -2.257132   -0.283001
     25          1           0        0.341801   -1.854385   -1.140907
     26          1           0       -0.841417   -0.913590   -2.012943
     27          1           0        1.162048    0.424639   -1.609528
     28          1           0       -0.220241    1.151256   -0.814708
     29          1           0        0.441046    0.207772    1.357777
     30          1           0        2.842016   -0.548391    1.645285
     31          1           0        1.677712   -1.715652    0.979616
     32          1           0        2.645779   -1.541006   -1.284125
     33          1           0        3.700918    1.486473    0.231926
     34          1           0        2.571711    2.054806   -1.027443
     35          1           0        2.978490    3.110659    0.342782
 ---------------------------------------------------------------------

 SCF Done:  E(UB3LYP) =  -583.063257235     A.U. after   33 cycles
 SCF Done:  E(UB3LYP) =  -583.063257236     a.u. after    1 cycles

 The electronic state is 2-A.
 Alpha  occ. eigenvalues --  -19.01991 -18.98232 -10.11993 -10.11429 -10.10714
 Alpha  occ. eigenvalues --  -10.06938 -10.06912 -10.06432 -10.06340 -10.06282
 Alpha  occ. eigenvalues --  -10.06278 -10.05728 -10.05402  -0.93128  -0.91578
 Alpha  occ. eigenvalues --   -0.72407  -0.69340  -0.65209  -0.62597  -0.60355
 Alpha  occ. eigenvalues --   -0.58074  -0.53818  -0.51463  -0.48248  -0.45205
 Alpha  occ. eigenvalues --   -0.43487  -0.40109  -0.38369  -0.36574  -0.35733
 Alpha  occ. eigenvalues --   -0.34757  -0.34339  -0.33456  -0.32730  -0.31735
 Alpha  occ. eigenvalues --   -0.30821  -0.29849  -0.28656  -0.28185  -0.27661
 Alpha  occ. eigenvalues --   -0.26690  -0.26274  -0.25875  -0.25280  -0.24041
 Alpha  occ. eigenvalues --   -0.23663  -0.21719  -0.21527  -0.20991  -0.19810
 Alpha  occ. eigenvalues --   -0.15539  -0.12947   0.04627
 Alpha virt. eigenvalues --    0.06266   0.07341   0.07660   0.07973   0.09071
 Alpha virt. eigenvalues --    0.09380   0.09924   0.10432   0.10852   0.11394
 Alpha virt. eigenvalues --    0.12100   0.12244   0.12416   0.12944   0.13609

  Beta  occ. eigenvalues --  -19.01989 -18.97916 -10.11951 -10.11123 -10.10710
  Beta  occ. eigenvalues --  -10.06928 -10.06906 -10.06413 -10.06366 -10.06262
  Beta  occ. eigenvalues --  -10.06260 -10.05696 -10.05370  -0.93111  -0.90979
  Beta  occ. eigenvalues --   -0.72374  -0.69272  -0.65117  -0.62531  -0.60228
  Beta  occ. eigenvalues --   -0.58027  -0.53747  -0.51332  -0.47947  -0.45041
  Beta  occ. eigenvalues --   -0.43244  -0.40032  -0.38268  -0.36511  -0.35654
  Beta  occ. eigenvalues --   -0.34627  -0.34296  -0.33379  -0.32634  -0.31492
  Beta  occ. eigenvalues --   -0.30734  -0.29745  -0.28572  -0.28027  -0.27566
  Beta  occ. eigenvalues --   -0.26467  -0.26113  -0.25337  -0.24878  -0.23746
  Beta  occ. eigenvalues --   -0.23634  -0.21667  -0.21461  -0.20955  -0.19647
  Beta  occ. eigenvalues --   -0.15475  -0.12702
  Beta virt. eigenvalues --    0.06814   0.07819   0.07929   0.08008   0.09247
  Beta virt. eigenvalues --    0.09604   0.09679   0.10421   0.10597   0.11014
  Beta virt. eigenvalues --    0.11640   0.12262   0.12336   0.12593   0.13233

 Mulliken charges and spin densities:
               1          2
     1  C    1.111625  -1.798041
     2  C   -1.164787   0.950672
     3  C   -0.326405   0.753345
     4  C    1.164961  -1.877166
     5  C    0.091702  -0.508425
     6  C   -0.578203   0.289843
     7  C    0.033263  -0.221163
     8  C    0.093980  -0.294139
     9  C   -0.298260  -0.162462
    10  C   -0.258233   0.262963
    11  O   -0.312241   0.098205
    12  O   -0.068657   0.001594
    13  C   -0.135786  -0.148376
    14  H   -0.163033   0.302067
    15  H   -0.357865   0.497188
    16  H   -0.190313   0.324685
    17  H   -0.159109   0.302577
    18  H    0.123206  -0.012300
    19  H    0.410949  -0.235729
    20  H   -0.180473   0.322130
    21  H   -0.199419   0.328575
    22  H   -0.161423   0.297381
    23  H   -0.042337   0.216523
    24  H    0.036731   0.100726
    25  H    0.123807   0.041726
    26  H   -0.077630   0.246283
    27  H    0.047271   0.097694
    28  H   -0.004956   0.238059
    29  H   -0.052604   0.299029
    30  H    0.159179   0.046800
    31  H   -0.040585   0.150024
    32  H    0.030476   0.024445
    33  H    0.176322  -0.018221
    34  H    0.065965   0.047219
    35  H    0.102881   0.036266
 Sum of Mulliken charges =  -1.00000   1.00000

 Dipole moment (field-independent basis, Debye):
    X=              2.4410    Y=              0.2831    Z=             -1.1966  Tot=              2.7333
 Quadrupole moment (field-independent basis, Debye-Ang):
   XX=           -183.0319   YY=           -112.5234   ZZ=           -115.0092
   XY=              9.2774   XZ=              1.0192   YZ=              2.4681

 Summary of Natural Population Analysis:

                                       Natural Population
                Natural  -----------------------------------------------
    Atom  No    Charge         Core      Valence    Rydberg      Total
 -----------------------------------------------------------------------
      C    1   -0.28499      0.99967     2.28035    0.00497     3.28499
      C    2   -0.18941      0.99962     2.18090    0.00889     3.18941
      C    3   -0.11620      0.99960     2.10672    0.00988     3.11620
      C    4   -0.28431      0.99965     2.27856    0.00610     3.28431
      C    5   -0.18819      0.99961     2.17964    0.00893     3.18819
      C    6   -0.19035      0.99962     2.18302    0.00770     3.19035
      C    7   -0.20824      0.99960     2.19972    0.00893     3.20824
      C    8    0.07620      0.99953     1.90949    0.01478     2.92380
      C    9   -0.25994      0.99960     2.25033    0.01001     3.25994
      C   10    0.25588      0.99974     1.72415    0.02023     2.74412
      O   11   -0.26177      0.99988     3.25499    0.00691     4.26177
      O   12   -0.30263      0.99988     3.29301    0.00973     4.30263
      C   13   -0.10416      0.99960     2.09625    0.00830     3.10416
      H   14    0.09713      0.00000     0.40176    0.00111     0.40287
      H   15    0.09854      0.00000     0.40041    0.00105     0.40146
      H   16    0.09560      0.00000     0.40326    0.00114     0.40440
      H   17    0.09272      0.00000     0.40613    0.00115     0.40728
      H   18    0.09555      0.00000     0.40309    0.00137     0.40445
      H   19    0.09329      0.00000     0.40444    0.00227     0.40671
      H   20    0.09565      0.00000     0.40322    0.00112     0.40435
      H   21    0.10021      0.00000     0.39861    0.00119     0.39979
      H   22    0.09980      0.00000     0.39925    0.00095     0.40020
      H   23    0.09748      0.00000     0.40136    0.00116     0.40252
      H   24    0.09665      0.00000     0.40228    0.00107     0.40335
      H   25    0.09618      0.00000     0.40246    0.00136     0.40382
      H   26    0.09702      0.00000     0.40182    0.00116     0.40298
      H   27    0.09964      0.00000     0.39906    0.00130     0.40036
      H   28    0.10207      0.00000     0.39654    0.00139     0.39793
      H   29    0.09278      0.00000     0.40483    0.00239     0.40722
      H   30    0.10877      0.00000     0.38994    0.00130     0.39123
      H   31    0.11105      0.00000     0.38760    0.00135     0.38895
      H   32    0.03528      0.00000     0.46225    0.00247     0.46472
      H   33    0.09042      0.00000     0.40812    0.00147     0.40958
      H   34    0.07742      0.00000     0.42143    0.00115     0.42258
      H   35    0.08486      0.00000     0.41425    0.00090     0.41514
 =======================================================================
   * Total *    0.00000     12.99560    38.84925    0.15516    52.00000

 Normal termination of Gaussian 16 at Wed Dec  9 23:56:45 2020.
