 Gaussian 16, Revision A.03,

 -----------------------------------------------------------
 # opt freq B3LYP/6-31G(d) empiricaldispersion=gd3bj scf=xqc
 -----------------------------------------------------------

 -----------------------------
 CID_11819159_JID_664_neutraal
 -----------------------------
 Symbolic Z-matrix:
 Charge =  0 Multiplicity = 1

 SCF Done:  E(RB3LYP) =  -509.480528464     A.U. after   15 cycles
 SCF Done:  E(RB3LYP) =  -509.484023247     A.U. after   12 cycles
 SCF Done:  E(RB3LYP) =  -509.484380251     A.U. after   12 cycles
 SCF Done:  E(RB3LYP) =  -509.484421051     A.U. after   11 cycles
 SCF Done:  E(RB3LYP) =  -509.484429429     A.U. after    9 cycles
 SCF Done:  E(RB3LYP) =  -509.484431673     A.U. after    9 cycles
 SCF Done:  E(RB3LYP) =  -509.484432607     A.U. after    8 cycles
 SCF Done:  E(RB3LYP) =  -509.484432937     A.U. after    8 cycles
 SCF Done:  E(RB3LYP) =  -509.484433143     A.U. after    7 cycles
 SCF Done:  E(RB3LYP) =  -509.484433306     A.U. after    8 cycles
 Optimization completed.
    -- Stationary point found.
 Normal termination of Gaussian 16 at Tue Dec  8 12:18:47 2020.

 --------------------------------------------------------------------
 #N Geom=AllCheck Guess=TCheck SCRF=Check GenChk RB3LYP/6-31G(d) Freq
 --------------------------------------------------------------------

 Structure from the checkpoint file:  "JID_664.chk"
 -----------------------------
 CID_11819159_JID_664_neutraal
 -----------------------------
 Charge =  0 Multiplicity = 1

 SCF Done:  E(RB3LYP) =  -509.484433306     A.U. after    1 cycles

  Exact polarizability: 109.964  -3.616  78.567  -0.001   0.002  39.547
 Approx polarizability: 175.875 -17.156 121.892   0.002   0.001  59.157

                      1                      2                      3
                      A                      A                      A
 Frequencies --     99.4562               125.3420               144.9109
 Red. masses --      5.5305                 3.9472                 1.1055
 Frc consts  --      0.0322                 0.0365                 0.0137
 IR Inten    --      0.1950                 0.1232                 0.9240

                      4                      5                      6
                      A                      A                      A
 Frequencies --    188.2185               219.5862               269.1555
 Red. masses --      1.4289                 2.6632                 2.9311
 Frc consts  --      0.0298                 0.0757                 0.1251
 IR Inten    --     48.9668                 6.8387                 4.5443

                      7                      8                      9
                      A                      A                      A
 Frequencies --    298.6088               350.1810               391.2311
 Red. masses --      4.1711                 4.4067                11.1380
 Frc consts  --      0.2191                 0.3184                 1.0044
 IR Inten    --      0.0276                19.7694                16.7538

                     10                     11                     12
                      A                      A                      A
 Frequencies --    414.9651               441.8027               523.8088
 Red. masses --      2.9410                 7.5194                 7.8377
 Frc consts  --      0.2984                 0.8647                 1.2670
 IR Inten    --     10.9241                16.6199                 1.5728

                     13                     14                     15
                      A                      A                      A
 Frequencies --    657.7361               679.4399               703.3373
 Red. masses --      4.4087                 1.1843                 6.1239
 Frc consts  --      1.1237                 0.3221                 1.7849
 IR Inten    --      4.2711                56.0940                 7.7176

                     16                     17                     18
                      A                      A                      A
 Frequencies --    749.8685               763.8617               793.5273
 Red. masses --      8.9659                 6.5269                 7.5910
 Frc consts  --      2.9704                 2.2438                 2.8163
 IR Inten    --     36.9959                32.3737                 7.7052

                     19                     20                     21
                      A                      A                      A
 Frequencies --    871.5796               926.2918              1019.6787
 Red. masses --      3.3045                 1.3333                 1.6006
 Frc consts  --      1.4790                 0.6740                 0.9806
 IR Inten    --     11.5902                15.0568                52.2452

                     22                     23                     24
                      A                      A                      A
 Frequencies --   1062.2384              1082.9848              1165.2129
 Red. masses --      1.5133                 1.4291                 3.0031
 Frc consts  --      1.0061                 0.9876                 2.4023
 IR Inten    --     14.3129                 2.6059                34.1935

                     25                     26                     27
                      A                      A                      A
 Frequencies --   1174.4355              1258.4852              1339.3166
 Red. masses --      5.0922                 3.5052                 1.6851
 Frc consts  --      4.1382                 3.2708                 1.7809
 IR Inten    --     14.7815                 9.8153                52.0911

                     28                     29                     30
                      A                      A                      A
 Frequencies --   1375.7889              1414.0567              1422.1192
 Red. masses --      1.1371                 1.8143                 4.1719
 Frc consts  --      1.2681                 2.1374                 4.9711
 IR Inten    --      2.2099                 5.6050               114.5525

                     31                     32                     33
                      A                      A                      A
 Frequencies --   1449.9327              1464.7898              1501.2534
 Red. masses --      1.3198                 6.0538                 1.0432
 Frc consts  --      1.6347                 7.6529                 1.3852
 IR Inten    --      4.7233               125.9020                 5.9475

                     34                     35                     36
                      A                      A                      A
 Frequencies --   1524.0449              1708.4886              1742.0185
 Red. masses --      1.0890                 4.9656                 1.1621
 Frc consts  --      1.4903                 8.5398                 2.0779
 IR Inten    --      6.8354                51.8577                 8.0790

                     37                     38                     39
                      A                      A                      A
 Frequencies --   1795.1151              1819.3403              3055.7200
 Red. masses --      9.0775                 9.7509                 1.0354
 Frc consts  --     17.2346                19.0162                 5.6960
 IR Inten    --    532.1898               546.9794                23.9347

                     40                     41                     42
                      A                      A                      A
 Frequencies --   3111.5878              3136.2691              3245.6572
 Red. masses --      1.1011                 1.1034                 1.0932
 Frc consts  --      6.2811                 6.3947                 6.7849
 IR Inten    --     12.5628                14.8714                 2.5875

                     43                     44                     45
                      A                      A                      A
 Frequencies --   3446.5542              3519.9027              3603.2684
 Red. masses --      1.0485                 1.0942                 1.0773
 Frc consts  --      7.3379                 7.9872                 8.2410
 IR Inten    --      3.5680                 4.3794                57.1854

 - Thermochemistry -
 -------------------
 Temperature   298.150 Kelvin.  Pressure   1.00000 Atm.
 Atom     1 has atomic number  6 and mass  12.00000

 Molecular mass:   141.05383 amu.
 Principal axes and moments of inertia in atomic units:
                           1         2         3
     Eigenvalues --   757.449291588.527872325.41745
           X            0.99965   0.02634  -0.00001
           Y           -0.02634   0.99965   0.00001
           Z            0.00001  -0.00001   1.00000
 This molecule is an asymmetric top.
 Rotational symmetry number  1.
 Warning -- assumption of classical behavior for rotation
           may cause significant error
 Rotational temperatures (Kelvin)      0.11435     0.05452     0.03725
 Rotational constants (GHZ):           2.38266     1.13611     0.77609
 Zero-point vibrational energy     347223.1 (Joules/Mol)
                                   82.98831 (Kcal/Mol)
 Warning -- explicit consideration of  12 degrees of freedom as
           vibrations may cause significant error
 Vibrational temperatures:    143.10   180.34   208.49   270.80   315.94
          (Kelvin)            387.25   429.63   503.83   562.89   597.04
                              635.66   753.64   946.34   977.56  1011.95
                             1078.89  1099.03  1141.71  1254.01  1332.73
                             1467.09  1528.32  1558.17  1676.48  1689.75
                             1810.68  1926.98  1979.45  2034.51  2046.11
                             2086.13  2107.51  2159.97  2192.76  2458.13
                             2506.38  2582.77  2617.62  4396.50  4476.88
                             4512.39  4669.78  4958.82  5064.35  5184.30

 Zero-point correction=                           0.132250 (Hartree/Particle)
 Thermal correction to Energy=                    0.141538
 Thermal correction to Enthalpy=                  0.142483
 Thermal correction to Gibbs Free Energy=         0.098020
 Sum of electronic and zero-point Energies=           -509.352183
 Sum of electronic and thermal Energies=              -509.342895
 Sum of electronic and thermal Enthalpies=            -509.341951
 Sum of electronic and thermal Free Energies=         -509.386413

                     E (Thermal)             CV                S
                      KCal/Mol        Cal/Mol-Kelvin    Cal/Mol-Kelvin
 Total                   88.817             34.081             93.579
 Electronic               0.000              0.000              0.000
 Translational            0.889              2.981             40.743
 Rotational               0.889              2.981             29.416
 Vibrational             87.039             28.120             23.419
 Vibration     1          0.604              1.949              3.465
 Vibration     2          0.610              1.928              3.016
 Vibration     3          0.616              1.908              2.738
 Vibration     4          0.633              1.856              2.245
 Vibration     5          0.647              1.811              1.963
 Vibration     6          0.674              1.730              1.602
 Vibration     7          0.692              1.676              1.425
 Vibration     8          0.727              1.575              1.165
 Vibration     9          0.759              1.489              0.995
 Vibration    10          0.778              1.438              0.909
 Vibration    11          0.802              1.379              0.821
 Vibration    12          0.879              1.197              0.601

 Optimization completed.
    -- Stationary point found.
 Normal termination of Gaussian 16 at Tue Dec  8 12:22:56 2020.

 ----------------------------------------------------------------------
 # B3LYP/6-311++G(d,p) empiricaldispersion=gd3bj scf=xqc pop=npa geom=c
 heck
 ----------------------------------------------------------------------

 -------------------------------------
 CID_11819159_JID_664_Energie_neutraal
 -------------------------------------
 Structure from the checkpoint file:  "JID_664.chk"
 Charge =  0 Multiplicity = 1

 SCF Done:  E(RB3LYP) =  -509.641769061     A.U. after   14 cycles
 Normal termination of Gaussian 16 at Tue Dec  8 12:24:14 2020.

 ----------------------------------------------------------------------
 # B3LYP/6-311++G(d,p) empiricaldispersion=gd3bj scf=xqc pop=npa geom=c
 heck
 ----------------------------------------------------------------------

 -----------------------------------
 CID_11819159_JID_664_Energie_kation
 -----------------------------------
 Structure from the checkpoint file:  "JID_664.chk"
 Charge =  1 Multiplicity = 2

 SCF Done:  E(UB3LYP) =  -509.316276806     A.U. after   21 cycles
 Normal termination of Gaussian 16 at Tue Dec  8 12:26:41 2020.
 Gaussian 16:  ES64L-G16RevA.03 25-Dec-2016

 ----------------------------------------------------------------------
 # B3LYP/6-311++G(d,p) empiricaldispersion=gd3bj scf=xqc pop=npa geom=c
 heck
 ----------------------------------------------------------------------

 ----------------------------------
 CID_11819159_JID_664_Energie_anion
 ----------------------------------
 Structure from the checkpoint file:  "JID_664.chk"
 Charge = -1 Multiplicity = 2

                         Standard orientation:
 ---------------------------------------------------------------------
 Center     Atomic      Atomic             Coordinates (Angstroms)
 Number     Number       Type             X           Y           Z
 ---------------------------------------------------------------------
      1          6           0        2.585045    1.325434   -0.000034
      2          6           0        1.247620    0.646584   -0.000030
      3          6           0        0.068219    1.308653   -0.000077
      4          7           0       -1.153146    0.667927   -0.000005
      5          6           0       -1.281389   -0.721518   -0.000011
      6          8           0       -2.368074   -1.276872   -0.000035
      7          7           0       -0.065853   -1.376881   -0.000047
      8          6           0        1.227183   -0.816106   -0.000009
      9          8           0        2.212144   -1.538732    0.000127
     10          7           0       -2.320905    1.458592   -0.000028
     11          1           0        2.476171    2.413955   -0.000169
     12          1           0        3.170343    1.030861   -0.878186
     13          1           0        3.170250    1.031071    0.878252
     14          1           0       -0.012912    2.388981   -0.000162
     15          1           0       -0.113307   -2.389551   -0.000020
     16          1           0       -2.872356    1.171139   -0.809945
     17          1           0       -2.871484    1.172620    0.811020
 ---------------------------------------------------------------------

 SCF Done:  E(UB3LYP) =  -509.630751831     A.U. after   33 cycles
 SCF Done:  E(UB3LYP) =  -509.630751831     a.u. after    1 cycles

 The electronic state is 2-A.
 Alpha  occ. eigenvalues --  -18.95893 -18.91367 -14.23644 -14.22062 -14.19745
 Alpha  occ. eigenvalues --  -10.16348 -10.08855 -10.02936 -10.02245 -10.00025
 Alpha  occ. eigenvalues --   -0.93467  -0.87002  -0.86104  -0.78109  -0.69567
 Alpha  occ. eigenvalues --   -0.62875  -0.55055  -0.51001  -0.47898  -0.40097
 Alpha  occ. eigenvalues --   -0.39564  -0.39511  -0.34877  -0.31155  -0.30934
 Alpha  occ. eigenvalues --   -0.28539  -0.27079  -0.26230  -0.23874  -0.23040
 Alpha  occ. eigenvalues --   -0.22589  -0.19347  -0.16697  -0.15308  -0.13313
 Alpha  occ. eigenvalues --   -0.09734  -0.07583   0.07402
 Alpha virt. eigenvalues --    0.08772   0.10083   0.11913   0.12243   0.12533
 Alpha virt. eigenvalues --    0.13852   0.14809   0.16081   0.16248   0.17949
 Alpha virt. eigenvalues --    0.18300   0.18681   0.19293   0.19768   0.21192

  Beta  occ. eigenvalues --  -18.95898 -18.91081 -14.23563 -14.22067 -14.19615
  Beta  occ. eigenvalues --  -10.16332 -10.08551 -10.02370 -10.02254  -9.99924
  Beta  occ. eigenvalues --   -0.93357  -0.86487  -0.85957  -0.77837  -0.69222
  Beta  occ. eigenvalues --   -0.62497  -0.54635  -0.50521  -0.47591  -0.39756
  Beta  occ. eigenvalues --   -0.39389  -0.39330  -0.34611  -0.30995  -0.30350
  Beta  occ. eigenvalues --   -0.28194  -0.26809  -0.26002  -0.23687  -0.22341
  Beta  occ. eigenvalues --   -0.21867  -0.18030  -0.16676  -0.15248  -0.12274
  Beta  occ. eigenvalues --   -0.09432  -0.05853
  Beta virt. eigenvalues --    0.08796   0.09987   0.11841   0.11951   0.12523
  Beta virt. eigenvalues --    0.13512   0.14639   0.15106   0.16056   0.16759
  Beta virt. eigenvalues --    0.17789   0.18147   0.18514   0.19599   0.20307

 Mulliken charges and spin densities:
               1          2
     1  C   -0.820532   0.043892
     2  C    0.785700  -0.118191
     3  C   -0.821355   0.711416
     4  N   -0.112269  -0.078676
     5  C    0.353791   0.002083
     6  O   -0.436238   0.004538
     7  N   -0.407424   0.056166
     8  C    0.005150   0.199766
     9  O   -0.466569   0.107994
    10  N   -0.295212  -0.016957
    11  H    0.110291  -0.001280
    12  H    0.108144   0.031803
    13  H    0.107743   0.032220
    14  H    0.167017  -0.051858
    15  H    0.320349  -0.004009
    16  H    0.200381   0.040884
    17  H    0.201034   0.040211
 Sum of Mulliken charges =  -1.00000   1.00000

 Dipole moment (field-independent basis, Debye):
    X=             -2.7714    Y=              1.2010    Z=              0.0026  Tot=              3.0204
 Quadrupole moment (field-independent basis, Debye-Ang):
   XX=            -89.7512   YY=            -79.1692   ZZ=            -66.9790
   XY=              2.7485   XZ=             -0.0216   YZ=              0.0058

 Summary of Natural Population Analysis:

                                       Natural Population
                Natural  -----------------------------------------------
    Atom  No    Charge         Core      Valence    Rydberg      Total
 -----------------------------------------------------------------------
      C    1   -0.28441      0.99965     2.27872    0.00604     3.28441
      C    2   -0.08485      0.99949     2.07646    0.00890     3.08485
      C    3    0.12914      0.99949     1.85625    0.01511     2.87086
      N    4   -0.15123      0.99960     2.64192    0.00971     3.65123
      C    5    0.40007      0.99969     1.57595    0.02429     2.59993
      O    6   -0.35649      0.99987     3.35090    0.00571     4.35649
      N    7   -0.30748      0.99965     2.79923    0.00861     3.80748
      C    8    0.36179      0.99961     1.61379    0.02481     2.63821
      O    9   -0.31558      0.99988     3.30983    0.00588     4.31558
      N   10   -0.31158      0.99978     2.79988    0.01193     3.81158
      H   11    0.09098      0.00000     0.40827    0.00075     0.40902
      H   12    0.09890      0.00000     0.40008    0.00102     0.40110
      H   13    0.09891      0.00000     0.40008    0.00102     0.40109
      H   14    0.09061      0.00000     0.40860    0.00079     0.40939
      H   15    0.19488      0.00000     0.30295    0.00217     0.30512
      H   16    0.17320      0.00000     0.32503    0.00177     0.32680
      H   17    0.17316      0.00000     0.32508    0.00177     0.32684
 =======================================================================
   * Total *   -0.00000      9.99671    26.87302    0.13027    37.00000

 Normal termination of Gaussian 16 at Tue Dec  8 12:32:31 2020.
