 Gaussian 16, Revision A.03,

 -----------------------------------------------------------
 # opt freq B3LYP/6-31G(d) empiricaldispersion=gd3bj scf=xqc
 -----------------------------------------------------------

 -------------------------------
 CID_64406002_JID_10660_neutraal
 -------------------------------
 Symbolic Z-matrix:
 Charge =  0 Multiplicity = 1

 SCF Done:  E(RB3LYP) =  -895.417230056     A.U. after   15 cycles
 SCF Done:  E(RB3LYP) =  -895.423222185     A.U. after   12 cycles
 SCF Done:  E(RB3LYP) =  -895.423476516     A.U. after   12 cycles
 SCF Done:  E(RB3LYP) =  -895.423855657     A.U. after   12 cycles
 SCF Done:  E(RB3LYP) =  -895.424019249     A.U. after   11 cycles
 SCF Done:  E(RB3LYP) =  -895.424139400     A.U. after   11 cycles
 SCF Done:  E(RB3LYP) =  -895.424363099     A.U. after   14 cycles
 SCF Done:  E(RB3LYP) =  -895.424372929     A.U. after   14 cycles
 SCF Done:  E(RB3LYP) =  -895.424447027     A.U. after   11 cycles
 SCF Done:  E(RB3LYP) =  -895.424417590     A.U. after   12 cycles
 SCF Done:  E(RB3LYP) =  -895.424614919     A.U. after   10 cycles
 SCF Done:  E(RB3LYP) =  -895.424616575     A.U. after    9 cycles
 SCF Done:  E(RB3LYP) =  -895.424617313     A.U. after    8 cycles
 SCF Done:  E(RB3LYP) =  -895.424617574     A.U. after    8 cycles
 SCF Done:  E(RB3LYP) =  -895.424617632     A.U. after    7 cycles
 Optimization completed.
    -- Stationary point found.
 Normal termination of Gaussian 16 at Mon Dec 14 14:02:01 2020.

 --------------------------------------------------------------------
 #N Geom=AllCheck Guess=TCheck SCRF=Check GenChk RB3LYP/6-31G(d) Freq
 --------------------------------------------------------------------

 Structure from the checkpoint file:  "JID_10660.chk"
 -------------------------------
 CID_64406002_JID_10660_neutraal
 -------------------------------
 Charge =  0 Multiplicity = 1

 SCF Done:  E(RB3LYP) =  -895.424617632     A.U. after    1 cycles

  Exact polarizability: 244.682  -5.670 215.720   1.256  -7.915  83.059
 Approx polarizability: 357.804  -2.821 346.407   7.410 -12.112 133.278

                      1                      2                      3
                      A                      A                      A
 Frequencies --     18.5485                22.7668                41.6943
 Red. masses --      4.5703                 4.5103                 5.4755
 Frc consts  --      0.0009                 0.0014                 0.0056
 IR Inten    --      0.8229                 1.1414                 0.6475

                      4                      5                      6
                      A                      A                      A
 Frequencies --     56.5696                70.9486                90.9788
 Red. masses --      7.5344                 4.9204                 6.0631
 Frc consts  --      0.0142                 0.0146                 0.0296
 IR Inten    --      0.1982                 0.3859                 1.6702

                      7                      8                      9
                      A                      A                      A
 Frequencies --    101.2486               129.7837               187.0969
 Red. masses --      3.8243                 5.5901                 1.6608
 Frc consts  --      0.0231                 0.0555                 0.0343
 IR Inten    --      0.7747                 1.2739                 1.4807

                     10                     11                     12
                      A                      A                      A
 Frequencies --    196.0201               204.8632               245.1775
 Red. masses --      1.8841                 4.2916                 3.8912
 Frc consts  --      0.0427                 0.1061                 0.1378
 IR Inten    --      1.4197                 0.5161                 2.4048

                     13                     14                     15
                      A                      A                      A
 Frequencies --    266.4276               301.4371               337.0550
 Red. masses --      5.2941                 4.1737                 5.2671
 Frc consts  --      0.2214                 0.2234                 0.3526
 IR Inten    --      1.6195                 2.0213                 1.2467

                     16                     17                     18
                      A                      A                      A
 Frequencies --    354.1483               379.6365               422.2844
 Red. masses --      5.4793                 5.5465                 3.0702
 Frc consts  --      0.4049                 0.4710                 0.3226
 IR Inten    --      5.9702                 2.0970                 0.1675

                     19                     20                     21
                      A                      A                      A
 Frequencies --    432.8317               444.7491               463.4073
 Red. masses --      1.9734                 4.5623                 1.6495
 Frc consts  --      0.2178                 0.5317                 0.2087
 IR Inten    --     20.1673                 4.1061                17.9335

                     22                     23                     24
                      A                      A                      A
 Frequencies --    502.3587               510.1995               521.9775
 Red. masses --      3.6477                 3.2532                 3.8074
 Frc consts  --      0.5424                 0.4989                 0.6112
 IR Inten    --     15.7635                12.8212                 8.8212

                     25                     26                     27
                      A                      A                      A
 Frequencies --    561.5712               573.1003               582.5396
 Red. masses --      1.1426                 3.1991                 3.0420
 Frc consts  --      0.2123                 0.6191                 0.6082
 IR Inten    --     78.3480                65.5034                26.2048

                     28                     29                     30
                      A                      A                      A
 Frequencies --    629.0111               648.4333               662.9303
 Red. masses --      6.3333                 2.2142                 4.3318
 Frc consts  --      1.4764                 0.5485                 1.1216
 IR Inten    --      0.3455                82.5095                83.1864

                     31                     32                     33
                      A                      A                      A
 Frequencies --    697.0724               700.8021               729.5282
 Red. masses --      3.6475                 2.8823                 3.5789
 Frc consts  --      1.0442                 0.8340                 1.1222
 IR Inten    --      2.4078                13.8875                22.7383

                     34                     35                     36
                      A                      A                      A
 Frequencies --    734.3548               746.5358               759.2510
 Red. masses --      4.9788                 6.8538                 2.8760
 Frc consts  --      1.5819                 2.2505                 0.9768
 IR Inten    --      9.0747                10.4899               119.1282

                     37                     38                     39
                      A                      A                      A
 Frequencies --    768.4324               810.6777               839.2689
 Red. masses --      1.9522                 4.6513                 1.2489
 Frc consts  --      0.6792                 1.8010                 0.5183
 IR Inten    --      9.6010                 9.8565                 1.0002

                     40                     41                     42
                      A                      A                      A
 Frequencies --    847.0899               857.2651               872.5639
 Red. masses --      1.3674                 5.4428                 1.1845
 Frc consts  --      0.5781                 2.3567                 0.5313
 IR Inten    --     21.5811                 1.3592                20.7886

                     43                     44                     45
                      A                      A                      A
 Frequencies --    914.6442               920.4030               959.3491
 Red. masses --      1.4614                 1.4663                 5.0823
 Frc consts  --      0.7203                 0.7318                 2.7559
 IR Inten    --      4.1980                 6.9649                13.7448

                     46                     47                     48
                      A                      A                      A
 Frequencies --    962.9583               964.0653               989.4893
 Red. masses --      1.3346                 1.2969                 1.2468
 Frc consts  --      0.7292                 0.7102                 0.7193
 IR Inten    --      0.3086                 1.2407                 0.2133

                     49                     50                     51
                      A                      A                      A
 Frequencies --   1010.6823              1023.9232              1033.0249
 Red. masses --      2.6257                 5.5785                 2.1003
 Frc consts  --      1.5802                 3.4459                 1.3205
 IR Inten    --     29.4320                 1.0274                20.1738

                     52                     53                     54
                      A                      A                      A
 Frequencies --   1058.8026              1073.6884              1108.0831
 Red. masses --      2.0185                 1.5032                 2.0730
 Frc consts  --      1.3333                 1.0210                 1.4997
 IR Inten    --     12.8642                 4.4808                15.9078

                     55                     56                     57
                      A                      A                      A
 Frequencies --   1114.2483              1150.6020              1171.7597
 Red. masses --      1.5032                 1.8816                 1.4627
 Frc consts  --      1.0996                 1.4676                 1.1832
 IR Inten    --      6.5348                 9.2175                12.5266

                     58                     59                     60
                      A                      A                      A
 Frequencies --   1192.9871              1198.6414              1203.4549
 Red. masses --      1.0997                 1.5644                 1.1682
 Frc consts  --      0.9222                 1.3242                 0.9969
 IR Inten    --      1.3189                31.5456                19.6559

                     61                     62                     63
                      A                      A                      A
 Frequencies --   1231.5573              1253.0984              1284.1076
 Red. masses --      1.7765                 4.2472                 3.1394
 Frc consts  --      1.5876                 3.9294                 3.0500
 IR Inten    --      6.3116               358.4796               108.8124

                     64                     65                     66
                      A                      A                      A
 Frequencies --   1322.4945              1346.4437              1354.3264
 Red. masses --      1.4979                 2.1847                 5.0596
 Frc consts  --      1.5435                 2.3336                 5.4678
 IR Inten    --     48.7497                86.9442                64.9257

                     67                     68                     69
                      A                      A                      A
 Frequencies --   1365.2542              1370.6693              1432.2707
 Red. masses --      2.4889                 4.8762                 2.4302
 Frc consts  --      2.7333                 5.3975                 2.9373
 IR Inten    --    190.0926               557.0358                92.8430

                     70                     71                     72
                      A                      A                      A
 Frequencies --   1444.3799              1477.2698              1487.5371
 Red. masses --      1.3287                 2.3080                 2.2401
 Frc consts  --      1.6332                 2.9676                 2.9205
 IR Inten    --     15.9691                74.9900                55.8191

                     73                     74                     75
                      A                      A                      A
 Frequencies --   1506.0586              1518.1084              1532.7985
 Red. masses --      2.2841                 1.0599                 1.1347
 Frc consts  --      3.0524                 1.4392                 1.5707
 IR Inten    --      4.3765                 8.9773                11.5617

                     76                     77                     78
                      A                      A                      A
 Frequencies --   1544.5993              1565.7953              1627.1531
 Red. masses --      2.2692                 2.6074                 5.7945
 Frc consts  --      3.1897                 3.7665                 9.0390
 IR Inten    --     75.6918                32.0006                67.2428

                     79                     80                     81
                      A                      A                      A
 Frequencies --   1646.6438              1654.7648              1662.7486
 Red. masses --      1.4115                 5.8690                 5.9691
 Frc consts  --      2.2549                 9.4686                 9.7233
 IR Inten    --     81.1956                11.0766                13.9025

                     82                     83                     84
                      A                      A                      A
 Frequencies --   1675.6408              1717.7000              1833.4224
 Red. masses --      6.1541                 3.8920                 9.0015
 Frc consts  --     10.1807                 6.7657                17.8276
 IR Inten    --     24.5612               163.9570               587.4181

                     85                     86                     87
                      A                      A                      A
 Frequencies --   3026.3469              3082.9940              3137.5358
 Red. masses --      1.0468                 1.0927                 1.0985
 Frc consts  --      5.6488                 6.1192                 6.3711
 IR Inten    --     29.0436                16.8339                14.0720

                     88                     89                     90
                      A                      A                      A
 Frequencies --   3187.0910              3190.7651              3200.1947
 Red. masses --      1.0890                 1.0855                 1.0894
 Frc consts  --      6.5173                 6.5113                 6.5737
 IR Inten    --     18.5873                 0.5777                10.8051

                     91                     92                     93
                      A                      A                      A
 Frequencies --   3209.9902              3218.5693              3219.6458
 Red. masses --      1.0933                 1.0975                 1.0928
 Frc consts  --      6.6372                 6.6983                 6.6741
 IR Inten    --     30.6480                10.4473                 6.0179

                     94                     95                     96
                      A                      A                      A
 Frequencies --   3264.2694              3266.5789              3473.8282
 Red. masses --      1.0929                 1.0898                 1.0744
 Frc consts  --      6.8611                 6.8516                 7.6393
 IR Inten    --      0.3395                 0.4322                 1.9902

                     97                     98                     99
                      A                      A                      A
 Frequencies --   3547.3314              3634.6875              3658.1127
 Red. masses --      1.0467                 1.0758                 1.0996
 Frc consts  --      7.7605                 8.3736                 8.6692
 IR Inten    --     20.4793                45.6306                13.2950

 - Thermochemistry -
 -------------------
 Temperature   298.150 Kelvin.  Pressure   1.00000 Atm.
 Atom     1 has atomic number  6 and mass  12.00000

 Molecular mass:   269.11643 amu.
 Principal axes and moments of inertia in atomic units:
                           1         2         3
     Eigenvalues --  3612.971348460.83487**********
           X            0.99988  -0.01555  -0.00138
           Y            0.01554   0.99981  -0.01142
           Z            0.00156   0.01140   0.99993
 This molecule is an asymmetric top.
 Rotational symmetry number  1.
 Warning -- assumption of classical behavior for rotation
           may cause significant error
 Rotational temperatures (Kelvin)      0.02397     0.01024     0.00741
 Rotational constants (GHZ):           0.49952     0.21331     0.15444
 Zero-point vibrational energy     738970.5 (Joules/Mol)
                                  176.61820 (Kcal/Mol)
 Warning -- explicit consideration of  27 degrees of freedom as
           vibrations may cause significant error
 Vibrational temperatures:     26.69    32.76    59.99    81.39   102.08
          (Kelvin)            130.90   145.67   186.73   269.19   282.03
                              294.75   352.76   383.33   433.70   484.95
                              509.54   546.21   607.57   622.75   639.89
                              666.74   722.78   734.06   751.01   807.98
                              824.56   838.14   905.01   932.95   953.81
                             1002.93  1008.30  1049.63  1056.57  1074.10
                             1092.39  1105.60  1166.38  1207.52  1218.77
                             1233.41  1255.42  1315.97  1324.25  1380.29
                             1385.48  1387.07  1423.65  1454.15  1473.20
                             1486.29  1523.38  1544.80  1594.28  1603.15
                             1655.46  1685.90  1716.44  1724.58  1731.50
                             1771.94  1802.93  1847.54  1902.77  1937.23
                             1948.57  1964.30  1972.09  2060.72  2078.14
                             2125.46  2140.23  2166.88  2184.22  2205.36
                             2222.33  2252.83  2341.11  2369.15  2380.84
                             2392.32  2410.87  2471.39  2637.89  4354.24
                             4435.74  4514.21  4585.51  4590.80  4604.37
                             4618.46  4630.80  4632.35  4696.56  4699.88
                             4998.06  5103.82  5229.50  5263.21

 Zero-point correction=                           0.281459 (Hartree/Particle)
 Thermal correction to Energy=                    0.299270
 Thermal correction to Enthalpy=                  0.300214
 Thermal correction to Gibbs Free Energy=         0.233200
 Sum of electronic and zero-point Energies=           -895.143159
 Sum of electronic and thermal Energies=              -895.125348
 Sum of electronic and thermal Enthalpies=            -895.124403
 Sum of electronic and thermal Free Energies=         -895.191417

                     E (Thermal)             CV                S
                      KCal/Mol        Cal/Mol-Kelvin    Cal/Mol-Kelvin
 Total                  187.795             68.616            141.042
 Electronic               0.000              0.000              0.000
 Translational            0.889              2.981             42.669
 Rotational               0.889              2.981             34.234
 Vibrational            186.017             62.654             64.139
 Vibration     1          0.593              1.986              6.784
 Vibration     2          0.593              1.985              6.377
 Vibration     3          0.594              1.981              5.177
 Vibration     4          0.596              1.975              4.573
 Vibration     5          0.598              1.968              4.127
 Vibration     6          0.602              1.956              3.639
 Vibration     7          0.604              1.948              3.430
 Vibration     8          0.612              1.924              2.949
 Vibration     9          0.632              1.858              2.256
 Vibration    10          0.636              1.845              2.170
 Vibration    11          0.640              1.833              2.089
 Vibration    12          0.660              1.771              1.765
 Vibration    13          0.672              1.735              1.619
 Vibration    14          0.693              1.671              1.409
 Vibration    15          0.718              1.601              1.226
 Vibration    16          0.730              1.567              1.148
 Vibration    17          0.750              1.514              1.041
 Vibration    18          0.785              1.422              0.884
 Vibration    19          0.794              1.399              0.849
 Vibration    20          0.804              1.372              0.812
 Vibration    21          0.821              1.331              0.756
 Vibration    22          0.858              1.245              0.652
 Vibration    23          0.865              1.227              0.633
 Vibration    24          0.877              1.201              0.605
 Vibration    25          0.917              1.114              0.521
 Vibration    26          0.929              1.089              0.498
 Vibration    27          0.939              1.069              0.481

                           ! Non-Optimized Parameters !
 Normal termination of Gaussian 16 at Mon Dec 14 14:18:34 2020.

 ----------------------------------------------------------------------
 # B3LYP/6-311++G(d,p) empiricaldispersion=gd3bj scf=xqc pop=npa geom=c
 heck
 ----------------------------------------------------------------------

 ---------------------------------------
 CID_64406002_JID_10660_Energie_neutraal
 ---------------------------------------
 Structure from the checkpoint file:  "JID_10660.chk"
 Charge =  0 Multiplicity = 1

 SCF Done:  E(RB3LYP) =  -895.678574541     A.U. after   16 cycles
 Normal termination of Gaussian 16 at Mon Dec 14 14:25:16 2020.

 ----------------------------------------------------------------------
 # B3LYP/6-311++G(d,p) empiricaldispersion=gd3bj scf=xqc pop=npa geom=c
 heck
 ----------------------------------------------------------------------

 -------------------------------------
 CID_64406002_JID_10660_Energie_kation
 -------------------------------------
 Structure from the checkpoint file:  "JID_10660.chk"
 Charge =  1 Multiplicity = 2

 SCF Done:  E(UB3LYP) =  -895.382949708     A.U. after   30 cycles
 Normal termination of Gaussian 16 at Mon Dec 14 14:41:59 2020.
 Gaussian 16:  ES64L-G16RevA.03 25-Dec-2016

 ----------------------------------------------------------------------
 # B3LYP/6-311++G(d,p) empiricaldispersion=gd3bj scf=xqc pop=npa geom=c
 heck
 ----------------------------------------------------------------------

 ------------------------------------
 CID_64406002_JID_10660_Energie_anion
 ------------------------------------
 Structure from the checkpoint file:  "JID_10660.chk"
 Charge = -1 Multiplicity = 2

                         Standard orientation:
 ---------------------------------------------------------------------
 Center     Atomic      Atomic             Coordinates (Angstroms)
 Number     Number       Type             X           Y           Z
 ---------------------------------------------------------------------
      1          6           0        2.655604   -3.300626    0.419289
      2          6           0        2.617355   -1.800332    0.276346
      3          6           0        1.460369   -1.145396   -0.196545
      4          6           0        1.445528    0.243519   -0.329906
      5          6           0        2.553033    1.009975    0.039199
      6          6           0        3.706691    0.369359    0.504406
      7          6           0        3.725788   -1.018954    0.612216
      8          6           0        2.466738    2.496519   -0.070471
      9          7           0        1.413095    3.203646    0.131656
     10          7           0        3.664370    3.129715   -0.371534
     11          7           0        0.356273   -1.943484   -0.572644
     12          6           0       -0.995790   -1.692511   -0.546180
     13          8           0       -1.820239   -2.492901   -0.933773
     14          8           0       -1.256669   -0.463180   -0.023117
     15          6           0       -2.561243    0.024684    0.065856
     16          6           0       -2.703029    1.384691   -0.200910
     17          6           0       -3.955489    1.979848   -0.059866
     18          6           0       -5.053129    1.216853    0.341170
     19          6           0       -4.889754   -0.143350    0.606629
     20          6           0       -3.641512   -0.753551    0.476993
     21          1           0        1.823443   -3.668562    1.031923
     22          1           0        2.594912   -3.811743   -0.552598
     23          1           0        3.588198   -3.621110    0.890758
     24          1           0        0.572818    0.733080   -0.736671
     25          1           0        4.566279    0.958060    0.806614
     26          1           0        4.617585   -1.515206    0.986020
     27          1           0        0.657594    2.609900    0.479012
     28          1           0        4.265313    2.653974   -1.032691
     29          1           0        3.545655    4.118083   -0.563510
     30          1           0        0.546871   -2.891945   -0.863087
     31          1           0       -1.836830    1.961273   -0.510221
     32          1           0       -4.069450    3.040118   -0.264979
     33          1           0       -6.029514    1.679814    0.448009
     34          1           0       -5.739678   -0.742030    0.921134
     35          1           0       -3.511043   -1.808567    0.673687
 ---------------------------------------------------------------------

 SCF Done:  E(UB3LYP) =  -895.674021402     A.U. after   33 cycles
 SCF Done:  E(UB3LYP) =  -895.674021401     a.u. after    1 cycles

 The electronic state is 2-A.
 Alpha  occ. eigenvalues --  -19.08690 -19.00986 -14.25630 -14.20912 -14.14979
 Alpha  occ. eigenvalues --  -10.23736 -10.15396 -10.11584 -10.10772 -10.09265
 Alpha  occ. eigenvalues --  -10.09228 -10.08999 -10.08954 -10.08859 -10.07555
 Alpha  occ. eigenvalues --  -10.06298 -10.06150 -10.05570 -10.05530 -10.05366
 Alpha  occ. eigenvalues --   -1.03103  -0.94110  -0.85085  -0.83028  -0.77339
 Alpha  occ. eigenvalues --   -0.74277  -0.72977  -0.67622  -0.66837  -0.66549
 Alpha  occ. eigenvalues --   -0.63631  -0.59366  -0.57724  -0.53541  -0.52011
 Alpha  occ. eigenvalues --   -0.50422  -0.48733  -0.46985  -0.44667  -0.43533
 Alpha  occ. eigenvalues --   -0.42070  -0.40014  -0.39423  -0.38823  -0.37401
 Alpha  occ. eigenvalues --   -0.36451  -0.35810  -0.35024  -0.34309  -0.33311
 Alpha  occ. eigenvalues --   -0.32964  -0.32531  -0.31938  -0.30704  -0.29442
 Alpha  occ. eigenvalues --   -0.29076  -0.28069  -0.27218  -0.26872  -0.25582
 Alpha  occ. eigenvalues --   -0.25029  -0.24218  -0.23241  -0.20673  -0.19908
 Alpha  occ. eigenvalues --   -0.17256  -0.15859  -0.15401  -0.14243  -0.13004
 Alpha  occ. eigenvalues --   -0.12098   0.04326
 Alpha virt. eigenvalues --    0.05580   0.06412   0.06788   0.06962   0.07336
 Alpha virt. eigenvalues --    0.07679   0.08528   0.08967   0.09185   0.10050
 Alpha virt. eigenvalues --    0.10271   0.11201   0.11282   0.12055   0.12274

  Beta  occ. eigenvalues --  -19.08688 -19.00973 -14.25635 -14.20893 -14.14824
  Beta  occ. eigenvalues --  -10.23719 -10.15397 -10.11490 -10.10786 -10.09250
  Beta  occ. eigenvalues --  -10.09207 -10.08990 -10.08939 -10.08848 -10.07568
  Beta  occ. eigenvalues --  -10.06181 -10.06001 -10.05508 -10.05458 -10.05155
  Beta  occ. eigenvalues --   -1.03088  -0.94092  -0.85060  -0.82842  -0.77307
  Beta  occ. eigenvalues --   -0.74033  -0.72746  -0.67493  -0.66741  -0.66352
  Beta  occ. eigenvalues --   -0.63471  -0.59164  -0.57665  -0.53481  -0.51941
  Beta  occ. eigenvalues --   -0.50042  -0.48694  -0.46827  -0.44597  -0.43456
  Beta  occ. eigenvalues --   -0.42030  -0.39920  -0.39380  -0.38761  -0.37280
  Beta  occ. eigenvalues --   -0.36346  -0.35766  -0.34928  -0.34279  -0.33182
  Beta  occ. eigenvalues --   -0.32712  -0.32392  -0.31847  -0.30551  -0.29355
  Beta  occ. eigenvalues --   -0.29025  -0.28036  -0.26869  -0.26653  -0.25396
  Beta  occ. eigenvalues --   -0.24917  -0.23879  -0.23151  -0.20411  -0.19864
  Beta  occ. eigenvalues --   -0.17173  -0.15816  -0.14941  -0.13692  -0.12415
  Beta  occ. eigenvalues --   -0.11155
  Beta virt. eigenvalues --    0.06248   0.06513   0.06884   0.07022   0.07342
  Beta virt. eigenvalues --    0.07983   0.08357   0.08643   0.09142   0.09370
  Beta virt. eigenvalues --    0.10035   0.10536   0.11265   0.11358   0.11964

 Mulliken charges and spin densities:
               1          2
     1  C    0.037620  -0.682189
     2  C    0.812255   0.287520
     3  C   -0.382836   0.117366
     4  C   -0.982975   0.484096
     5  C    1.648755  -0.091582
     6  C   -0.624845  -0.353905
     7  C   -0.891167   0.181195
     8  C   -0.446125  -0.033842
     9  N   -0.351143   0.084705
    10  N   -0.317327   0.020648
    11  N   -0.227273  -0.000076
    12  C    0.159691  -0.050288
    13  O   -0.286199   0.004346
    14  O   -0.046456   0.003273
    15  C   -0.104587  -0.035114
    16  C    0.209853   0.136891
    17  C   -0.194103  -0.029774
    18  C    0.670019  -0.956107
    19  C   -0.275370  -0.062625
    20  C   -0.255409   0.174638
    21  H    0.138494   0.026286
    22  H   -0.175483   0.328853
    23  H    0.073800   0.066173
    24  H   -0.021697   0.130782
    25  H    0.183593  -0.032809
    26  H   -0.021763   0.120569
    27  H    0.201938  -0.034854
    28  H    0.128545   0.088316
    29  H    0.268239   0.004829
    30  H    0.353973  -0.029470
    31  H    0.136085   0.015953
    32  H   -0.044455   0.228504
    33  H   -0.367055   0.515738
    34  H   -0.204224   0.373403
    35  H    0.197634  -0.001451
 Sum of Mulliken charges =  -1.00000   1.00000

 Dipole moment (field-independent basis, Debye):
    X=              1.9204    Y=             -2.3850    Z=              0.3373  Tot=              3.0806
 Quadrupole moment (field-independent basis, Debye-Ang):
   XX=           -195.2546   YY=           -163.4353   ZZ=           -135.2453
   XY=              2.6524   XZ=             -0.8827   YZ=             -9.2816

 Summary of Natural Population Analysis:

                                       Natural Population
                Natural  -----------------------------------------------
    Atom  No    Charge         Core      Valence    Rydberg      Total
 -----------------------------------------------------------------------
      C    1   -0.30049      0.99965     2.29544    0.00540     3.30049
      C    2    0.01831      0.99949     1.97399    0.00821     2.98169
      C    3    0.06919      0.99943     1.92010    0.01128     2.93081
      C    4   -0.08333      0.99949     2.07583    0.00800     3.08333
      C    5   -0.02352      0.99947     2.01424    0.00982     3.02352
      C    6   -0.08948      0.99954     2.07992    0.01003     3.08948
      C    7   -0.10609      0.99953     2.09735    0.00921     3.10609
      C    8    0.22797      0.99963     1.75385    0.01856     2.77203
      N    9   -0.35007      0.99971     2.84229    0.00807     3.85007
      N   10   -0.40729      0.99971     2.89823    0.00935     3.90729
      N   11   -0.31243      0.99963     2.80437    0.00842     3.81243
      C   12    0.46647      0.99969     1.51019    0.02365     2.53353
      O   13   -0.32500      0.99987     3.32022    0.00492     4.32500
      O   14   -0.27640      0.99984     3.26791    0.00865     4.27640
      C   15    0.15180      0.99934     1.83727    0.01159     2.84820
      C   16   -0.11519      0.99951     2.10692    0.00875     3.11519
      C   17   -0.09569      0.99957     2.08545    0.01066     3.09569
      C   18   -0.11039      0.99957     2.10082    0.01000     3.11039
      C   19   -0.09681      0.99958     2.08654    0.01070     3.09681
      C   20   -0.11666      0.99951     2.10883    0.00832     3.11666
      H   21    0.10217      0.00000     0.39689    0.00094     0.39783
      H   22    0.10192      0.00000     0.39622    0.00185     0.39808
      H   23    0.10263      0.00000     0.39666    0.00071     0.39737
      H   24    0.10660      0.00000     0.39133    0.00207     0.39340
      H   25    0.10064      0.00000     0.39837    0.00100     0.39936
      H   26    0.09362      0.00000     0.40551    0.00087     0.40638
      H   27    0.16215      0.00000     0.33546    0.00239     0.33785
      H   28    0.18465      0.00000     0.31363    0.00172     0.31535
      H   29    0.18594      0.00000     0.31222    0.00184     0.31406
      H   30    0.20066      0.00000     0.29720    0.00214     0.29934
      H   31    0.11215      0.00000     0.38672    0.00113     0.38785
      H   32    0.10251      0.00000     0.39671    0.00077     0.39749
      H   33    0.10250      0.00000     0.39616    0.00134     0.39750
      H   34    0.10147      0.00000     0.39761    0.00091     0.39853
      H   35    0.11549      0.00000     0.38356    0.00096     0.38451
 =======================================================================
   * Total *   -0.00000     19.99175    50.78401    0.22424    71.00000

 Normal termination of Gaussian 16 at Mon Dec 14 15:01:12 2020.
