 Gaussian 16, Revision A.03,

 -----------------------------------------------------------
 # opt freq B3LYP/6-31G(d) empiricaldispersion=gd3bj scf=xqc
 -----------------------------------------------------------

 -------------------------------
 CID_103747478_JID_9592_neutraal
 -------------------------------
 Symbolic Z-matrix:
 Charge =  0 Multiplicity = 1

 SCF Done:  E(RB3LYP) =  -880.730025147     A.U. after   15 cycles
 SCF Done:  E(RB3LYP) =  -880.738522425     A.U. after   13 cycles
 SCF Done:  E(RB3LYP) =  -880.735781859     A.U. after   14 cycles
 SCF Done:  E(RB3LYP) =  -880.739936277     A.U. after   12 cycles
 SCF Done:  E(RB3LYP) =  -880.741162524     A.U. after   13 cycles
 SCF Done:  E(RB3LYP) =  -880.740839240     A.U. after   13 cycles
 SCF Done:  E(RB3LYP) =  -880.741106944     A.U. after   14 cycles
 SCF Done:  E(RB3LYP) =  -880.741922670     A.U. after   11 cycles
 SCF Done:  E(RB3LYP) =  -880.742336340     A.U. after   12 cycles
 SCF Done:  E(RB3LYP) =  -880.742503950     A.U. after   12 cycles
 SCF Done:  E(RB3LYP) =  -880.743678759     A.U. after   10 cycles
 SCF Done:  E(RB3LYP) =  -880.743692231     A.U. after   10 cycles
 SCF Done:  E(RB3LYP) =  -880.743694053     A.U. after    8 cycles
 SCF Done:  E(RB3LYP) =  -880.743694577     A.U. after    8 cycles
 SCF Done:  E(RB3LYP) =  -880.743694736     A.U. after    8 cycles
 SCF Done:  E(RB3LYP) =  -880.743694781     A.U. after    7 cycles
 Optimization completed.
    -- Stationary point found.
 Normal termination of Gaussian 16 at Sun Dec 13 16:54:43 2020.

 --------------------------------------------------------------------
 #N Geom=AllCheck Guess=TCheck SCRF=Check GenChk RB3LYP/6-31G(d) Freq
 --------------------------------------------------------------------

 Structure from the checkpoint file:  "JID_9592.chk"
 -------------------------------
 CID_103747478_JID_9592_neutraal
 -------------------------------
 Charge =  0 Multiplicity = 1

 SCF Done:  E(RB3LYP) =  -880.743694781     A.U. after    1 cycles

  Exact polarizability: 206.327  13.604 162.758  -9.640  12.089 129.640
 Approx polarizability: 268.016  22.866 263.708 -10.292  43.346 216.757

                      1                      2                      3
                      A                      A                      A
 Frequencies --     19.2478                26.9045                42.7734
 Red. masses --      5.4212                 4.5663                 4.0065
 Frc consts  --      0.0012                 0.0019                 0.0043
 IR Inten    --      1.5005                 2.8514                 1.6820

                      4                      5                      6
                      A                      A                      A
 Frequencies --     61.9007                80.8174                87.9198
 Red. masses --      4.7882                 4.3874                 4.5421
 Frc consts  --      0.0108                 0.0169                 0.0207
 IR Inten    --      1.4163                 1.7384                 2.5495

                      7                      8                      9
                      A                      A                      A
 Frequencies --    112.2953               115.4362               134.7740
 Red. masses --      1.2997                 1.8576                 2.0169
 Frc consts  --      0.0097                 0.0146                 0.0216
 IR Inten    --      0.3362                 0.5285                 0.2852

                     10                     11                     12
                      A                      A                      A
 Frequencies --    147.0396               151.6507               200.8437
 Red. masses --      2.7118                 2.3320                 3.3025
 Frc consts  --      0.0345                 0.0316                 0.0785
 IR Inten    --      2.0344                 1.8588                 3.4481

                     13                     14                     15
                      A                      A                      A
 Frequencies --    216.6604               230.1430               243.9015
 Red. masses --      2.7156                 4.0587                 2.8683
 Frc consts  --      0.0751                 0.1267                 0.1005
 IR Inten    --      3.0544                 0.0947                 5.2935

                     16                     17                     18
                      A                      A                      A
 Frequencies --    279.2077               289.4345               324.8064
 Red. masses --      4.8934                 2.7568                 3.0664
 Frc consts  --      0.2248                 0.1361                 0.1906
 IR Inten    --      2.2794                 6.5395                 2.0898

                     19                     20                     21
                      A                      A                      A
 Frequencies --    344.5955               347.6862               362.0811
 Red. masses --      3.5578                 3.0906                 3.0402
 Frc consts  --      0.2489                 0.2201                 0.2348
 IR Inten    --      9.0699                 1.4014                 5.7318

                     22                     23                     24
                      A                      A                      A
 Frequencies --    396.4074               438.8478               466.9034
 Red. masses --      3.9206                 2.8905                 3.8135
 Frc consts  --      0.3630                 0.3280                 0.4898
 IR Inten    --     14.5500                 7.4400                 1.6043

                     25                     26                     27
                      A                      A                      A
 Frequencies --    489.5196               505.9778               523.6850
 Red. masses --      3.0081                 2.2796                 3.2186
 Frc consts  --      0.4247                 0.3438                 0.5201
 IR Inten    --      4.7735                12.9077                12.9377

                     28                     29                     30
                      A                      A                      A
 Frequencies --    597.6493               634.6507               641.8613
 Red. masses --      6.9111                 6.9993                 4.7282
 Frc consts  --      1.4544                 1.6610                 1.1477
 IR Inten    --      1.8667                 5.8508                 3.3805

                     31                     32                     33
                      A                      A                      A
 Frequencies --    724.8265               741.1152               753.1606
 Red. masses --      4.8516                 4.3869                 2.6489
 Frc consts  --      1.5018                 1.4197                 0.8853
 IR Inten    --      0.6650                 5.6453                15.8453

                     34                     35                     36
                      A                      A                      A
 Frequencies --    769.2367               784.1500               801.7197
 Red. masses --      3.1556                 1.2891                 2.4135
 Frc consts  --      1.1001                 0.4670                 0.9140
 IR Inten    --     20.9434                 1.9732                 9.0858

                     37                     38                     39
                      A                      A                      A
 Frequencies --    816.8454               831.6026               845.5194
 Red. masses --      1.3873                 2.7780                 1.7847
 Frc consts  --      0.5454                 1.1319                 0.7517
 IR Inten    --      7.2652                 4.4148                 7.3416

                     40                     41                     42
                      A                      A                      A
 Frequencies --    877.9534               895.9978               917.9372
 Red. masses --      2.8785                 1.5923                 1.7223
 Frc consts  --      1.3072                 0.7531                 0.8550
 IR Inten    --      1.2688                23.1315                 3.2433

                     43                     44                     45
                      A                      A                      A
 Frequencies --    930.2628               949.3098               964.8829
 Red. masses --      1.2781                 2.5858                 3.5190
 Frc consts  --      0.6517                 1.3730                 1.9303
 IR Inten    --      0.4020                 2.5325                21.7902

                     46                     47                     48
                      A                      A                      A
 Frequencies --    992.3914              1022.9972              1053.3717
 Red. masses --      2.7626                 2.2695                 1.9818
 Frc consts  --      1.6030                 1.3994                 1.2956
 IR Inten    --     18.8435                19.2940                45.3207

                     49                     50                     51
                      A                      A                      A
 Frequencies --   1064.2097              1074.8788              1078.9658
 Red. masses --      1.5669                 1.8471                 2.0540
 Frc consts  --      1.0455                 1.2573                 1.4088
 IR Inten    --     25.2771                51.0071                 6.3753

                     52                     53                     54
                      A                      A                      A
 Frequencies --   1087.3408              1090.9254              1145.9557
 Red. masses --      1.4919                 1.9614                 1.5565
 Frc consts  --      1.0393                 1.3753                 1.2043
 IR Inten    --     10.7286                25.7142                30.3465

                     55                     56                     57
                      A                      A                      A
 Frequencies --   1149.0222              1161.2126              1164.6731
 Red. masses --      1.8777                 1.3124                 1.9735
 Frc consts  --      1.4606                 1.0426                 1.5772
 IR Inten    --     40.2464                 0.0231                25.9180

                     58                     59                     60
                      A                      A                      A
 Frequencies --   1169.2488              1202.9131              1211.5348
 Red. masses --      1.5809                 1.7032                 1.5754
 Frc consts  --      1.2734                 1.4521                 1.3624
 IR Inten    --     28.3294                11.5511                21.3806

                     61                     62                     63
                      A                      A                      A
 Frequencies --   1214.5493              1219.3803              1232.0710
 Red. masses --      1.4150                 1.7783                 2.5439
 Frc consts  --      1.2298                 1.5579                 2.2752
 IR Inten    --      1.3850                12.9859                19.6029

                     64                     65                     66
                      A                      A                      A
 Frequencies --   1239.1292              1264.1563              1310.1745
 Red. masses --      2.0243                 3.0006                 1.6711
 Frc consts  --      1.8313                 2.8253                 1.6901
 IR Inten    --      1.0218                14.7515                79.2972

                     67                     68                     69
                      A                      A                      A
 Frequencies --   1320.3723              1347.8720              1357.0290
 Red. masses --      1.3294                 1.5109                 1.3000
 Frc consts  --      1.3655                 1.6173                 1.4105
 IR Inten    --     36.9896                16.4518                27.8352

                     70                     71                     72
                      A                      A                      A
 Frequencies --   1386.1248              1391.3910              1404.0247
 Red. masses --      2.6708                 1.2700                 1.2963
 Frc consts  --      3.0235                 1.4487                 1.5056
 IR Inten    --     42.6859                 4.2400                 9.5708

                     73                     74                     75
                      A                      A                      A
 Frequencies --   1428.0969              1452.5927              1453.8315
 Red. masses --      1.3356                 1.4516                 2.1516
 Frc consts  --      1.6049                 1.8046                 2.6795
 IR Inten    --     14.1418                17.7911                96.5918

                     76                     77                     78
                      A                      A                      A
 Frequencies --   1472.7253              1490.0230              1493.3907
 Red. masses --      1.2588                 1.1394                 1.0899
 Frc consts  --      1.6087                 1.4904                 1.4322
 IR Inten    --     15.9990                16.3126                 1.9852

                     79                     80                     81
                      A                      A                      A
 Frequencies --   1497.3690              1503.3595              1516.6691
 Red. masses --      1.0424                 1.2089                 1.0860
 Frc consts  --      1.3770                 1.6098                 1.4718
 IR Inten    --      7.2922                19.9001                 3.6682

                     82                     83                     84
                      A                      A                      A
 Frequencies --   1522.4450              1523.9868              1529.4484
 Red. masses --      1.4590                 1.0732                 1.1868
 Frc consts  --      1.9924                 1.4686                 1.6357
 IR Inten    --     13.3340                 2.7677                 1.4831

                     85                     86                     87
                      A                      A                      A
 Frequencies --   1538.6774              1544.1308              1555.8355
 Red. masses --      1.2180                 1.4845                 1.2433
 Frc consts  --      1.6989                 2.0855                 1.7731
 IR Inten    --      0.5894                10.3177                37.6777

                     88                     89                     90
                      A                      A                      A
 Frequencies --   1579.5155              1675.4593              1731.0033
 Red. masses --      5.8133                 6.1100                10.7230
 Frc consts  --      8.5451                10.1055                18.9306
 IR Inten    --    114.8811                59.4073               236.4989

                     91                     92                     93
                      A                      A                      A
 Frequencies --   1766.9633              3034.4592              3037.5643
 Red. masses --      9.6534                 1.0658                 1.0493
 Frc consts  --     17.7576                 5.7821                 5.7041
 IR Inten    --    435.5337                17.6217                 6.3280

                     94                     95                     96
                      A                      A                      A
 Frequencies --   3044.8311              3066.5670              3081.3991
 Red. masses --      1.0624                 1.0581                 1.0313
 Frc consts  --      5.8029                 5.8624                 5.7696
 IR Inten    --    116.6440                20.5465                30.7575

                     97                     98                     99
                      A                      A                      A
 Frequencies --   3090.2480              3094.6436              3104.7223
 Red. masses --      1.1003                 1.1013                 1.1064
 Frc consts  --      6.1908                 6.2142                 6.2833
 IR Inten    --     21.8798                54.3932                27.4902

                    100                    101                    102
                      A                      A                      A
 Frequencies --   3147.5688              3150.8215              3157.8724
 Red. masses --      1.0543                 1.1051                 1.0741
 Frc consts  --      6.1541                 6.4642                 6.3106
 IR Inten    --     13.9542                 8.6218                23.2016

                    103                    104                    105
                      A                      A                      A
 Frequencies --   3159.5762              3163.0603              3173.9136
 Red. masses --      1.0926                 1.0725                 1.1067
 Frc consts  --      6.4261                 6.3223                 6.5688
 IR Inten    --      3.9994                 8.6765                 8.1222

                    106                    107                    108
                      A                      A                      A
 Frequencies --   3199.1365              3220.6742              3226.5137
 Red. masses --      1.0951                 1.0907                 1.1175
 Frc consts  --      6.6033                 6.6656                 6.8544
 IR Inten    --      4.5606                 6.5989                 4.9499

                    109                    110                    111
                      A                      A                      A
 Frequencies --   3243.9844              3249.0286              3257.0643
 Red. masses --      1.0982                 1.1053                 1.0946
 Frc consts  --      6.8091                 6.8743                 6.8417
 IR Inten    --      7.5473                21.0362                 3.3022

 - Thermochemistry -
 -------------------
 Temperature   298.150 Kelvin.  Pressure   1.00000 Atm.
 Atom     1 has atomic number  6 and mass  12.00000

 Molecular mass:   264.14739 amu.
 Principal axes and moments of inertia in atomic units:
                           1         2         3
     Eigenvalues --  2848.442377915.699189300.51549
           X            0.99993  -0.00807  -0.00829
           Y            0.00786   0.99965  -0.02530
           Z            0.00849   0.02524   0.99965
 This molecule is an asymmetric top.
 Rotational symmetry number  1.
 Warning -- assumption of classical behavior for rotation
           may cause significant error
 Rotational temperatures (Kelvin)      0.03041     0.01094     0.00931
 Rotational constants (GHZ):           0.63359     0.22800     0.19405
 Zero-point vibrational energy     871211.7 (Joules/Mol)
                                  208.22460 (Kcal/Mol)
 Warning -- explicit consideration of  28 degrees of freedom as
           vibrations may cause significant error
 Vibrational temperatures:     27.69    38.71    61.54    89.06   116.28
          (Kelvin)            126.50   161.57   166.09   193.91   211.56
                              218.19   288.97   311.73   331.12   350.92
                              401.72   416.43   467.32   495.80   500.24
                              520.95   570.34   631.40   671.77   704.31
                              727.99   753.47   859.88   913.12   923.50
                             1042.86  1066.30  1083.63  1106.76  1128.22
                             1153.50  1175.26  1196.49  1216.51  1263.18
                             1289.14  1320.71  1338.44  1365.85  1388.25
                             1427.83  1471.86  1515.57  1531.16  1546.51
                             1552.39  1564.44  1569.60  1648.77  1653.19
                             1670.73  1675.70  1682.29  1730.72  1743.13
                             1747.47  1754.42  1772.68  1782.83  1818.84
                             1885.05  1899.72  1939.29  1952.46  1994.32
                             2001.90  2020.08  2054.71  2089.96  2091.74
                             2118.92  2143.81  2148.66  2154.38  2163.00
                             2182.15  2190.46  2192.68  2200.54  2213.81
                             2221.66  2238.50  2272.57  2410.61  2490.53
                             2542.27  4365.91  4370.38  4380.83  4412.11
                             4433.45  4446.18  4452.50  4467.00  4528.65
                             4533.33  4543.47  4545.93  4550.94  4566.55
                             4602.84  4633.83  4642.23  4667.37  4674.63
                             4686.19

 Zero-point correction=                           0.331827 (Hartree/Particle)
 Thermal correction to Energy=                    0.351040
 Thermal correction to Enthalpy=                  0.351984
 Thermal correction to Gibbs Free Energy=         0.282474
 Sum of electronic and zero-point Energies=           -880.411868
 Sum of electronic and thermal Energies=              -880.392655
 Sum of electronic and thermal Enthalpies=            -880.391711
 Sum of electronic and thermal Free Energies=         -880.461221

                     E (Thermal)             CV                S
                      KCal/Mol        Cal/Mol-Kelvin    Cal/Mol-Kelvin
 Total                  220.281             71.316            146.297
 Electronic               0.000              0.000              0.000
 Translational            0.889              2.981             42.613
 Rotational               0.889              2.981             33.705
 Vibrational            218.503             65.354             69.978
 Vibration     1          0.593              1.986              6.710
 Vibration     2          0.593              1.984              6.045
 Vibration     3          0.595              1.980              5.126
 Vibration     4          0.597              1.972              4.396
 Vibration     5          0.600              1.962              3.871
 Vibration     6          0.601              1.958              3.706
 Vibration     7          0.607              1.939              3.229
 Vibration     8          0.608              1.937              3.175
 Vibration     9          0.613              1.919              2.877
 Vibration    10          0.617              1.906              2.710
 Vibration    11          0.619              1.901              2.651
 Vibration    12          0.638              1.839              2.125
 Vibration    13          0.645              1.816              1.987
 Vibration    14          0.652              1.795              1.878
 Vibration    15          0.659              1.773              1.774
 Vibration    16          0.680              1.712              1.539
 Vibration    17          0.686              1.693              1.477
 Vibration    18          0.709              1.626              1.286
 Vibration    19          0.723              1.586              1.191
 Vibration    20          0.725              1.580              1.177
 Vibration    21          0.736              1.550              1.113
 Vibration    22          0.763              1.478              0.976
 Vibration    23          0.799              1.385              0.830
 Vibration    24          0.824              1.323              0.746
 Vibration    25          0.845              1.273              0.685
 Vibration    26          0.861              1.237              0.643
 Vibration    27          0.879              1.198              0.601
 Vibration    28          0.956              1.037              0.454

 Optimization completed.
    -- Stationary point found.
 Normal termination of Gaussian 16 at Sun Dec 13 17:16:44 2020.

 ----------------------------------------------------------------------
 # B3LYP/6-311++G(d,p) empiricaldispersion=gd3bj scf=xqc pop=npa geom=c
 heck
 ----------------------------------------------------------------------

 ---------------------------------------
 CID_103747478_JID_9592_Energie_neutraal
 ---------------------------------------
 Structure from the checkpoint file:  "JID_9592.chk"
 Charge =  0 Multiplicity = 1

 SCF Done:  E(RB3LYP) =  -880.991931422     A.U. after   16 cycles
 Normal termination of Gaussian 16 at Sun Dec 13 17:26:56 2020.

 ----------------------------------------------------------------------
 # B3LYP/6-311++G(d,p) empiricaldispersion=gd3bj scf=xqc pop=npa geom=c
 heck
 ----------------------------------------------------------------------

 -------------------------------------
 CID_103747478_JID_9592_Energie_kation
 -------------------------------------
 Structure from the checkpoint file:  "JID_9592.chk"
 Charge =  1 Multiplicity = 2

 SCF Done:  E(UB3LYP) =  -880.697471260     A.U. after   30 cycles
 Normal termination of Gaussian 16 at Sun Dec 13 17:54:18 2020.
 Gaussian 16:  ES64L-G16RevA.03 25-Dec-2016

 ----------------------------------------------------------------------
 # B3LYP/6-311++G(d,p) empiricaldispersion=gd3bj scf=xqc pop=npa geom=c
 heck
 ----------------------------------------------------------------------

 ------------------------------------
 CID_103747478_JID_9592_Energie_anion
 ------------------------------------
 Structure from the checkpoint file:  "JID_9592.chk"
 Charge = -1 Multiplicity = 2

                         Standard orientation:
 ---------------------------------------------------------------------
 Center     Atomic      Atomic             Coordinates (Angstroms)
 Number     Number       Type             X           Y           Z
 ---------------------------------------------------------------------
      1          6           0        5.155560    0.586583   -0.146578
      2          7           0        3.789694    0.069653   -0.166756
      3          6           0        3.502007   -1.166998   -0.668591
      4          6           0        2.230454   -1.654869   -0.698655
      5          6           0        1.177614   -0.850284   -0.172614
      6          6           0        1.453405    0.398362    0.317756
      7          6           0        2.796181    0.939794    0.347179
      8          8           0        3.118077    2.047041    0.774731
      9          6           0       -0.225057   -1.378503   -0.339794
     10          8           0       -0.553658   -1.789105   -1.451734
     11          7           0       -1.091498   -1.346072    0.722032
     12          6           0       -0.695835   -1.141453    2.109453
     13          6           0       -2.451349   -1.862223    0.523408
     14          6           0       -3.574065   -0.811383    0.584696
     15          8           0       -3.908887   -0.237189   -0.663776
     16          6           0       -2.982428    0.699965   -1.211832
     17          6           0       -2.924496    2.012421   -0.467846
     18          6           0       -1.986753    2.215144    0.700564
     19          6           0       -1.697294    2.878705   -0.619756
     20          1           0        5.826827   -0.161169   -0.571558
     21          1           0        5.208621    1.512638   -0.724099
     22          1           0        5.449625    0.816722    0.880350
     23          1           0        4.348773   -1.730099   -1.045479
     24          1           0        2.016838   -2.622583   -1.132176
     25          1           0        0.682363    1.058833    0.694669
     26          1           0       -1.257075   -0.314300    2.558940
     27          1           0       -0.901666   -2.049456    2.691378
     28          1           0        0.365718   -0.915039    2.177399
     29          1           0       -2.481273   -2.355737   -0.448789
     30          1           0       -2.630704   -2.614288    1.303527
     31          1           0       -4.488446   -1.320852    0.907486
     32          1           0       -3.344696   -0.041395    1.333819
     33          1           0       -1.982521    0.259559   -1.304877
     34          1           0       -3.348660    0.873077   -2.229263
     35          1           0       -3.880502    2.528914   -0.408277
     36          1           0       -2.320820    2.832526    1.529602
     37          1           0       -1.360114    1.379705    0.992103
     38          1           0       -0.873160    2.486799   -1.211050
     39          1           0       -1.828422    3.953534   -0.698738
 ---------------------------------------------------------------------

 SCF Done:  E(UB3LYP) =  -881.001821299     A.U. after   32 cycles

 The electronic state is 2-A.
 Alpha  occ. eigenvalues --  -19.02015 -18.94693 -18.92981 -14.22000 -14.21366
 Alpha  occ. eigenvalues --  -10.12759 -10.11519 -10.11341 -10.11019 -10.09180
 Alpha  occ. eigenvalues --  -10.09130 -10.08652 -10.08166 -10.07626 -10.07494
 Alpha  occ. eigenvalues --  -10.06581 -10.02811 -10.02765 -10.00584  -0.93143
 Alpha  occ. eigenvalues --   -0.90368  -0.88875  -0.81326  -0.81321  -0.76457
 Alpha  occ. eigenvalues --   -0.68175  -0.65571  -0.60997  -0.60320  -0.58959
 Alpha  occ. eigenvalues --   -0.57899  -0.52686  -0.50738  -0.49934  -0.48237
 Alpha  occ. eigenvalues --   -0.46797  -0.42921  -0.41185  -0.38907  -0.38663
 Alpha  occ. eigenvalues --   -0.37656  -0.37516  -0.36603  -0.35880  -0.34968
 Alpha  occ. eigenvalues --   -0.34672  -0.34062  -0.31709  -0.30505  -0.30128
 Alpha  occ. eigenvalues --   -0.28830  -0.28570  -0.27900  -0.27425  -0.27188
 Alpha  occ. eigenvalues --   -0.27134  -0.26476  -0.26019  -0.25128  -0.24289
 Alpha  occ. eigenvalues --   -0.22754  -0.22056  -0.20067  -0.19769  -0.19078
 Alpha  occ. eigenvalues --   -0.16248  -0.15514  -0.12559  -0.12539  -0.10692
 Alpha  occ. eigenvalues --   -0.07749   0.04441
 Alpha virt. eigenvalues --    0.06699   0.07630   0.08069   0.08859   0.09293
 Alpha virt. eigenvalues --    0.10119   0.10325   0.10959   0.11386   0.11887
 Alpha virt. eigenvalues --    0.12105   0.12747   0.13468   0.13712   0.13828

  Beta  occ. eigenvalues --  -19.02015 -18.94498 -18.92898 -14.21961 -14.21038
  Beta  occ. eigenvalues --  -10.12647 -10.11507 -10.11341 -10.11018 -10.09175
  Beta  occ. eigenvalues --  -10.09129 -10.08669 -10.08166 -10.07624 -10.07494
  Beta  occ. eigenvalues --  -10.06304 -10.02905 -10.02457 -10.00291  -0.93140
  Beta  occ. eigenvalues --   -0.90041  -0.88631  -0.81166  -0.80864  -0.76456
  Beta  occ. eigenvalues --   -0.67696  -0.65522  -0.60740  -0.60075  -0.58696
  Beta  occ. eigenvalues --   -0.57798  -0.52567  -0.50726  -0.49496  -0.47964
  Beta  occ. eigenvalues --   -0.46690  -0.42795  -0.41155  -0.38813  -0.38509
  Beta  occ. eigenvalues --   -0.37617  -0.37424  -0.36395  -0.35711  -0.34830
  Beta  occ. eigenvalues --   -0.34523  -0.33508  -0.31486  -0.30480  -0.30044
  Beta  occ. eigenvalues --   -0.28707  -0.28442  -0.27790  -0.27340  -0.27135
  Beta  occ. eigenvalues --   -0.27046  -0.26391  -0.25434  -0.24589  -0.24096
  Beta  occ. eigenvalues --   -0.22703  -0.21871  -0.19905  -0.19157  -0.18927
  Beta  occ. eigenvalues --   -0.16090  -0.14164  -0.12167  -0.11782  -0.10372
  Beta  occ. eigenvalues --   -0.06410
  Beta virt. eigenvalues --    0.06779   0.07634   0.08001   0.08822   0.09247
  Beta virt. eigenvalues --    0.10033   0.10179   0.10423   0.10908   0.11310
  Beta virt. eigenvalues --    0.11894   0.12218   0.12726   0.13415   0.13696

 Mulliken charges and spin densities:
               1          2
     1  C   -0.272397  -0.003766
     2  N    0.065168   0.072806
     3  C    0.003286   0.234805
     4  C   -0.526763  -0.119147
     5  C    0.600798   0.169419
     6  C    0.360814   0.319142
     7  C   -0.247213  -0.001170
     8  O   -0.387105   0.025977
     9  C   -1.435916   0.094862
    10  O   -0.254995   0.067014
    11  N    0.167193  -0.010501
    12  C   -0.243788  -0.151233
    13  C   -0.202439   0.028309
    14  C   -0.154902  -0.186336
    15  O   -0.068083   0.002074
    16  C   -0.471866  -0.066534
    17  C    0.217354   0.088976
    18  C   -0.251528  -0.032950
    19  C   -0.460781  -0.035340
    20  H    0.105377  -0.000239
    21  H    0.166548   0.011813
    22  H    0.162249   0.013741
    23  H    0.097355  -0.019416
    24  H    0.159853   0.013898
    25  H    0.228632  -0.019837
    26  H    0.128836   0.024325
    27  H   -0.014542   0.132492
    28  H    0.203567  -0.012307
    29  H    0.275708  -0.026072
    30  H   -0.065759   0.165887
    31  H   -0.050587   0.216419
    32  H    0.135128  -0.003160
    33  H    0.175517   0.019524
    34  H    0.164599  -0.004439
    35  H    0.178222   0.014768
    36  H    0.150164   0.013827
    37  H    0.071869  -0.048358
    38  H    0.144092   0.011201
    39  H    0.146336  -0.000471
 Sum of Mulliken charges =  -1.00000   1.00000

 Dipole moment (field-independent basis, Debye):
    X=             -2.8786    Y=              0.2475    Z=              1.4137  Tot=              3.2166
 Quadrupole moment (field-independent basis, Debye-Ang):
   XX=           -159.8319   YY=           -141.2135   ZZ=           -131.8191
   XY=            -16.6153   XZ=             -7.6270   YZ=             -7.4746

 Summary of Natural Population Analysis:

                                       Natural Population
                Natural  -----------------------------------------------
    Atom  No    Charge         Core      Valence    Rydberg      Total
 -----------------------------------------------------------------------
      C    1   -0.17495      0.99966     2.16819    0.00710     3.17495
      N    2   -0.18550      0.99963     2.67715    0.00872     3.68550
      C    3    0.07613      0.99957     1.91391    0.01038     2.92387
      C    4   -0.16371      0.99954     2.15469    0.00949     3.16371
      C    5    0.01214      0.99946     1.97768    0.01072     2.98786
      C    6   -0.10418      0.99947     2.09331    0.01139     3.10418
      C    7    0.31599      0.99961     1.66357    0.02082     2.68401
      O    8   -0.34809      0.99988     3.34171    0.00650     4.34809
      C    9    0.35803      0.99958     1.61963    0.02276     2.64197
      O   10   -0.31408      0.99988     3.30912    0.00508     4.31408
      N   11   -0.26060      0.99964     2.75048    0.01048     3.76060
      C   12   -0.17775      0.99964     2.17049    0.00763     3.17775
      C   13   -0.10541      0.99961     2.09453    0.01128     3.10541
      C   14   -0.01653      0.99957     2.00288    0.01408     3.01653
      O   15   -0.30302      0.99989     3.29378    0.00936     4.30302
      C   16   -0.01685      0.99954     2.00417    0.01314     3.01685
      C   17   -0.12915      0.99959     2.12042    0.00913     3.12915
      C   18   -0.20147      0.99962     2.19455    0.00730     3.20147
      C   19   -0.19659      0.99963     2.19042    0.00654     3.19659
      H   20    0.08774      0.00000     0.41146    0.00081     0.41226
      H   21    0.09957      0.00000     0.39908    0.00134     0.40043
      H   22    0.09891      0.00000     0.39978    0.00132     0.40109
      H   23    0.08412      0.00000     0.41491    0.00097     0.41588
      H   24    0.10535      0.00000     0.39372    0.00093     0.39465
      H   25    0.09533      0.00000     0.40327    0.00140     0.40467
      H   26    0.08623      0.00000     0.41274    0.00103     0.41377
      H   27    0.08637      0.00000     0.41247    0.00116     0.41363
      H   28    0.11724      0.00000     0.38180    0.00096     0.38276
      H   29    0.12015      0.00000     0.37828    0.00157     0.37985
      H   30    0.08907      0.00000     0.40926    0.00166     0.41093
      H   31    0.08635      0.00000     0.41236    0.00129     0.41365
      H   32    0.08184      0.00000     0.41698    0.00118     0.41816
      H   33    0.09765      0.00000     0.40030    0.00205     0.40235
      H   34    0.08801      0.00000     0.41109    0.00090     0.41199
      H   35    0.09834      0.00000     0.40023    0.00143     0.40166
      H   36    0.09777      0.00000     0.40135    0.00088     0.40223
      H   37    0.10800      0.00000     0.39054    0.00146     0.39200
      H   38    0.10982      0.00000     0.38875    0.00143     0.39018
      H   39    0.09770      0.00000     0.40135    0.00096     0.40230
 =======================================================================
   * Total *   -0.00000     18.99301    51.78037    0.22662    71.00000

 Normal termination of Gaussian 16 at Sun Dec 13 18:23:18 2020.
