 Gaussian 16, Revision A.03,

 -----------------------------------------------------------
 # opt freq B3LYP/6-31G(d) empiricaldispersion=gd3bj scf=xqc
 -----------------------------------------------------------

 ------------------------------
 CID_90902595_JID_2711_neutraal
 ------------------------------
 Symbolic Z-matrix:
 Charge =  0 Multiplicity = 1

 SCF Done:  E(RB3LYP) =  -538.520794989     A.U. after   14 cycles
 SCF Done:  E(RB3LYP) =  -538.524890491     A.U. after   11 cycles
 SCF Done:  E(RB3LYP) =  -538.525016338     A.U. after   11 cycles
 SCF Done:  E(RB3LYP) =  -538.525896537     A.U. after   11 cycles
 SCF Done:  E(RB3LYP) =  -538.526148853     A.U. after   10 cycles
 SCF Done:  E(RB3LYP) =  -538.526334398     A.U. after   11 cycles
 SCF Done:  E(RB3LYP) =  -538.526392445     A.U. after   10 cycles
 SCF Done:  E(RB3LYP) =  -538.526439472     A.U. after    9 cycles
 SCF Done:  E(RB3LYP) =  -538.526460740     A.U. after    9 cycles
 SCF Done:  E(RB3LYP) =  -538.526442156     A.U. after    8 cycles
 SCF Done:  E(RB3LYP) =  -538.528385688     A.U. after    9 cycles
 SCF Done:  E(RB3LYP) =  -538.528399987     A.U. after    9 cycles
 SCF Done:  E(RB3LYP) =  -538.528418560     A.U. after    9 cycles
 SCF Done:  E(RB3LYP) =  -538.528442334     A.U. after   10 cycles
 SCF Done:  E(RB3LYP) =  -538.528452635     A.U. after   10 cycles
 SCF Done:  E(RB3LYP) =  -538.528454956     A.U. after    9 cycles
 Optimization completed.
    -- Stationary point found.
 Normal termination of Gaussian 16 at Wed Dec  9 18:03:27 2020.

 --------------------------------------------------------------------
 #N Geom=AllCheck Guess=TCheck SCRF=Check GenChk RB3LYP/6-31G(d) Freq
 --------------------------------------------------------------------

 Structure from the checkpoint file:  "JID_2711.chk"
 ------------------------------
 CID_90902595_JID_2711_neutraal
 ------------------------------
 Charge =  0 Multiplicity = 1

 SCF Done:  E(RB3LYP) =  -538.528454956     A.U. after    1 cycles

  Exact polarizability: 143.575   1.554 105.055  -7.739  -1.652  93.859
 Approx polarizability: 195.913  -3.715 150.526 -15.119   0.851 135.812

                      1                      2                      3
                      A                      A                      A
 Frequencies --     41.9161                54.4267               125.4738
 Red. masses --      3.5429                 2.7511                 3.0683
 Frc consts  --      0.0037                 0.0048                 0.0285
 IR Inten    --      0.9770                 0.7603                 3.0782

                      4                      5                      6
                      A                      A                      A
 Frequencies --    147.5498               172.0860               192.0792
 Red. masses --      2.6689                 4.3375                 1.4899
 Frc consts  --      0.0342                 0.0757                 0.0324
 IR Inten    --      7.2179                 2.6277                 1.9182

                      7                      8                      9
                      A                      A                      A
 Frequencies --    216.0988               232.2997               267.8592
 Red. masses --      1.1473                 1.7198                 2.8586
 Frc consts  --      0.0316                 0.0547                 0.1208
 IR Inten    --      1.7798                 2.0685                 4.7694

                     10                     11                     12
                      A                      A                      A
 Frequencies --    279.5496               296.4744               315.7790
 Red. masses --      2.8023                 2.0370                 1.2539
 Frc consts  --      0.1290                 0.1055                 0.0737
 IR Inten    --      6.2104                 9.4362                49.7475

                     13                     14                     15
                      A                      A                      A
 Frequencies --    332.5118               360.2211               397.2525
 Red. masses --      1.6050                 1.7178                 2.6668
 Frc consts  --      0.1046                 0.1313                 0.2480
 IR Inten    --      0.4694                17.6525                 4.0980

                     16                     17                     18
                      A                      A                      A
 Frequencies --    412.9276               486.4627               512.4973
 Red. masses --      2.3056                 2.5449                 2.5637
 Frc consts  --      0.2316                 0.3548                 0.3967
 IR Inten    --      0.2125                 5.5782                 1.9743

                     19                     20                     21
                      A                      A                      A
 Frequencies --    526.3887               598.0351               631.1282
 Red. masses --      2.9105                 4.2830                 4.5476
 Frc consts  --      0.4752                 0.9025                 1.0672
 IR Inten    --     21.6487                 2.3247                 5.1077

                     22                     23                     24
                      A                      A                      A
 Frequencies --    719.3438               787.4697               821.5821
 Red. masses --      2.1476                 3.0144                 2.8855
 Frc consts  --      0.6548                 1.1013                 1.1476
 IR Inten    --      8.2303                 5.1319                95.3762

                     25                     26                     27
                      A                      A                      A
 Frequencies --    863.3316               871.0027               913.3999
 Red. masses --      2.6051                 2.0214                 1.7253
 Frc consts  --      1.1440                 0.9035                 0.8481
 IR Inten    --     23.7867                20.9665                51.2654

                     28                     29                     30
                      A                      A                      A
 Frequencies --    927.2287               952.6897               976.4616
 Red. masses --      1.4698                 2.0327                 2.1549
 Frc consts  --      0.7446                 1.0870                 1.2106
 IR Inten    --     16.5688                 4.9805                14.9647

                     31                     32                     33
                      A                      A                      A
 Frequencies --   1028.8507              1045.9646              1065.2033
 Red. masses --      4.2972                 2.1472                 1.7625
 Frc consts  --      2.6800                 1.3841                 1.1782
 IR Inten    --     96.6064                 5.2372                12.3914

                     34                     35                     36
                      A                      A                      A
 Frequencies --   1095.5400              1099.5197              1119.2432
 Red. masses --      1.9229                 1.6853                 1.7066
 Frc consts  --      1.3598                 1.2004                 1.2596
 IR Inten    --     18.9185                23.4136                93.2642

                     37                     38                     39
                      A                      A                      A
 Frequencies --   1137.3958              1156.8406              1162.3983
 Red. masses --      1.2989                 1.6403                 2.0360
 Frc consts  --      0.9900                 1.2934                 1.6208
 IR Inten    --      6.5228                 2.8712                34.4003

                     40                     41                     42
                      A                      A                      A
 Frequencies --   1181.7138              1203.1434              1250.2574
 Red. masses --      1.3951                 2.6723                 1.3951
 Frc consts  --      1.1478                 2.2791                 1.2849
 IR Inten    --     22.9601                 9.7024                43.4674

                     43                     44                     45
                      A                      A                      A
 Frequencies --   1269.3461              1281.0087              1299.5738
 Red. masses --      1.4643                 1.2693                 1.9917
 Frc consts  --      1.3901                 1.2273                 1.9819
 IR Inten    --     20.2889                13.1215                46.5418

                     46                     47                     48
                      A                      A                      A
 Frequencies --   1329.3980              1365.6193              1373.6581
 Red. masses --      1.4287                 1.4893                 1.5448
 Frc consts  --      1.4877                 1.6364                 1.7175
 IR Inten    --     38.6405                41.2730                16.4224

                     49                     50                     51
                      A                      A                      A
 Frequencies --   1381.6187              1393.7719              1411.4577
 Red. masses --      1.3558                 1.3308                 1.8415
 Frc consts  --      1.5248                 1.5231                 2.1615
 IR Inten    --     12.3030                 5.7827                60.7532

                     52                     53                     54
                      A                      A                      A
 Frequencies --   1432.6285              1437.4122              1464.8321
 Red. masses --      1.3028                 1.4742                 1.3590
 Frc consts  --      1.5755                 1.7946                 1.7180
 IR Inten    --     16.1395                12.0520                 2.7428

                     55                     56                     57
                      A                      A                      A
 Frequencies --   1476.1715              1500.5465              1505.8914
 Red. masses --      1.1861                 1.1673                 1.1429
 Frc consts  --      1.5228                 1.5486                 1.5270
 IR Inten    --      0.9579                 7.9821                 2.6473

                     58                     59                     60
                      A                      A                      A
 Frequencies --   1508.6817              1514.7575              1521.5275
 Red. masses --      1.0680                 1.0783                 1.0914
 Frc consts  --      1.4323                 1.4578                 1.4886
 IR Inten    --     17.0637                 0.3582                29.3277

                     61                     62                     63
                      A                      A                      A
 Frequencies --   1524.3028              1525.2882              1537.4316
 Red. masses --      1.1444                 1.0673                 1.0533
 Frc consts  --      1.5667                 1.4629                 1.4669
 IR Inten    --      3.9916                 6.0102                 5.7925

                     64                     65                     66
                      A                      A                      A
 Frequencies --   1542.2508              1555.9142              1728.2497
 Red. masses --      1.0755                 1.0886                 6.3719
 Frc consts  --      1.5072                 1.5527                11.2132
 IR Inten    --      1.5351                14.3303               178.9849

                     67                     68                     69
                      A                      A                      A
 Frequencies --   2981.2733              2987.8438              3007.3353
 Red. masses --      1.0541                 1.0581                 1.0670
 Frc consts  --      5.5202                 5.5654                 5.6854
 IR Inten    --     51.7445               116.4982                34.2209

                     70                     71                     72
                      A                      A                      A
 Frequencies --   3047.8425              3055.2203              3057.2021
 Red. masses --      1.0608                 1.0692                 1.0557
 Frc consts  --      5.8057                 5.8803                 5.8137
 IR Inten    --     38.5284                26.6290                20.8647

                     73                     74                     75
                      A                      A                      A
 Frequencies --   3067.3333              3076.3123              3076.8341
 Red. masses --      1.0896                 1.0809                 1.0775
 Frc consts  --      6.0401                 6.0269                 6.0099
 IR Inten    --     52.1971                17.9981                74.3689

                     76                     77                     78
                      A                      A                      A
 Frequencies --   3090.9963              3095.9134              3119.9981
 Red. masses --      1.1059                 1.0844                 1.1000
 Frc consts  --      6.2254                 6.1238                 6.3091
 IR Inten    --     35.3901                62.6968                36.6933

                     79                     80                     81
                      A                      A                      A
 Frequencies --   3124.5437              3132.0647              3133.2793
 Red. masses --      1.1012                 1.0997                 1.0887
 Frc consts  --      6.3341                 6.3561                 6.2974
 IR Inten    --     14.7673                26.2067                35.5559

                     82                     83                     84
                      A                      A                      A
 Frequencies --   3140.0579              3481.5448              3743.1747
 Red. masses --      1.1026                 1.0733                 1.0663
 Frc consts  --      6.4056                 7.6648                 8.8027
 IR Inten    --     23.7738                 0.1393                 7.9432

 - Thermochemistry -
 -------------------
 Temperature   298.150 Kelvin.  Pressure   1.00000 Atm.
 Atom     1 has atomic number  6 and mass  12.00000

 Molecular mass:   170.14191 amu.
 Principal axes and moments of inertia in atomic units:
                           1         2         3
     Eigenvalues --  1232.946333045.299743178.54045
           X            0.99993   0.01057  -0.00437
           Y           -0.01093   0.99561  -0.09298
           Z            0.00336   0.09302   0.99566
 This molecule is an asymmetric top.
 Rotational symmetry number  1.
 Warning -- assumption of classical behavior for rotation
           may cause significant error
 Rotational temperatures (Kelvin)      0.07025     0.02844     0.02725
 Rotational constants (GHZ):           1.46376     0.59263     0.56779
 Zero-point vibrational energy     713439.1 (Joules/Mol)
                                  170.51604 (Kcal/Mol)
 Warning -- explicit consideration of  20 degrees of freedom as
           vibrations may cause significant error
 Vibrational temperatures:     60.31    78.31   180.53   212.29   247.59
          (Kelvin)            276.36   310.92   334.23   385.39   402.21
                              426.56   454.34   478.41   518.28   571.56
                              594.11   699.91   737.37   757.36   860.44
                              908.05  1034.98  1132.99  1182.07  1242.14
                             1253.18  1314.18  1334.08  1370.71  1404.91
                             1480.29  1504.91  1532.59  1576.24  1581.96
                             1610.34  1636.46  1664.44  1672.43  1700.22
                             1731.06  1798.84  1826.31  1843.09  1869.80
                             1912.71  1964.82  1976.39  1987.84  2005.33
                             2030.77  2061.23  2068.12  2107.57  2123.88
                             2158.95  2166.64  2170.66  2179.40  2189.14
                             2193.13  2194.55  2212.02  2218.95  2238.61
                             2486.57  4289.39  4298.84  4326.88  4385.17
                             4395.78  4398.63  4413.21  4426.13  4426.88
                             4447.25  4454.33  4488.98  4495.52  4506.34
                             4508.09  4517.84  5009.17  5385.59

 Zero-point correction=                           0.271735 (Hartree/Particle)
 Thermal correction to Energy=                    0.284837
 Thermal correction to Enthalpy=                  0.285781
 Thermal correction to Gibbs Free Energy=         0.232730
 Sum of electronic and zero-point Energies=           -538.256720
 Sum of electronic and thermal Energies=              -538.243618
 Sum of electronic and thermal Enthalpies=            -538.242674
 Sum of electronic and thermal Free Energies=         -538.295725

                     E (Thermal)             CV                S
                      KCal/Mol        Cal/Mol-Kelvin    Cal/Mol-Kelvin
 Total                  178.738             49.953            111.655
 Electronic               0.000              0.000              0.000
 Translational            0.889              2.981             41.302
 Rotational               0.889              2.981             30.857
 Vibrational            176.960             43.992             39.495
 Vibration     1          0.595              1.980              5.166
 Vibration     2          0.596              1.976              4.650
 Vibration     3          0.610              1.928              3.014
 Vibration     4          0.617              1.905              2.704
 Vibration     5          0.626              1.877              2.413
 Vibration     6          0.634              1.851              2.208
 Vibration     7          0.645              1.817              1.992
 Vibration     8          0.653              1.792              1.861
 Vibration     9          0.673              1.732              1.610
 Vibration    10          0.680              1.711              1.536
 Vibration    11          0.690              1.680              1.437
 Vibration    12          0.703              1.644              1.332
 Vibration    13          0.714              1.611              1.248
 Vibration    14          0.735              1.554              1.121
 Vibration    15          0.764              1.476              0.973
 Vibration    16          0.777              1.442              0.916
 Vibration    17          0.842              1.280              0.693
 Vibration    18          0.868              1.222              0.628
 Vibration    19          0.881              1.192              0.595
 Vibration    20          0.956              1.036              0.453

                           ! Non-Optimized Parameters !
 Normal termination of Gaussian 16 at Wed Dec  9 18:11:16 2020.

 ----------------------------------------------------------------------
 # B3LYP/6-311++G(d,p) empiricaldispersion=gd3bj scf=xqc pop=npa geom=c
 heck
 ----------------------------------------------------------------------

 --------------------------------------
 CID_90902595_JID_2711_Energie_neutraal
 --------------------------------------
 Structure from the checkpoint file:  "JID_2711.chk"
 Charge =  0 Multiplicity = 1

 SCF Done:  E(RB3LYP) =  -538.692179014     A.U. after   15 cycles
 Normal termination of Gaussian 16 at Wed Dec  9 18:14:41 2020.

 ----------------------------------------------------------------------
 # B3LYP/6-311++G(d,p) empiricaldispersion=gd3bj scf=xqc pop=npa geom=c
 heck
 ----------------------------------------------------------------------

 ------------------------------------
 CID_90902595_JID_2711_Energie_kation
 ------------------------------------
 Structure from the checkpoint file:  "JID_2711.chk"
 Charge =  1 Multiplicity = 2

 SCF Done:  E(UB3LYP) =  -538.434184905     A.U. after   23 cycles
 Normal termination of Gaussian 16 at Wed Dec  9 18:22:24 2020.
 Gaussian 16:  ES64L-G16RevA.03 25-Dec-2016

 ----------------------------------------------------------------------
 # B3LYP/6-311++G(d,p) empiricaldispersion=gd3bj scf=xqc pop=npa geom=c
 heck
 ----------------------------------------------------------------------

 -----------------------------------
 CID_90902595_JID_2711_Energie_anion
 -----------------------------------
 Structure from the checkpoint file:  "JID_2711.chk"
 Charge = -1 Multiplicity = 2

                         Standard orientation:
 ---------------------------------------------------------------------
 Center     Atomic      Atomic             Coordinates (Angstroms)
 Number     Number       Type             X           Y           Z
 ---------------------------------------------------------------------
      1          6           0        1.299017   -0.791392    2.029868
      2          6           0        1.739512   -0.910982    0.569841
      3          6           0        0.521411   -0.881245   -0.381717
      4          6           0       -0.059005    0.508536   -0.465787
      5          6           0       -1.342628    0.887230   -0.271649
      6          7           0       -2.526838    0.176875   -0.124024
      7          6           0       -3.526416    0.748418    0.761001
      8          6           0       -2.605038   -1.257010   -0.290969
      9          6           0        0.980298    1.566339   -0.785448
     10          6           0        2.198835    1.451382    0.151132
     11          7           0        2.752746    0.096450    0.228558
     12          8           0        1.022133   -1.317923   -1.664344
     13          1           0        2.176409   -0.751026    2.681582
     14          1           0        0.687718   -1.654527    2.317145
     15          1           0        0.697300    0.107516    2.198870
     16          1           0        2.217438   -1.888301    0.429864
     17          1           0       -0.205033   -1.608896   -0.010106
     18          1           0       -1.536726    1.960694   -0.274313
     19          1           0       -4.521514    0.386760    0.478526
     20          1           0       -3.356142    0.493948    1.820941
     21          1           0       -3.517384    1.839092    0.670283
     22          1           0       -2.020202   -1.561441   -1.163073
     23          1           0       -2.249433   -1.826971    0.583720
     24          1           0       -3.651215   -1.532077   -0.466919
     25          1           0        0.542716    2.570817   -0.722757
     26          1           0        1.336109    1.441229   -1.819457
     27          1           0        1.912891    1.766057    1.161895
     28          1           0        2.997355    2.126938   -0.177448
     29          1           0        3.111584   -0.149185   -0.693606
     30          1           0        0.383795   -1.018167   -2.329767
 ---------------------------------------------------------------------

 SCF Done:  E(UB3LYP) =  -538.679695267     A.U. after   31 cycles

 The electronic state is 2-A.
 Alpha  occ. eigenvalues --  -19.01826 -14.22386 -14.19451 -10.11345 -10.09574
 Alpha  occ. eigenvalues --  -10.09469 -10.08954 -10.08768 -10.08661 -10.06427
 Alpha  occ. eigenvalues --  -10.05768 -10.05663  -0.91835  -0.83737  -0.81018
 Alpha  occ. eigenvalues --   -0.69083  -0.66796  -0.61626  -0.61004  -0.58407
 Alpha  occ. eigenvalues --   -0.53449  -0.51471  -0.46916  -0.44242  -0.40687
 Alpha  occ. eigenvalues --   -0.40318  -0.37689  -0.36497  -0.35773  -0.35017
 Alpha  occ. eigenvalues --   -0.33532  -0.31991  -0.30186  -0.30089  -0.28999
 Alpha  occ. eigenvalues --   -0.28751  -0.27657  -0.27469  -0.26825  -0.26212
 Alpha  occ. eigenvalues --   -0.24709  -0.23614  -0.21879  -0.19418  -0.17475
 Alpha  occ. eigenvalues --   -0.13144  -0.08736   0.04482
 Alpha virt. eigenvalues --    0.07051   0.07416   0.07833   0.08994   0.09351
 Alpha virt. eigenvalues --    0.09711   0.10205   0.10554   0.11665   0.12017
 Alpha virt. eigenvalues --    0.12567   0.12914   0.13171   0.13489   0.14112

  Beta  occ. eigenvalues --  -19.01804 -14.22386 -14.19448 -10.11335 -10.09571
  Beta  occ. eigenvalues --  -10.09452 -10.08946 -10.08712 -10.08602 -10.06412
  Beta  occ. eigenvalues --  -10.05753 -10.05665  -0.91791  -0.83720  -0.81005
  Beta  occ. eigenvalues --   -0.69063  -0.66776  -0.61550  -0.60957  -0.58362
  Beta  occ. eigenvalues --   -0.53402  -0.51425  -0.46865  -0.44204  -0.40643
  Beta  occ. eigenvalues --   -0.40276  -0.37633  -0.36471  -0.35731  -0.34988
  Beta  occ. eigenvalues --   -0.33513  -0.31969  -0.30144  -0.30052  -0.28952
  Beta  occ. eigenvalues --   -0.28705  -0.27629  -0.27424  -0.26790  -0.26188
  Beta  occ. eigenvalues --   -0.24686  -0.23597  -0.21858  -0.19392  -0.17454
  Beta  occ. eigenvalues --   -0.13130  -0.08714
  Beta virt. eigenvalues --    0.06762   0.07699   0.08131   0.08253   0.09741
  Beta virt. eigenvalues --    0.09836   0.10099   0.10630   0.10655   0.12158
  Beta virt. eigenvalues --    0.12384   0.12975   0.13118   0.13359   0.13862

 Mulliken charges and spin densities:
               1          2
     1  C    0.124859  -0.846121
     2  C   -0.211437   0.250068
     3  C   -0.550657   0.018003
     4  C   -1.409540   2.080926
     5  C    1.168731  -2.057094
     6  N   -0.155066   0.279849
     7  C    1.427285  -1.730636
     8  C    1.009063  -1.411685
     9  C   -0.241312  -0.118168
    10  C    0.050918  -0.560201
    11  N   -0.058785   0.056395
    12  O   -0.142430   0.036644
    13  H    0.181359  -0.023733
    14  H   -0.157376   0.279574
    15  H    0.050712   0.104819
    16  H    0.104665   0.111167
    17  H    0.421947  -0.212573
    18  H   -0.159726   0.342325
    19  H   -0.454219   0.601168
    20  H   -0.281520   0.421657
    21  H   -0.596222   0.716794
    22  H   -0.405995   0.570436
    23  H   -0.196985   0.339763
    24  H   -0.649012   0.809751
    25  H   -0.310676   0.445207
    26  H    0.090910   0.070192
    27  H    0.061333   0.076615
    28  H    0.080246   0.084886
    29  H    0.170843   0.061304
    30  H    0.038089   0.202669
 Sum of Mulliken charges =  -1.00000   1.00000

 Dipole moment (field-independent basis, Debye):
    X=              7.4717    Y=              0.1297    Z=             -0.5820  Tot=              7.4955
 Quadrupole moment (field-independent basis, Debye-Ang):
   XX=           -151.5097   YY=           -116.3001   ZZ=           -109.7918
   XY=              0.3009   XZ=              2.4143   YZ=             -3.3117

 Summary of Natural Population Analysis:

                                       Natural Population
                Natural  -----------------------------------------------
    Atom  No    Charge         Core      Valence    Rydberg      Total
 -----------------------------------------------------------------------
      C    1   -0.29407      0.99964     2.28814    0.00629     3.29407
      C    2   -0.01317      0.99958     2.00047    0.01312     3.01317
      C    3    0.04383      0.99946     1.94274    0.01397     2.95617
      C    4   -0.08573      0.99949     2.07329    0.01294     3.08573
      C    5    0.03030      0.99943     1.95698    0.01329     2.96970
      N    6   -0.25314      0.99970     2.74118    0.01225     3.75314
      C    7   -0.16905      0.99964     2.16100    0.00842     3.16905
      C    8   -0.17550      0.99964     2.16667    0.00919     3.17550
      C    9   -0.20392      0.99960     2.19434    0.00998     3.20392
      C   10   -0.08817      0.99963     2.07647    0.01208     3.08817
      N   11   -0.34203      0.99975     2.83082    0.01146     3.84203
      O   12   -0.38215      0.99990     3.37582    0.00643     4.38215
      H   13    0.10101      0.00000     0.39799    0.00100     0.39899
      H   14    0.10107      0.00000     0.39792    0.00101     0.39893
      H   15    0.10284      0.00000     0.39602    0.00115     0.39716
      H   16    0.09604      0.00000     0.40248    0.00148     0.40396
      H   17    0.08957      0.00000     0.40791    0.00252     0.41043
      H   18    0.09180      0.00000     0.40639    0.00181     0.40820
      H   19    0.09679      0.00000     0.40087    0.00233     0.40321
      H   20    0.08708      0.00000     0.41080    0.00212     0.41292
      H   21    0.09865      0.00000     0.39908    0.00227     0.40135
      H   22    0.09828      0.00000     0.39985    0.00187     0.40172
      H   23    0.08707      0.00000     0.41100    0.00193     0.41293
      H   24    0.10049      0.00000     0.39763    0.00188     0.39951
      H   25    0.10076      0.00000     0.39783    0.00141     0.39924
      H   26    0.09407      0.00000     0.40445    0.00148     0.40593
      H   27    0.08946      0.00000     0.40934    0.00120     0.41054
      H   28    0.09079      0.00000     0.40830    0.00091     0.40921
      H   29    0.17503      0.00000     0.32258    0.00238     0.32497
      H   30    0.23199      0.00000     0.26480    0.00321     0.26801
 =======================================================================
   * Total *    0.00000     11.99545    34.84315    0.16139    47.00000

 Normal termination of Gaussian 16 at Wed Dec  9 18:31:30 2020.
