 Gaussian 16, Revision A.03,

 -----------------------------------------------------------
 # opt freq B3LYP/6-31G(d) empiricaldispersion=gd3bj scf=xqc
 -----------------------------------------------------------

 -------------------------------
 CID_82488189_JID_10645_neutraal
 -------------------------------
 Symbolic Z-matrix:
 Charge =  0 Multiplicity = 1

 SCF Done:  E(RB3LYP) =  -880.596210302     A.U. after   15 cycles
 SCF Done:  E(RB3LYP) =  -880.601278874     A.U. after   13 cycles
 SCF Done:  E(RB3LYP) =  -880.601851453     A.U. after   13 cycles
 SCF Done:  E(RB3LYP) =  -880.603368149     A.U. after   12 cycles
 SCF Done:  E(RB3LYP) =  -880.603759870     A.U. after   12 cycles
 SCF Done:  E(RB3LYP) =  -880.604012735     A.U. after   12 cycles
 SCF Done:  E(RB3LYP) =  -880.604191526     A.U. after   12 cycles
 SCF Done:  E(RB3LYP) =  -880.604328168     A.U. after   12 cycles
 SCF Done:  E(RB3LYP) =  -880.604348503     A.U. after   11 cycles
 SCF Done:  E(RB3LYP) =  -880.604362997     A.U. after   11 cycles
 SCF Done:  E(RB3LYP) =  -880.604417043     A.U. after   10 cycles
 SCF Done:  E(RB3LYP) =  -880.604416185     A.U. after    9 cycles
 SCF Done:  E(RB3LYP) =  -880.604418989     A.U. after   11 cycles
 SCF Done:  E(RB3LYP) =  -880.604421431     A.U. after   10 cycles
 SCF Done:  E(RB3LYP) =  -880.604421463     A.U. after    8 cycles
 SCF Done:  E(RB3LYP) =  -880.604421486     A.U. after    7 cycles
 Optimization completed.
    -- Stationary point found.
 Normal termination of Gaussian 16 at Sun Dec 13 21:12:56 2020.

 --------------------------------------------------------------------
 #N Geom=AllCheck Guess=TCheck SCRF=Check GenChk RB3LYP/6-31G(d) Freq
 --------------------------------------------------------------------

 Structure from the checkpoint file:  "JID_10645.chk"
 -------------------------------
 CID_82488189_JID_10645_neutraal
 -------------------------------
 Charge =  0 Multiplicity = 1

 SCF Done:  E(RB3LYP) =  -880.604421486     A.U. after    1 cycles

  Exact polarizability: 280.695 -18.728 182.787  -1.742 -19.380 112.250
 Approx polarizability: 375.321 -23.310 306.910  -0.425 -52.510 176.155

                      1                      2                      3
                      A                      A                      A
 Frequencies --     11.4308                16.0875                32.0512
 Red. masses --      3.3836                 5.4107                 3.9146
 Frc consts  --      0.0003                 0.0008                 0.0024
 IR Inten    --      0.1598                 0.1175                 0.1137

                      4                      5                      6
                      A                      A                      A
 Frequencies --     42.8648                52.0202                64.6834
 Red. masses --      6.5700                 4.4436                 4.6370
 Frc consts  --      0.0071                 0.0071                 0.0114
 IR Inten    --      0.8441                 0.5040                 0.1336

                      7                      8                      9
                      A                      A                      A
 Frequencies --     77.0620               116.3151               119.2154
 Red. masses --      2.4729                 4.8868                 3.7381
 Frc consts  --      0.0087                 0.0390                 0.0313
 IR Inten    --      0.0759                 0.2861                 0.4429

                     10                     11                     12
                      A                      A                      A
 Frequencies --    176.6459               201.3420               214.8499
 Red. masses --      3.6100                 3.4196                 1.6057
 Frc consts  --      0.0664                 0.0817                 0.0437
 IR Inten    --      2.3089                 1.4156                 0.4935

                     13                     14                     15
                      A                      A                      A
 Frequencies --    224.5008               244.2570               279.0685
 Red. masses --      1.9605                 2.1080                 2.3349
 Frc consts  --      0.0582                 0.0741                 0.1071
 IR Inten    --      0.0058                 0.3125                 0.1448

                     16                     17                     18
                      A                      A                      A
 Frequencies --    294.7109               330.0395               375.5866
 Red. masses --      2.0650                 3.5800                 4.7398
 Frc consts  --      0.1057                 0.2298                 0.3939
 IR Inten    --      0.0597                 1.1156                 0.1527

                     19                     20                     21
                      A                      A                      A
 Frequencies --    395.6923               399.0179               414.1310
 Red. masses --      3.7406                 3.7365                 3.0061
 Frc consts  --      0.3451                 0.3505                 0.3038
 IR Inten    --      1.9307                 1.0117                 0.0075

                     22                     23                     24
                      A                      A                      A
 Frequencies --    442.8964               452.0743               493.1315
 Red. masses --      3.7706                 3.1579                 2.7947
 Frc consts  --      0.4358                 0.3802                 0.4004
 IR Inten    --      0.7440                 3.8920                 1.1243

                     25                     26                     27
                      A                      A                      A
 Frequencies --    529.6807               547.1176               603.6303
 Red. masses --      2.7608                 2.9554                 3.0391
 Frc consts  --      0.4564                 0.5212                 0.6524
 IR Inten    --      9.5911                11.8525                34.0477

                     28                     29                     30
                      A                      A                      A
 Frequencies --    624.5472               635.4913               656.7849
 Red. masses --      4.2844                 3.1244                 5.6295
 Frc consts  --      0.9846                 0.7434                 1.4308
 IR Inten    --     17.2203                29.5312                 2.9627

                     31                     32                     33
                      A                      A                      A
 Frequencies --    665.3840               713.7151               743.3104
 Red. masses --      1.9821                 4.5420                 3.6929
 Frc consts  --      0.5170                 1.3632                 1.2022
 IR Inten    --     94.4719                29.5796                19.5711

                     34                     35                     36
                      A                      A                      A
 Frequencies --    767.7462               779.4104               800.6290
 Red. masses --      3.6601                 1.9244                 2.1696
 Frc consts  --      1.2711                 0.6888                 0.8194
 IR Inten    --      2.1411                12.1845                 1.9749

                     37                     38                     39
                      A                      A                      A
 Frequencies --    815.7672               843.5007               849.0085
 Red. masses --      2.2878                 1.4228                 1.6057
 Frc consts  --      0.8970                 0.5964                 0.6819
 IR Inten    --      0.6554                30.6721                 6.0049

                     40                     41                     42
                      A                      A                      A
 Frequencies --    868.4190               885.1165               901.5463
 Red. masses --      2.0200                 1.7998                 4.1376
 Frc consts  --      0.8976                 0.8307                 1.9814
 IR Inten    --      0.3645                 3.1088                 3.3990

                     43                     44                     45
                      A                      A                      A
 Frequencies --    928.2348               956.0485               966.6848
 Red. masses --      4.8831                 1.3455                 2.3668
 Frc consts  --      2.4789                 0.7246                 1.3031
 IR Inten    --      7.2223                 0.3471                 5.8064

                     46                     47                     48
                      A                      A                      A
 Frequencies --    978.4547               996.5808               999.7843
 Red. masses --      1.4094                 1.4258                 1.4142
 Frc consts  --      0.7950                 0.8343                 0.8329
 IR Inten    --      1.4562                 0.1584                 0.8141

                     49                     50                     51
                      A                      A                      A
 Frequencies --   1002.2785              1015.7532              1038.8019
 Red. masses --      1.3595                 9.2179                 2.7248
 Frc consts  --      0.8047                 5.6035                 1.7324
 IR Inten    --      0.9765                12.0617                17.4882

                     52                     53                     54
                      A                      A                      A
 Frequencies --   1045.6088              1090.7549              1115.7099
 Red. masses --      2.3576                 1.8339                 3.1673
 Frc consts  --      1.5187                 1.2855                 2.3230
 IR Inten    --      2.2373                23.6695                 4.2009

                     55                     56                     57
                      A                      A                      A
 Frequencies --   1136.5619              1145.5928              1153.8235
 Red. masses --      1.5522                 2.1422                 1.5637
 Frc consts  --      1.1814                 1.6564                 1.2266
 IR Inten    --      8.8709                 0.7442                21.1781

                     58                     59                     60
                      A                      A                      A
 Frequencies --   1167.2993              1191.9495              1226.8131
 Red. masses --      1.6513                 1.7634                 1.1926
 Frc consts  --      1.3257                 1.4761                 1.0575
 IR Inten    --    106.0926                 2.8296                15.1239

                     61                     62                     63
                      A                      A                      A
 Frequencies --   1244.4085              1248.0530              1264.4858
 Red. masses --      1.6795                 2.1405                 3.8904
 Frc consts  --      1.5323                 1.9644                 3.6650
 IR Inten    --     83.6111                 1.7175                16.5112

                     64                     65                     66
                      A                      A                      A
 Frequencies --   1278.4068              1302.4114              1320.7808
 Red. masses --      1.5683                 1.6598                 1.7615
 Frc consts  --      1.5101                 1.6588                 1.8105
 IR Inten    --     19.1991                 1.6545                 3.4732

                     67                     68                     69
                      A                      A                      A
 Frequencies --   1329.3874              1349.5197              1363.0615
 Red. masses --      1.7557                 1.9112                 1.8567
 Frc consts  --      1.8281                 2.0508                 2.0325
 IR Inten    --     37.3254                 2.3726                18.8584

                     70                     71                     72
                      A                      A                      A
 Frequencies --   1367.4890              1386.1343              1393.1179
 Red. masses --      1.7411                 1.4846                 2.7713
 Frc consts  --      1.9183                 1.6807                 3.1689
 IR Inten    --     12.7725                 2.1805                50.1962

                     73                     74                     75
                      A                      A                      A
 Frequencies --   1406.7367              1433.4074              1438.0420
 Red. masses --      1.6346                 2.3493                 1.6092
 Frc consts  --      1.9058                 2.8440                 1.9607
 IR Inten    --      2.3206                24.3791                23.1662

                     76                     77                     78
                      A                      A                      A
 Frequencies --   1442.7278              1470.3683              1485.0886
 Red. masses --      1.2362                 2.7891                 1.1651
 Frc consts  --      1.5160                 3.5528                 1.5139
 IR Inten    --      1.7440                35.8404                 8.7730

                     79                     80                     81
                      A                      A                      A
 Frequencies --   1491.8777              1513.5342              1525.8092
 Red. masses --      2.2870                 1.0659                 1.0448
 Frc consts  --      2.9990                 1.4386                 1.4331
 IR Inten    --    153.5080                 0.2088                 8.6328

                     82                     83                     84
                      A                      A                      A
 Frequencies --   1529.0246              1535.2698              1541.6065
 Red. masses --      1.0599                 1.0629                 1.0517
 Frc consts  --      1.4600                 1.4760                 1.4726
 IR Inten    --      1.8798                 7.6202                 1.5614

                     85                     86                     87
                      A                      A                      A
 Frequencies --   1563.0020              1600.8927              1629.3322
 Red. masses --      2.6693                 4.9297                 6.4497
 Frc consts  --      3.8421                 7.4437                10.0881
 IR Inten    --     14.3819                88.7094               357.0198

                     88                     89                     90
                      A                      A                      A
 Frequencies --   1633.7090              1673.3815              1858.9427
 Red. masses --      6.3158                 5.7855                 9.7654
 Frc consts  --      9.9318                 9.5451                19.8825
 IR Inten    --     96.3449                13.4352               277.5977

                     91                     92                     93
                      A                      A                      A
 Frequencies --   3024.8143              3038.4076              3047.4845
 Red. masses --      1.0813                 1.0627                 1.0372
 Frc consts  --      5.8289                 5.7802                 5.6752
 IR Inten    --      7.8472                29.0558                36.8794

                     94                     95                     96
                      A                      A                      A
 Frequencies --   3053.2394              3073.3361              3090.9446
 Red. masses --      1.0368                 1.1016                 1.0592
 Frc consts  --      5.6945                 6.1307                 5.9621
 IR Inten    --     23.6599                14.6340                 2.1100

                     97                     98                     99
                      A                      A                      A
 Frequencies --   3112.0502              3118.0114              3121.2429
 Red. masses --      1.1014                 1.1014                 1.1020
 Frc consts  --      6.2849                 6.3087                 6.3256
 IR Inten    --     35.4816                36.7483                45.6304

                    100                    101                    102
                      A                      A                      A
 Frequencies --   3131.3160              3141.5017              3177.3578
 Red. masses --      1.1019                 1.1046                 1.0907
 Frc consts  --      6.3655                 6.4231                 6.4875
 IR Inten    --     37.9959                 2.4374                36.9759

                    103                    104                    105
                      A                      A                      A
 Frequencies --   3183.5095              3188.7833              3208.5907
 Red. masses --      1.0896                 1.0869                 1.0934
 Frc consts  --      6.5060                 6.5117                 6.6322
 IR Inten    --     17.5270                15.2414                 9.8625

                    106                    107                    108
                      A                      A                      A
 Frequencies --   3234.3927              3238.7647              3691.0970
 Red. masses --      1.0918                 1.0921                 1.0640
 Frc consts  --      6.7293                 6.7498                 8.5406
 IR Inten    --      2.0750                11.2280                44.3835

 - Thermochemistry -
 -------------------
 Temperature   298.150 Kelvin.  Pressure   1.00000 Atm.
 Atom     1 has atomic number  6 and mass  12.00000

 Molecular mass:   270.13683 amu.
 Principal axes and moments of inertia in atomic units:
                           1         2         3
     Eigenvalues --  2680.92607********************
           X            0.99997  -0.00792  -0.00206
           Y            0.00793   0.99997   0.00200
           Z            0.00204  -0.00202   1.00000
 This molecule is an asymmetric top.
 Rotational symmetry number  1.
 Warning -- assumption of classical behavior for rotation
           may cause significant error
 Rotational temperatures (Kelvin)      0.03231     0.00681     0.00599
 Rotational constants (GHZ):           0.67318     0.14195     0.12483
 Zero-point vibrational energy     827529.1 (Joules/Mol)
                                  197.78421 (Kcal/Mol)
 Warning -- explicit consideration of  27 degrees of freedom as
           vibrations may cause significant error
 Vibrational temperatures:     16.45    23.15    46.11    61.67    74.85
          (Kelvin)             93.06   110.88   167.35   171.52   254.15
                              289.69   309.12   323.01   351.43   401.52
                              424.02   474.85   540.39   569.31   574.10
                              595.84   637.23   650.43   709.51   762.09
                              787.18   868.49   898.58   914.33   944.97
                              957.34  1026.88  1069.46  1104.62  1121.40
                             1151.93  1173.71  1213.61  1221.53  1249.46
                             1273.49  1297.12  1335.52  1375.54  1390.84
                             1407.78  1433.86  1438.47  1442.06  1461.44
                             1494.60  1504.40  1569.35  1605.26  1635.26
                             1648.25  1660.09  1679.48  1714.95  1765.11
                             1790.43  1795.67  1819.31  1839.34  1873.88
                             1900.31  1912.69  1941.66  1961.14  1967.51
                             1994.34  2004.39  2023.98  2062.35  2069.02
                             2075.76  2115.53  2136.71  2146.48  2177.64
                             2195.30  2199.93  2208.91  2218.03  2248.81
                             2303.33  2344.25  2350.54  2407.62  2674.60
                             4352.03  4371.59  4384.65  4392.93  4421.85
                             4447.18  4477.55  4486.12  4490.77  4505.27
                             4519.92  4571.51  4580.36  4587.95  4616.45
                             4653.57  4659.86  5310.67

 Zero-point correction=                           0.315189 (Hartree/Particle)
 Thermal correction to Energy=                    0.334057
 Thermal correction to Enthalpy=                  0.335001
 Thermal correction to Gibbs Free Energy=         0.263755
 Sum of electronic and zero-point Energies=           -880.289232
 Sum of electronic and thermal Energies=              -880.270365
 Sum of electronic and thermal Enthalpies=            -880.269421
 Sum of electronic and thermal Free Energies=         -880.340666

                     E (Thermal)             CV                S
                      KCal/Mol        Cal/Mol-Kelvin    Cal/Mol-Kelvin
 Total                  209.624             70.431            149.949
 Electronic               0.000              0.000              0.000
 Translational            0.889              2.981             42.680
 Rotational               0.889              2.981             34.554
 Vibrational            207.846             64.470             72.715
 Vibration     1          0.593              1.987              7.745
 Vibration     2          0.593              1.986              7.067
 Vibration     3          0.594              1.983              5.698
 Vibration     4          0.595              1.980              5.122
 Vibration     5          0.596              1.977              4.739
 Vibration     6          0.597              1.971              4.309
 Vibration     7          0.599              1.964              3.964
 Vibration     8          0.608              1.936              3.161
 Vibration     9          0.609              1.933              3.113
 Vibration    10          0.628              1.871              2.364
 Vibration    11          0.638              1.838              2.121
 Vibration    12          0.645              1.818              2.002
 Vibration    13          0.649              1.804              1.922
 Vibration    14          0.660              1.772              1.772
 Vibration    15          0.679              1.712              1.539
 Vibration    16          0.689              1.684              1.447
 Vibration    17          0.713              1.615              1.260
 Vibration    18          0.746              1.522              1.057
 Vibration    19          0.762              1.479              0.979
 Vibration    20          0.765              1.472              0.966
 Vibration    21          0.778              1.440              0.912
 Vibration    22          0.803              1.377              0.818
 Vibration    23          0.811              1.356              0.790
 Vibration    24          0.849              1.265              0.676
 Vibration    25          0.885              1.184              0.588
 Vibration    26          0.902              1.146              0.550
 Vibration    27          0.962              1.024              0.443

                           ! Non-Optimized Parameters !
 Normal termination of Gaussian 16 at Sun Dec 13 21:28:17 2020.

 ----------------------------------------------------------------------
 # B3LYP/6-311++G(d,p) empiricaldispersion=gd3bj scf=xqc pop=npa geom=c
 heck
 ----------------------------------------------------------------------

 ---------------------------------------
 CID_82488189_JID_10645_Energie_neutraal
 ---------------------------------------
 Structure from the checkpoint file:  "JID_10645.chk"
 Charge =  0 Multiplicity = 1

 SCF Done:  E(RB3LYP) =  -880.846713389     A.U. after   15 cycles
 Normal termination of Gaussian 16 at Sun Dec 13 21:34:29 2020.

 ----------------------------------------------------------------------
 # B3LYP/6-311++G(d,p) empiricaldispersion=gd3bj scf=xqc pop=npa geom=c
 heck
 ----------------------------------------------------------------------

 -------------------------------------
 CID_82488189_JID_10645_Energie_kation
 -------------------------------------
 Structure from the checkpoint file:  "JID_10645.chk"
 Charge =  1 Multiplicity = 2

 SCF Done:  E(UB3LYP) =  -880.541824855     A.U. after   25 cycles
 Normal termination of Gaussian 16 at Sun Dec 13 21:48:45 2020.
 Gaussian 16:  ES64L-G16RevA.03 25-Dec-2016

 ----------------------------------------------------------------------
 # B3LYP/6-311++G(d,p) empiricaldispersion=gd3bj scf=xqc pop=npa geom=c
 heck
 ----------------------------------------------------------------------

 ------------------------------------
 CID_82488189_JID_10645_Energie_anion
 ------------------------------------
 Structure from the checkpoint file:  "JID_10645.chk"
 Charge = -1 Multiplicity = 2

                         Standard orientation:
 ---------------------------------------------------------------------
 Center     Atomic      Atomic             Coordinates (Angstroms)
 Number     Number       Type             X           Y           Z
 ---------------------------------------------------------------------
      1          6           0        6.316751   -1.227602   -1.023887
      2          6           0        4.913249   -0.616579   -1.011950
      3          6           0        4.288393   -0.498825    0.396410
      4          6           0        5.095896    0.426725    1.322551
      5          6           0        2.839895   -0.058407    0.301708
      6          6           0        1.800862   -0.919898    0.673639
      7          6           0        0.468904   -0.532068    0.579055
      8          6           0        0.128794    0.745206    0.107906
      9          6           0        1.166959    1.611271   -0.270590
     10          6           0        2.495656    1.214612   -0.174902
     11          6           0       -1.295299    1.135569    0.021982
     12          7           0       -2.204232    0.177710    0.280765
     13          6           0       -3.497350    0.496473    0.202898
     14          7           0       -4.004331    1.695945   -0.108574
     15          6           0       -3.097636    2.651737   -0.353577
     16          6           0       -1.728231    2.431017   -0.302964
     17          6           0       -4.477593   -0.608595    0.528119
     18          6           0       -4.036567   -1.947201   -0.027436
     19          8           0       -3.814153   -2.945248    0.617298
     20          8           0       -3.936760   -1.907207   -1.379187
     21          1           0        7.043499   -0.594655   -0.504009
     22          1           0        6.673268   -1.362720   -2.050873
     23          1           0        6.322115   -2.210807   -0.537392
     24          1           0        4.938717    0.378252   -1.477156
     25          1           0        4.245613   -1.226423   -1.633461
     26          1           0        4.295003   -1.503795    0.841020
     27          1           0        5.183157    1.433765    0.897952
     28          1           0        4.610660    0.516907    2.299809
     29          1           0        6.108242    0.042703    1.481978
     30          1           0        2.042282   -1.912818    1.045132
     31          1           0       -0.328730   -1.206849    0.867502
     32          1           0        0.945061    2.601477   -0.655166
     33          1           0        3.276380    1.906279   -0.478482
     34          1           0       -3.492041    3.635514   -0.601641
     35          1           0       -1.036078    3.239657   -0.501909
     36          1           0       -4.568191   -0.720046    1.612584
     37          1           0       -5.456517   -0.340412    0.121496
     38          1           0       -3.631295   -2.792578   -1.651390
 ---------------------------------------------------------------------

 SCF Done:  E(UB3LYP) =  -880.866080462     A.U. after   24 cycles

 The electronic state is 2-A.
 Alpha  occ. eigenvalues --  -19.06902 -19.01273 -14.15261 -14.15229 -10.20361
 Alpha  occ. eigenvalues --  -10.10337 -10.07767 -10.07421 -10.07270 -10.07161
 Alpha  occ. eigenvalues --  -10.06547 -10.06483 -10.05539 -10.04266 -10.03964
 Alpha  occ. eigenvalues --  -10.03904 -10.03755 -10.03556 -10.03266 -10.02662
 Alpha  occ. eigenvalues --   -1.00844  -0.91935  -0.83700  -0.74405  -0.73170
 Alpha  occ. eigenvalues --   -0.70173  -0.67880  -0.64439  -0.62411  -0.61278
 Alpha  occ. eigenvalues --   -0.60105  -0.55406  -0.52383  -0.51567  -0.49145
 Alpha  occ. eigenvalues --   -0.48403  -0.46099  -0.44255  -0.39923  -0.39324
 Alpha  occ. eigenvalues --   -0.38468  -0.37027  -0.36801  -0.35630  -0.34667
 Alpha  occ. eigenvalues --   -0.33479  -0.33210  -0.32339  -0.31506  -0.30493
 Alpha  occ. eigenvalues --   -0.30265  -0.30007  -0.29416  -0.28947  -0.28719
 Alpha  occ. eigenvalues --   -0.27301  -0.27074  -0.26025  -0.24653  -0.24399
 Alpha  occ. eigenvalues --   -0.23515  -0.22814  -0.22526  -0.20843  -0.20397
 Alpha  occ. eigenvalues --   -0.18319  -0.18020  -0.15649  -0.14608  -0.12654
 Alpha  occ. eigenvalues --   -0.10569  -0.10377   0.03432
 Alpha virt. eigenvalues --    0.06021   0.07946   0.08053   0.08362   0.09117
 Alpha virt. eigenvalues --    0.09317   0.09806   0.10287   0.10724   0.10821
 Alpha virt. eigenvalues --    0.11295   0.11540   0.11925   0.12219   0.12486

  Beta  occ. eigenvalues --  -19.06895 -19.01271 -14.15059 -14.14839 -10.20359
  Beta  occ. eigenvalues --  -10.10387 -10.07760 -10.07442 -10.07249 -10.07161
  Beta  occ. eigenvalues --  -10.06460 -10.06413 -10.05122 -10.04335 -10.04024
  Beta  occ. eigenvalues --  -10.03616 -10.03614 -10.03588 -10.03209 -10.02496
  Beta  occ. eigenvalues --   -1.00834  -0.91927  -0.83225  -0.73853  -0.72800
  Beta  occ. eigenvalues --   -0.70007  -0.67720  -0.64296  -0.62190  -0.61065
  Beta  occ. eigenvalues --   -0.59842  -0.55285  -0.52337  -0.50996  -0.49052
  Beta  occ. eigenvalues --   -0.48257  -0.45975  -0.44022  -0.39816  -0.39239
  Beta  occ. eigenvalues --   -0.38421  -0.37008  -0.36655  -0.35498  -0.34600
  Beta  occ. eigenvalues --   -0.33404  -0.33076  -0.32172  -0.31289  -0.30370
  Beta  occ. eigenvalues --   -0.30172  -0.29910  -0.29353  -0.28891  -0.28659
  Beta  occ. eigenvalues --   -0.27268  -0.26108  -0.25825  -0.24397  -0.24126
  Beta  occ. eigenvalues --   -0.23475  -0.22504  -0.22212  -0.20732  -0.20234
  Beta  occ. eigenvalues --   -0.18275  -0.16113  -0.15271  -0.13627  -0.12049
  Beta  occ. eigenvalues --   -0.10207  -0.09103
  Beta virt. eigenvalues --    0.05931   0.07911   0.07991   0.08263   0.08909
  Beta virt. eigenvalues --    0.09237   0.09325   0.09889   0.10387   0.10685
  Beta virt. eigenvalues --    0.10825   0.11234   0.11534   0.11941   0.12181

 Mulliken charges and spin densities:
               1          2
     1  C   -0.537744  -0.082363
     2  C   -0.389177   0.047873
     3  C    0.190051   0.004804
     4  C   -0.642466  -0.048849
     5  C    0.667281   0.196961
     6  C   -0.664642  -0.028911
     7  C   -0.331737   0.188643
     8  C    0.938457  -0.029593
     9  C   -0.464163   0.109255
    10  C   -0.784335  -0.041771
    11  C    0.240972   0.216536
    12  N    0.195309   0.109186
    13  C   -0.312863  -0.029233
    14  N   -0.109970   0.180164
    15  C   -0.365396   0.116877
    16  C   -0.396779   0.000396
    17  C   -0.214560  -0.003838
    18  C   -0.099312  -0.001706
    19  O   -0.265801   0.002104
    20  O   -0.111559   0.001699
    21  H    0.109030   0.023807
    22  H    0.108033   0.021052
    23  H    0.114672   0.011068
    24  H    0.116676   0.006096
    25  H    0.153074   0.002564
    26  H    0.151123  -0.002936
    27  H    0.136726   0.009369
    28  H    0.137353  -0.001430
    29  H    0.071844   0.034838
    30  H    0.113821   0.004958
    31  H    0.195656  -0.008718
    32  H    0.073854  -0.001263
    33  H    0.112060  -0.003711
    34  H    0.140273  -0.011821
    35  H    0.083846   0.004757
    36  H    0.191433  -0.000249
    37  H    0.182973  -0.002210
    38  H    0.265987   0.005595
 Sum of Mulliken charges =  -1.00000   1.00000

 Dipole moment (field-independent basis, Debye):
    X=              4.7942    Y=             -1.2438    Z=             -1.4232  Tot=              5.1533
 Quadrupole moment (field-independent basis, Debye-Ang):
   XX=           -183.1047   YY=           -137.9135   ZZ=           -130.1804
   XY=              5.1654   XZ=              1.4766   YZ=              4.5866

 Summary of Natural Population Analysis:

                                       Natural Population
                Natural  -----------------------------------------------
    Atom  No    Charge         Core      Valence    Rydberg      Total
 -----------------------------------------------------------------------
      C    1   -0.28675      0.99967     2.28250    0.00458     3.28675
      C    2   -0.18133      0.99963     2.17500    0.00671     3.18133
      C    3   -0.11542      0.99958     2.10678    0.00906     3.11542
      C    4   -0.28027      0.99966     2.27594    0.00467     3.28027
      C    5    0.03515      0.99949     1.95530    0.01005     2.96485
      C    6   -0.12524      0.99952     2.11714    0.00858     3.12524
      C    7   -0.04764      0.99954     2.03892    0.00919     3.04764
      C    8   -0.05520      0.99954     2.03783    0.01783     3.05520
      C    9   -0.05877      0.99954     2.05154    0.00768     3.05877
      C   10   -0.12931      0.99952     2.12185    0.00793     3.12931
      C   11    0.24511      0.99953     1.74252    0.01284     2.75489
      N   12   -0.25479      0.99966     2.73621    0.01891     3.75479
      C   13    0.20305      0.99962     1.77667    0.02066     2.79695
      N   14   -0.21914      0.99967     2.70762    0.01185     3.71914
      C   15    0.05403      0.99962     1.93054    0.01581     2.94597
      C   16   -0.15586      0.99949     2.14512    0.01126     3.15586
      C   17   -0.25284      0.99954     2.24394    0.00937     3.25284
      C   18    0.41758      0.99974     1.55668    0.02599     2.58242
      O   19   -0.31107      0.99986     3.30419    0.00702     4.31107
      O   20   -0.34283      0.99987     3.33672    0.00624     4.34283
      H   21    0.09362      0.00000     0.40511    0.00127     0.40638
      H   22    0.09472      0.00000     0.40393    0.00135     0.40528
      H   23    0.09347      0.00000     0.40530    0.00123     0.40653
      H   24    0.09229      0.00000     0.40617    0.00154     0.40771
      H   25    0.09875      0.00000     0.40027    0.00099     0.40125
      H   26    0.09075      0.00000     0.40758    0.00167     0.40925
      H   27    0.09467      0.00000     0.40448    0.00085     0.40533
      H   28    0.10189      0.00000     0.39737    0.00074     0.39811
      H   29    0.09093      0.00000     0.40781    0.00126     0.40907
      H   30    0.09034      0.00000     0.40826    0.00140     0.40966
      H   31    0.10914      0.00000     0.38969    0.00116     0.39086
      H   32    0.09041      0.00000     0.40809    0.00150     0.40959
      H   33    0.09002      0.00000     0.40855    0.00143     0.40998
      H   34    0.07777      0.00000     0.42088    0.00135     0.42223
      H   35    0.09492      0.00000     0.40260    0.00248     0.40508
      H   36    0.11183      0.00000     0.38709    0.00107     0.38817
      H   37    0.11645      0.00000     0.38223    0.00132     0.38355
      H   38    0.23358      0.00000     0.26204    0.00438     0.26642
 =======================================================================
   * Total *    0.00400     19.99230    51.75049    0.25320    71.99600

 Normal termination of Gaussian 16 at Sun Dec 13 22:02:14 2020.
