 Gaussian 16, Revision A.03,

 -----------------------------------------------------------
 # opt freq B3LYP/6-31G(d) empiricaldispersion=gd3bj scf=xqc
 -----------------------------------------------------------

 -------------------------------
 CID_63033144_JID_10809_neutraal
 -------------------------------
 Symbolic Z-matrix:
 Charge =  0 Multiplicity = 1

 SCF Done:  E(RB3LYP) =  -913.982500436     A.U. after   15 cycles
 SCF Done:  E(RB3LYP) =  -913.992699212     A.U. after   13 cycles
 SCF Done:  E(RB3LYP) =  -913.993564788     A.U. after   14 cycles
 SCF Done:  E(RB3LYP) =  -913.994225216     A.U. after   12 cycles
 SCF Done:  E(RB3LYP) =  -913.994318310     A.U. after   12 cycles
 SCF Done:  E(RB3LYP) =  -913.994285652     A.U. after   11 cycles
 SCF Done:  E(RB3LYP) =  -913.994290346     A.U. after   12 cycles
 SCF Done:  E(RB3LYP) =  -913.994343530     A.U. after   12 cycles
 SCF Done:  E(RB3LYP) =  -913.994350639     A.U. after    9 cycles
 SCF Done:  E(RB3LYP) =  -913.994351671     A.U. after    9 cycles
 SCF Done:  E(RB3LYP) =  -913.994377597     A.U. after   10 cycles
 SCF Done:  E(RB3LYP) =  -913.994378116     A.U. after    8 cycles
 SCF Done:  E(RB3LYP) =  -913.994378351     A.U. after    8 cycles
 SCF Done:  E(RB3LYP) =  -913.994378373     A.U. after    7 cycles
 SCF Done:  E(RB3LYP) =  -913.994378380     A.U. after    7 cycles
 Optimization completed.
    -- Stationary point found.
 Normal termination of Gaussian 16 at Sun Dec 13 21:30:37 2020.

 --------------------------------------------------------------------
 #N Geom=AllCheck Guess=TCheck SCRF=Check GenChk RB3LYP/6-31G(d) Freq
 --------------------------------------------------------------------

 Structure from the checkpoint file:  "JID_10809.chk"
 -------------------------------
 CID_63033144_JID_10809_neutraal
 -------------------------------
 Charge =  0 Multiplicity = 1

 SCF Done:  E(RB3LYP) =  -913.994378380     A.U. after    1 cycles

  Exact polarizability: 289.885  -6.707 190.477  -3.934  -5.194  82.452
 Approx polarizability: 418.951 -19.161 319.387  -2.597 -16.654 129.098

                      1                      2                      3
                      A                      A                      A
 Frequencies --     17.5899                24.9912                49.5278
 Red. masses --      5.1730                 4.5179                 6.0358
 Frc consts  --      0.0009                 0.0017                 0.0087
 IR Inten    --      0.2117                 0.1297                 0.8672

                      4                      5                      6
                      A                      A                      A
 Frequencies --     68.2636                82.5656               106.0035
 Red. masses --      4.2450                 3.8177                 3.9034
 Frc consts  --      0.0117                 0.0153                 0.0258
 IR Inten    --      3.2431                 2.1073                11.3608

                      7                      8                      9
                      A                      A                      A
 Frequencies --    128.5739               142.9817               154.3735
 Red. masses --      4.0754                 3.6529                 3.4762
 Frc consts  --      0.0397                 0.0440                 0.0488
 IR Inten    --      0.8655                 4.3206                 0.3774

                     10                     11                     12
                      A                      A                      A
 Frequencies --    165.1601               208.2032               246.2575
 Red. masses --      1.3738                 6.0114                 6.4959
 Frc consts  --      0.0221                 0.1535                 0.2321
 IR Inten    --      1.2454                 9.1295                 1.0400

                     13                     14                     15
                      A                      A                      A
 Frequencies --    256.3270               276.7892               314.1277
 Red. masses --      4.9186                 3.3219                 7.3881
 Frc consts  --      0.1904                 0.1499                 0.4295
 IR Inten    --      1.0879                 0.7771                 1.8348

                     16                     17                     18
                      A                      A                      A
 Frequencies --    349.5060               378.8296               396.1471
 Red. masses --      4.7976                 5.3593                 6.9301
 Frc consts  --      0.3453                 0.4532                 0.6408
 IR Inten    --      1.7465                 0.2047                 2.6306

                     19                     20                     21
                      A                      A                      A
 Frequencies --    456.5967               506.6066               526.2200
 Red. masses --      5.7258                 3.8451                 5.8640
 Frc consts  --      0.7033                 0.5814                 0.9567
 IR Inten    --      7.1250                 6.0221                 6.2503

                     22                     23                     24
                      A                      A                      A
 Frequencies --    570.5001               586.2948               594.7058
 Red. masses --      7.1616                 4.0946                 4.8940
 Frc consts  --      1.3733                 0.8293                 1.0198
 IR Inten    --      3.7195                 4.2519                 2.7561

                     25                     26                     27
                      A                      A                      A
 Frequencies --    609.3076               640.5177               663.8322
 Red. masses --      3.2984                 5.0324                 6.0112
 Frc consts  --      0.7215                 1.2164                 1.5607
 IR Inten    --      5.0095                 7.1388                 5.2364

                     28                     29                     30
                      A                      A                      A
 Frequencies --    699.3111               739.4323               751.2885
 Red. masses --      5.7514                 3.4917                 2.0236
 Frc consts  --      1.6572                 1.1248                 0.6729
 IR Inten    --      7.7028                 0.9396                41.7827

                     31                     32                     33
                      A                      A                      A
 Frequencies --    751.6247               780.5170               789.3452
 Red. masses --      2.1822                 1.3710                 5.7651
 Frc consts  --      0.7264                 0.4921                 2.1164
 IR Inten    --     17.7798                35.7271                97.9097

                     34                     35                     36
                      A                      A                      A
 Frequencies --    822.0698               824.0738               852.1391
 Red. masses --      1.4702                 3.5900                 1.3423
 Frc consts  --      0.5854                 1.4364                 0.5743
 IR Inten    --      7.0361                17.5000                20.4566

                     37                     38                     39
                      A                      A                      A
 Frequencies --    876.1896               887.0979               911.0110
 Red. masses --      1.3309                 1.4725                 6.2110
 Frc consts  --      0.6020                 0.6827                 3.0371
 IR Inten    --      1.3755                 0.6658                10.5414

                     40                     41                     42
                      A                      A                      A
 Frequencies --    929.1768               955.8855               979.3320
 Red. masses --      4.9894                 1.3537                 6.3212
 Frc consts  --      2.5380                 0.7287                 3.5720
 IR Inten    --     15.6902                 1.5307                21.1149

                     43                     44                     45
                      A                      A                      A
 Frequencies --    986.2260              1020.7269              1039.5315
 Red. masses --      1.3173                 1.7684                 6.6123
 Frc consts  --      0.7549                 1.0855                 4.2099
 IR Inten    --      2.1200                 0.3234                69.4320

                     46                     47                     48
                      A                      A                      A
 Frequencies --   1041.3612              1063.8743              1076.1696
 Red. masses --      1.4394                 2.9464                 2.1631
 Frc consts  --      0.9197                 1.9648                 1.4760
 IR Inten    --     33.4319                 7.1865                35.0108

                     49                     50                     51
                      A                      A                      A
 Frequencies --   1092.6656              1140.7637              1142.9637
 Red. masses --      1.9953                 1.5743                 5.3459
 Frc consts  --      1.4036                 1.2071                 4.1147
 IR Inten    --      7.4375                24.1178                15.2343

                     52                     53                     54
                      A                      A                      A
 Frequencies --   1186.0677              1191.0652              1198.9602
 Red. masses --      1.2463                 1.1150                 1.9882
 Frc consts  --      1.0330                 0.9320                 1.6839
 IR Inten    --      0.8127                 2.3243                 1.6854

                     55                     56                     57
                      A                      A                      A
 Frequencies --   1211.8250              1219.3956              1266.3922
 Red. masses --      1.4767                 1.6060                 2.1490
 Frc consts  --      1.2777                 1.4070                 2.0306
 IR Inten    --     22.1091                59.9074                 8.8094

                     58                     59                     60
                      A                      A                      A
 Frequencies --   1270.6187              1275.2478              1306.4681
 Red. masses --      2.6393                 4.4816                 2.0136
 Frc consts  --      2.5106                 4.2941                 2.0250
 IR Inten    --     59.6824                60.7406                 7.7104

                     61                     62                     63
                      A                      A                      A
 Frequencies --   1310.8719              1356.3022              1392.6757
 Red. masses --      7.0003                 8.1543                 4.9050
 Frc consts  --      7.0874                 8.8379                 5.6051
 IR Inten    --      3.2446                 0.8230                39.0073

                     64                     65                     66
                      A                      A                      A
 Frequencies --   1428.1658              1444.7954              1466.8825
 Red. masses --      2.3884                 3.2009                 1.6704
 Frc consts  --      2.8702                 3.9367                 2.1177
 IR Inten    --      9.4578                22.7696                 8.3694

                     67                     68                     69
                      A                      A                      A
 Frequencies --   1477.4841              1492.9854              1516.9349
 Red. masses --      4.9818                 1.3272                 1.0521
 Frc consts  --      6.4074                 1.7430                 1.4264
 IR Inten    --     70.6927                 6.0039                 7.2267

                     70                     71                     72
                      A                      A                      A
 Frequencies --   1519.5379              1531.7500              1544.9775
 Red. masses --      2.5978                 1.0538                 4.7584
 Frc consts  --      3.5341                 1.4568                 6.6920
 IR Inten    --     32.7779                 5.8976                42.4891

                     73                     74                     75
                      A                      A                      A
 Frequencies --   1547.4818              1581.8620              1644.7878
 Red. masses --      2.9225                 5.4644                 6.9550
 Frc consts  --      4.1234                 8.0563                11.0858
 IR Inten    --     63.8793               213.3510                 6.9703

                     76                     77                     78
                      A                      A                      A
 Frequencies --   1646.8937              1661.5298              1803.3591
 Red. masses --      7.4440                 6.1001                 9.8780
 Frc consts  --     11.8957                 9.9221                18.9272
 IR Inten    --     28.0383                13.5427               296.3356

                     79                     80                     81
                      A                      A                      A
 Frequencies --   2877.6044              3040.2866              3105.9602
 Red. masses --      1.0816                 1.0319                 1.1074
 Frc consts  --      5.2771                 5.6198                 6.2944
 IR Inten    --    158.5104                41.5571                35.4554

                     82                     83                     84
                      A                      A                      A
 Frequencies --   3161.9794              3197.9771              3210.7257
 Red. masses --      1.1029                 1.0863                 1.0910
 Frc consts  --      6.4968                 6.5457                 6.6265
 IR Inten    --     22.8577                 0.7899                13.8965

                     85                     86                     87
                      A                      A                      A
 Frequencies --   3220.4893              3245.4629              3269.2591
 Red. masses --      1.0963                 1.0929                 1.0912
 Frc consts  --      6.6990                 6.7821                 6.8714
 IR Inten    --     17.6693                 0.5827                 6.7248

                     88                     89                     90
                      A                      A                      A
 Frequencies --   3288.1949              3306.4877              3312.5310
 Red. masses --      1.0976                 1.1042                 1.0975
 Frc consts  --      6.9922                 7.1126                 7.0956
 IR Inten    --      0.2288                 0.7001                 6.7364

 - Thermochemistry -
 -------------------
 Temperature   298.150 Kelvin.  Pressure   1.00000 Atm.
 Atom     1 has atomic number  6 and mass  12.00000

 Molecular mass:   268.08479 amu.
 Principal axes and moments of inertia in atomic units:
                           1         2         3
     Eigenvalues --  2626.436619128.82897**********
           X            0.99997   0.00737   0.00215
           Y           -0.00740   0.99990   0.01189
           Z           -0.00206  -0.01190   0.99993
 This molecule is an asymmetric top.
 Rotational symmetry number  1.
 Warning -- assumption of classical behavior for rotation
           may cause significant error
 Rotational temperatures (Kelvin)      0.03298     0.00949     0.00781
 Rotational constants (GHZ):           0.68714     0.19770     0.16268
 Zero-point vibrational energy     642429.7 (Joules/Mol)
                                  153.54437 (Kcal/Mol)
 Warning -- explicit consideration of  25 degrees of freedom as
           vibrations may cause significant error
 Vibrational temperatures:     25.31    35.96    71.26    98.22   118.79
          (Kelvin)            152.52   184.99   205.72   222.11   237.63
                              299.56   354.31   368.80   398.24   451.96
                              502.86   545.05   569.97   656.94   728.89
                              757.11   820.82   843.55   855.65   876.66
                              921.56   955.11  1006.15  1063.88  1080.94
                             1081.42  1122.99  1135.69  1182.78  1185.66
                             1226.04  1260.64  1276.34  1310.74  1336.88
                             1375.31  1409.04  1418.96  1468.60  1495.65
                             1498.29  1530.68  1548.37  1572.10  1641.30
                             1644.47  1706.49  1713.68  1725.04  1743.55
                             1754.44  1822.06  1828.14  1834.80  1879.72
                             1886.05  1951.42  2003.75  2054.81  2078.74
                             2110.52  2125.77  2148.07  2182.53  2186.28
                             2203.85  2222.88  2226.48  2275.95  2366.48
                             2369.51  2390.57  2594.63  4140.23  4374.29
                             4468.78  4549.38  4601.18  4619.52  4633.57
                             4669.50  4703.73  4730.98  4757.30  4765.99

 Zero-point correction=                           0.244689 (Hartree/Particle)
 Thermal correction to Energy=                    0.261571
 Thermal correction to Enthalpy=                  0.262515
 Thermal correction to Gibbs Free Energy=         0.197441
 Sum of electronic and zero-point Energies=           -913.749690
 Sum of electronic and thermal Energies=              -913.732807
 Sum of electronic and thermal Enthalpies=            -913.731863
 Sum of electronic and thermal Free Energies=         -913.796937

                     E (Thermal)             CV                S
                      KCal/Mol        Cal/Mol-Kelvin    Cal/Mol-Kelvin
 Total                  164.138             63.360            136.960
 Electronic               0.000              0.000              0.000
 Translational            0.889              2.981             42.657
 Rotational               0.889              2.981             33.941
 Vibrational            162.361             57.399             60.361
 Vibration     1          0.593              1.986              6.889
 Vibration     2          0.593              1.985              6.192
 Vibration     3          0.595              1.978              4.836
 Vibration     4          0.598              1.969              4.203
 Vibration     5          0.600              1.961              3.829
 Vibration     6          0.605              1.944              3.341
 Vibration     7          0.611              1.925              2.967
 Vibration     8          0.616              1.910              2.764
 Vibration     9          0.620              1.898              2.618
 Vibration    10          0.624              1.885              2.490
 Vibration    11          0.642              1.828              2.059
 Vibration    12          0.661              1.769              1.757
 Vibration    13          0.666              1.752              1.687
 Vibration    14          0.678              1.716              1.553
 Vibration    15          0.702              1.647              1.340
 Vibration    16          0.727              1.576              1.168
 Vibration    17          0.749              1.515              1.044
 Vibration    18          0.763              1.478              0.977
 Vibration    19          0.815              1.346              0.776
 Vibration    20          0.862              1.235              0.642
 Vibration    21          0.881              1.192              0.596
 Vibration    22          0.927              1.095              0.503
 Vibration    23          0.943              1.061              0.474
 Vibration    24          0.952              1.043              0.459
 Vibration    25          0.968              1.012              0.434

 Optimization completed.
    -- Stationary point found.
 Normal termination of Gaussian 16 at Sun Dec 13 21:44:27 2020.

 ----------------------------------------------------------------------
 # B3LYP/6-311++G(d,p) empiricaldispersion=gd3bj scf=xqc pop=npa geom=c
 heck
 ----------------------------------------------------------------------

 ---------------------------------------
 CID_63033144_JID_10809_Energie_neutraal
 ---------------------------------------
 Structure from the checkpoint file:  "JID_10809.chk"
 Charge =  0 Multiplicity = 1

 SCF Done:  E(RB3LYP) =  -914.236220924     A.U. after   16 cycles
 Normal termination of Gaussian 16 at Sun Dec 13 21:49:35 2020.

 ----------------------------------------------------------------------
 # B3LYP/6-311++G(d,p) empiricaldispersion=gd3bj scf=xqc pop=npa geom=c
 heck
 ----------------------------------------------------------------------

 -------------------------------------
 CID_63033144_JID_10809_Energie_kation
 -------------------------------------
 Structure from the checkpoint file:  "JID_10809.chk"
 Charge =  1 Multiplicity = 2

 SCF Done:  E(UB3LYP) =  -913.959694672     A.U. after   25 cycles
 Normal termination of Gaussian 16 at Sun Dec 13 22:00:23 2020.
 Gaussian 16:  ES64L-G16RevA.03 25-Dec-2016

 ----------------------------------------------------------------------
 # B3LYP/6-311++G(d,p) empiricaldispersion=gd3bj scf=xqc pop=npa geom=c
 heck
 ----------------------------------------------------------------------

 ------------------------------------
 CID_63033144_JID_10809_Energie_anion
 ------------------------------------
 Structure from the checkpoint file:  "JID_10809.chk"
 Charge = -1 Multiplicity = 2

                         Standard orientation:
 ---------------------------------------------------------------------
 Center     Atomic      Atomic             Coordinates (Angstroms)
 Number     Number       Type             X           Y           Z
 ---------------------------------------------------------------------
      1          6           0        2.677002    1.975973    1.689774
      2          8           0        2.953804    1.711532    0.308641
      3          6           0        3.120427    0.371655    0.025588
      4          6           0        4.408686   -0.159716   -0.006439
      5          6           0        4.611645   -1.507642   -0.296122
      6          6           0        3.515194   -2.333081   -0.551170
      7          6           0        2.225233   -1.810647   -0.534920
      8          6           0        2.019955   -0.457180   -0.251573
      9          7           0        0.695291    0.050480   -0.243948
     10          6           0        0.259826    1.296312   -0.548377
     11          6           0       -1.125661    1.287174   -0.458986
     12          6           0       -1.448343   -0.067944   -0.094036
     13          7           0       -0.339455   -0.800020    0.024684
     14          6           0       -2.716937   -0.713780    0.164166
     15          6           0       -3.008683   -1.940864    0.706287
     16          6           0       -4.430922   -2.058641    0.697023
     17          6           0       -4.901862   -0.899506    0.150047
     18          8           0       -3.874387   -0.075139   -0.178743
     19          6           0       -1.921197    2.494998   -0.671387
     20          8           0       -3.124759    2.617683   -0.550608
     21          1           0        2.588699    3.059958    1.782709
     22          1           0        3.496559    1.615252    2.322702
     23          1           0        1.739600    1.502359    2.005093
     24          1           0        5.239052    0.507868    0.200545
     25          1           0        5.619700   -1.910005   -0.320251
     26          1           0        3.662082   -3.384937   -0.775564
     27          1           0        1.360241   -2.430972   -0.734518
     28          1           0        0.948799    2.088661   -0.791989
     29          1           0       -2.284196   -2.656143    1.066329
     30          1           0       -5.022210   -2.890550    1.052551
     31          1           0       -5.888749   -0.518818   -0.062138
     32          1           0       -1.293873    3.368849   -0.964193
 ---------------------------------------------------------------------

 SCF Done:  E(UB3LYP) =  -914.244566353     A.U. after   33 cycles
 SCF Done:  E(UB3LYP) =  -914.244566353     a.u. after    1 cycles

 The electronic state is 2-A.
 Alpha  occ. eigenvalues --  -19.07965 -19.03100 -18.95737 -14.26635 -14.20346
 Alpha  occ. eigenvalues --  -10.12181 -10.11949 -10.11594 -10.10549 -10.10385
 Alpha  occ. eigenvalues --  -10.08964 -10.08169 -10.07458 -10.06349 -10.05865
 Alpha  occ. eigenvalues --  -10.05440 -10.05315 -10.04753 -10.04322 -10.04193
 Alpha  occ. eigenvalues --   -1.00761  -0.94759  -0.92481  -0.89198  -0.75275
 Alpha  occ. eigenvalues --   -0.71636  -0.69729  -0.66813  -0.65261  -0.63614
 Alpha  occ. eigenvalues --   -0.61140  -0.58031  -0.53083  -0.52274  -0.50218
 Alpha  occ. eigenvalues --   -0.48449  -0.46346  -0.45047  -0.44307  -0.41381
 Alpha  occ. eigenvalues --   -0.40218  -0.38284  -0.36993  -0.35850  -0.35602
 Alpha  occ. eigenvalues --   -0.35058  -0.33571  -0.33034  -0.32703  -0.32100
 Alpha  occ. eigenvalues --   -0.31513  -0.30857  -0.30270  -0.29584  -0.27049
 Alpha  occ. eigenvalues --   -0.26997  -0.25949  -0.25378  -0.25032  -0.24438
 Alpha  occ. eigenvalues --   -0.23221  -0.19125  -0.17952  -0.17805  -0.17054
 Alpha  occ. eigenvalues --   -0.14506  -0.13298  -0.12451  -0.11122  -0.09412
 Alpha  occ. eigenvalues --    0.04323
 Alpha virt. eigenvalues --    0.06775   0.07483   0.07619   0.08419   0.09440
 Alpha virt. eigenvalues --    0.09752   0.10084   0.10546   0.10976   0.11377
 Alpha virt. eigenvalues --    0.11467   0.12091   0.12882   0.13293   0.13469

  Beta  occ. eigenvalues --  -19.07959 -19.03104 -18.95476 -14.26582 -14.20241
  Beta  occ. eigenvalues --  -10.12164 -10.11955 -10.11558 -10.10452 -10.10224
  Beta  occ. eigenvalues --  -10.08999 -10.07931 -10.07456 -10.06357 -10.05470
  Beta  occ. eigenvalues --  -10.05390 -10.05346 -10.04658 -10.04218 -10.04041
  Beta  occ. eigenvalues --   -1.00750  -0.94691  -0.92257  -0.88724  -0.74973
  Beta  occ. eigenvalues --   -0.71430  -0.69713  -0.66307  -0.65121  -0.63427
  Beta  occ. eigenvalues --   -0.60893  -0.57922  -0.52835  -0.51840  -0.50160
  Beta  occ. eigenvalues --   -0.48351  -0.46141  -0.44837  -0.44175  -0.41293
  Beta  occ. eigenvalues --   -0.40031  -0.37975  -0.36799  -0.35697  -0.35485
  Beta  occ. eigenvalues --   -0.35005  -0.33410  -0.32898  -0.32458  -0.31786
  Beta  occ. eigenvalues --   -0.31338  -0.30695  -0.30239  -0.29416  -0.26897
  Beta  occ. eigenvalues --   -0.26751  -0.25830  -0.24907  -0.24380  -0.24010
  Beta  occ. eigenvalues --   -0.22756  -0.18673  -0.17845  -0.17655  -0.16975
  Beta  occ. eigenvalues --   -0.13260  -0.12647  -0.11381  -0.10892  -0.08795
  Beta virt. eigenvalues --    0.07380   0.07532   0.07608   0.08351   0.09385
  Beta virt. eigenvalues --    0.09657   0.09831   0.10131   0.10681   0.10954
  Beta virt. eigenvalues --    0.11321   0.11950   0.12404   0.13237   0.13343

 Mulliken charges and spin densities:
               1          2
     1  C   -0.144405  -0.140647
     2  O   -0.165004   0.007196
     3  C   -0.419797   0.146781
     4  C   -0.190513  -0.040974
     5  C   -0.330415   0.210241
     6  C   -0.332842  -0.012656
     7  C   -0.228209   0.125571
     8  C    0.386675   0.031435
     9  N    0.233992  -0.012808
    10  C   -0.369980   0.413274
    11  C    0.409443  -0.043643
    12  C    0.113468  -0.052174
    13  N    0.057718   0.065967
    14  C   -0.286531   0.006230
    15  C    0.001421  -0.005413
    16  C   -0.402685   0.000981
    17  C    0.043947  -0.005093
    18  O    0.026572   0.000146
    19  C   -0.624385   0.120019
    20  O   -0.345842   0.083473
    21  H    0.110215   0.037102
    22  H    0.041792   0.077554
    23  H    0.143938   0.026162
    24  H    0.143852   0.011538
    25  H    0.107702  -0.017290
    26  H    0.128723   0.001306
    27  H    0.180025  -0.000763
    28  H    0.206410  -0.029886
    29  H    0.169441   0.002725
    30  H    0.137052  -0.000167
    31  H    0.155967   0.000388
    32  H    0.042254  -0.006575
 Sum of Mulliken charges =  -1.00000   1.00000

 Dipole moment (field-independent basis, Debye):
    X=              0.8907    Y=             -2.2549    Z=              1.8431  Tot=              3.0455
 Quadrupole moment (field-independent basis, Debye-Ang):
   XX=           -167.2888   YY=           -137.4319   ZZ=           -125.9292
   XY=             18.3762   XZ=              0.1815   YZ=              2.4573

 Summary of Natural Population Analysis:

                                       Natural Population
                Natural  -----------------------------------------------
    Atom  No    Charge         Core      Valence    Rydberg      Total
 -----------------------------------------------------------------------
      C    1   -0.09457      0.99960     2.08706    0.00791     3.09457
      O    2   -0.29675      0.99987     3.28680    0.01009     4.29675
      C    3    0.15830      0.99934     1.82850    0.01386     2.84170
      C    4   -0.12926      0.99953     2.12129    0.00845     3.12926
      C    5   -0.06048      0.99958     2.05194    0.00896     3.06048
      C    6   -0.11642      0.99958     2.10806    0.00879     3.11642
      C    7   -0.08116      0.99955     2.07396    0.00766     3.08116
      C    8    0.09202      0.99942     1.89685    0.01171     2.90798
      N    9   -0.09244      0.99962     2.58069    0.01214     3.59244
      C   10    0.10880      0.99954     1.88050    0.01116     2.89120
      C   11   -0.12431      0.99947     2.11678    0.00806     3.12431
      C   12    0.05262      0.99952     1.93510    0.01275     2.94738
      N   13   -0.14114      0.99970     2.63020    0.01123     3.64114
      C   14    0.14739      0.99944     1.83924    0.01394     2.85261
      C   15   -0.14397      0.99945     2.13598    0.00854     3.14397
      C   16   -0.14864      0.99945     2.14024    0.00896     3.14864
      C   17    0.04475      0.99955     1.94041    0.01528     2.95525
      O   18   -0.21503      0.99986     3.20489    0.01027     4.21503
      C   19    0.22017      0.99968     1.75964    0.02050     2.77983
      O   20   -0.26691      0.99988     3.25943    0.00760     4.26691
      H   21    0.08536      0.00000     0.41330    0.00133     0.41464
      H   22    0.07924      0.00000     0.41899    0.00177     0.42076
      H   23    0.08775      0.00000     0.41071    0.00154     0.41225
      H   24    0.09770      0.00000     0.40076    0.00154     0.40230
      H   25    0.08869      0.00000     0.40988    0.00143     0.41131
      H   26    0.09313      0.00000     0.40588    0.00099     0.40687
      H   27    0.10973      0.00000     0.38935    0.00092     0.39027
      H   28    0.10580      0.00000     0.39302    0.00118     0.39420
      H   29    0.11183      0.00000     0.38717    0.00100     0.38817
      H   30    0.10138      0.00000     0.39736    0.00126     0.39862
      H   31    0.09213      0.00000     0.40691    0.00096     0.40787
      H   32    0.03441      0.00000     0.46286    0.00273     0.46559
 =======================================================================
   * Total *    0.00011     19.99162    49.77374    0.23453    69.99989

 Normal termination of Gaussian 16 at Sun Dec 13 22:14:40 2020.
