 Gaussian 16, Revision A.03,

 -----------------------------------------------------------
 # opt freq B3LYP/6-31G(d) empiricaldispersion=gd3bj scf=xqc
 -----------------------------------------------------------

 ------------------------------
 CID_64207646_JID_3384_neutraal
 ------------------------------
 Symbolic Z-matrix:
 Charge =  0 Multiplicity = 1

 SCF Done:  E(RB3LYP) =  -662.094350529     A.U. after   15 cycles
 SCF Done:  E(RB3LYP) =  -662.097609981     A.U. after   13 cycles
 SCF Done:  E(RB3LYP) =  -662.099591380     A.U. after   13 cycles
 SCF Done:  E(RB3LYP) =  -662.100946471     A.U. after   14 cycles
 SCF Done:  E(RB3LYP) =  -662.102633868     A.U. after   13 cycles
 SCF Done:  E(RB3LYP) =  -662.103018470     A.U. after   12 cycles
 SCF Done:  E(RB3LYP) =  -662.103213955     A.U. after   11 cycles
 SCF Done:  E(RB3LYP) =  -662.103358759     A.U. after   12 cycles
 SCF Done:  E(RB3LYP) =  -662.103441511     A.U. after   12 cycles
 SCF Done:  E(RB3LYP) =  -662.103506674     A.U. after   11 cycles
 SCF Done:  E(RB3LYP) =  -662.103556673     A.U. after    9 cycles
 SCF Done:  E(RB3LYP) =  -662.103558474     A.U. after    8 cycles
 SCF Done:  E(RB3LYP) =  -662.103558739     A.U. after    8 cycles
 SCF Done:  E(RB3LYP) =  -662.103558826     A.U. after    7 cycles
 SCF Done:  E(RB3LYP) =  -662.103558938     A.U. after    7 cycles
 SCF Done:  E(RB3LYP) =  -662.103558980     A.U. after    7 cycles
 Optimization completed.
    -- Stationary point found.
 Normal termination of Gaussian 16 at Wed Dec  9 23:05:53 2020.

 --------------------------------------------------------------------
 #N Geom=AllCheck Guess=TCheck SCRF=Check GenChk RB3LYP/6-31G(d) Freq
 --------------------------------------------------------------------

 Structure from the checkpoint file:  "JID_3384.chk"
 ------------------------------
 CID_64207646_JID_3384_neutraal
 ------------------------------
 Charge =  0 Multiplicity = 1

 SCF Done:  E(RB3LYP) =  -662.103558980     A.U. after    1 cycles

  Exact polarizability: 123.684  -0.415 106.903   6.378   1.292  64.397
 Approx polarizability: 169.721 -10.437 184.034   8.610   7.516 102.058

                      1                      2                      3
                      A                      A                      A
 Frequencies --     47.2163                65.3170                94.5751
 Red. masses --      4.4279                 7.9042                 5.2496
 Frc consts  --      0.0058                 0.0199                 0.0277
 IR Inten    --      0.1632                 4.6166                 3.8835

                      4                      5                      6
                      A                      A                      A
 Frequencies --    114.4569               161.1932               199.1201
 Red. masses --      6.1944                 5.9588                 4.0944
 Frc consts  --      0.0478                 0.0912                 0.0956
 IR Inten    --      1.5671                 1.0943                 0.2325

                      7                      8                      9
                      A                      A                      A
 Frequencies --    216.8709               235.0581               282.4724
 Red. masses --      1.1978                 3.4671                 3.7061
 Frc consts  --      0.0332                 0.1129                 0.1742
 IR Inten    --      0.6444                 6.2708                 9.8256

                     10                     11                     12
                      A                      A                      A
 Frequencies --    293.6578               342.0552               386.5954
 Red. masses --      3.7505                 3.8209                 1.2362
 Frc consts  --      0.1906                 0.2634                 0.1089
 IR Inten    --      6.7856                21.9786               247.6612

                     13                     14                     15
                      A                      A                      A
 Frequencies --    418.5624               497.8884               523.2490
 Red. masses --      5.9979                 1.8303                 2.0056
 Frc consts  --      0.6191                 0.2673                 0.3235
 IR Inten    --      9.6939               116.3545                14.2853

                     16                     17                     18
                      A                      A                      A
 Frequencies --    540.7503               571.0970               588.4256
 Red. masses --      1.9876                 3.2527                 2.3047
 Frc consts  --      0.3424                 0.6250                 0.4702
 IR Inten    --     12.6933                63.1725                74.5372

                     19                     20                     21
                      A                      A                      A
 Frequencies --    621.7535               644.3922               671.7912
 Red. masses --      4.1022                 3.9991                 3.1807
 Frc consts  --      0.9343                 0.9784                 0.8458
 IR Inten    --      8.6900                 4.1005                 1.9390

                     22                     23                     24
                      A                      A                      A
 Frequencies --    738.4101               761.8947               768.0663
 Red. masses --      2.3530                 7.9360                 2.5799
 Frc consts  --      0.7559                 2.7142                 0.8967
 IR Inten    --     11.6063                39.6240                12.6540

                     25                     26                     27
                      A                      A                      A
 Frequencies --    784.3822               819.1286               856.2872
 Red. masses --      2.0419                 2.1206                 1.3003
 Frc consts  --      0.7402                 0.8383                 0.5617
 IR Inten    --     32.4415               175.4130                 2.0496

                     28                     29                     30
                      A                      A                      A
 Frequencies --    910.8667               970.1507              1003.9417
 Red. masses --      5.7021                 3.8783                 1.7015
 Frc consts  --      2.7874                 2.1506                 1.0104
 IR Inten    --     21.7575                15.2450                 1.9383

                     31                     32                     33
                      A                      A                      A
 Frequencies --   1070.6674              1089.0322              1111.6154
 Red. masses --      1.5193                 1.5931                 1.6848
 Frc consts  --      1.0261                 1.1132                 1.2266
 IR Inten    --      5.4289                 3.5720                 3.7622

                     34                     35                     36
                      A                      A                      A
 Frequencies --   1137.5450              1155.4726              1222.1289
 Red. masses --      2.3367                 3.8690                 3.1821
 Frc consts  --      1.7815                 3.0434                 2.8002
 IR Inten    --      8.2751                72.8242                 1.8625

                     37                     38                     39
                      A                      A                      A
 Frequencies --   1231.7593              1297.1719              1350.3474
 Red. masses --      3.8345                 2.2919                 4.8079
 Frc consts  --      3.4277                 2.2722                 5.1653
 IR Inten    --     13.0823                 1.3004               200.8069

                     40                     41                     42
                      A                      A                      A
 Frequencies --   1424.8074              1446.2539              1450.3384
 Red. masses --      2.5276                 1.6869                 1.2666
 Frc consts  --      3.0232                 2.0789                 1.5697
 IR Inten    --    147.9779                54.0823                10.5621

                     43                     44                     45
                      A                      A                      A
 Frequencies --   1467.4533              1484.5898              1518.9427
 Red. masses --      2.9375                 1.5112                 1.1026
 Frc consts  --      3.7269                 1.9624                 1.4988
 IR Inten    --    115.1370                54.0504                 7.0687

                     46                     47                     48
                      A                      A                      A
 Frequencies --   1525.7472              1533.1259              1624.3595
 Red. masses --      1.3627                 2.2685                 1.5336
 Frc consts  --      1.8691                 3.1416                 2.3841
 IR Inten    --      9.3981                39.4837               134.4173

                     49                     50                     51
                      A                      A                      A
 Frequencies --   1635.6172              1782.2122              1833.2399
 Red. masses --      3.7038                 8.6552                 7.6434
 Frc consts  --      5.8379                16.1975                15.1348
 IR Inten    --     48.8848               287.1871               386.3265

                     52                     53                     54
                      A                      A                      A
 Frequencies --   3066.0130              3124.5192              3149.6750
 Red. masses --      1.0374                 1.1018                 1.0998
 Frc consts  --      5.7457                 6.3377                 6.4285
 IR Inten    --     14.5655                14.0078                13.4339

                     55                     56                     57
                      A                      A                      A
 Frequencies --   3264.5465              3298.9861              3480.7388
 Red. masses --      1.0925                 1.1039                 1.0754
 Frc consts  --      6.8598                 7.0787                 7.6768
 IR Inten    --      2.3662                 1.0345                15.0160

                     58                     59                     60
                      A                      A                      A
 Frequencies --   3550.3709              3594.6920              3720.6181
 Red. masses --      1.0770                 1.0456                 1.1036
 Frc consts  --      7.9984                 7.9607                 9.0007
 IR Inten    --     18.9141                30.1132                58.5311

 - Thermochemistry -
 -------------------
 Temperature   298.150 Kelvin.  Pressure   1.00000 Atm.
 Atom     1 has atomic number  6 and mass  12.00000

 Molecular mass:   183.06439 amu.
 Principal axes and moments of inertia in atomic units:
                           1         2         3
     Eigenvalues --  1314.976893238.133034101.08871
           X            0.99972   0.02060   0.01160
           Y           -0.02032   0.99952  -0.02360
           Z           -0.01208   0.02335   0.99965
 This molecule is an asymmetric top.
 Rotational symmetry number  1.
 Warning -- assumption of classical behavior for rotation
           may cause significant error
 Rotational temperatures (Kelvin)      0.06587     0.02675     0.02112
 Rotational constants (GHZ):           1.37245     0.55734     0.44006
 Zero-point vibrational energy     447237.2 (Joules/Mol)
                                  106.89224 (Kcal/Mol)
 Warning -- explicit consideration of  18 degrees of freedom as
           vibrations may cause significant error
 Vibrational temperatures:     67.93    93.98   136.07   164.68   231.92
          (Kelvin)            286.49   312.03   338.20   406.41   422.51
                              492.14   556.22   602.22   716.35   752.84
                              778.02   821.68   846.61   894.56   927.14
                              966.56  1062.41  1096.20  1105.08  1128.55
                             1178.54  1232.01  1310.53  1395.83  1444.45
                             1540.45  1566.87  1599.37  1636.67  1662.47
                             1758.37  1772.23  1866.34  1942.85  2049.98
                             2080.84  2086.71  2111.34  2135.99  2185.42
                             2195.21  2205.83  2337.09  2353.29  2564.21
                             2637.62  4411.31  4495.49  4531.68  4696.95
                             4746.51  5008.01  5108.19  5171.96  5353.14

 Zero-point correction=                           0.170344 (Hartree/Particle)
 Thermal correction to Energy=                    0.182585
 Thermal correction to Enthalpy=                  0.183529
 Thermal correction to Gibbs Free Energy=         0.131527
 Sum of electronic and zero-point Energies=           -661.933215
 Sum of electronic and thermal Energies=              -661.920974
 Sum of electronic and thermal Enthalpies=            -661.920030
 Sum of electronic and thermal Free Energies=         -661.972032

                     E (Thermal)             CV                S
                      KCal/Mol        Cal/Mol-Kelvin    Cal/Mol-Kelvin
 Total                  114.574             45.717            109.448
 Electronic               0.000              0.000              0.000
 Translational            0.889              2.981             41.520
 Rotational               0.889              2.981             31.235
 Vibrational            112.796             39.755             36.692
 Vibration     1          0.595              1.979              4.931
 Vibration     2          0.597              1.971              4.290
 Vibration     3          0.603              1.953              3.563
 Vibration     4          0.607              1.937              3.192
 Vibration     5          0.622              1.890              2.536
 Vibration     6          0.637              1.841              2.141
 Vibration     7          0.646              1.815              1.985
 Vibration     8          0.655              1.787              1.840
 Vibration     9          0.682              1.706              1.519
 Vibration    10          0.688              1.686              1.453
 Vibration    11          0.721              1.591              1.203
 Vibration    12          0.755              1.499              1.013
 Vibration    13          0.781              1.430              0.897
 Vibration    14          0.853              1.255              0.663
 Vibration    15          0.878              1.199              0.602
 Vibration    16          0.896              1.160              0.564
 Vibration    17          0.927              1.094              0.502
 Vibration    18          0.946              1.056              0.470

 Optimization completed.
    -- Stationary point found.
 Normal termination of Gaussian 16 at Wed Dec  9 23:11:03 2020.

 ----------------------------------------------------------------------
 # B3LYP/6-311++G(d,p) empiricaldispersion=gd3bj scf=xqc pop=npa geom=c
 heck
 ----------------------------------------------------------------------

 --------------------------------------
 CID_64207646_JID_3384_Energie_neutraal
 --------------------------------------
 Structure from the checkpoint file:  "JID_3384.chk"
 Charge =  0 Multiplicity = 1

 SCF Done:  E(RB3LYP) =  -662.309633218     A.U. after   15 cycles
 Normal termination of Gaussian 16 at Wed Dec  9 23:13:03 2020.

 ----------------------------------------------------------------------
 # B3LYP/6-311++G(d,p) empiricaldispersion=gd3bj scf=xqc pop=npa geom=c
 heck
 ----------------------------------------------------------------------

 ------------------------------------
 CID_64207646_JID_3384_Energie_kation
 ------------------------------------
 Structure from the checkpoint file:  "JID_3384.chk"
 Charge =  1 Multiplicity = 2

 SCF Done:  E(UB3LYP) =  -661.987442061     A.U. after   29 cycles
 Normal termination of Gaussian 16 at Wed Dec  9 23:18:33 2020.
 Gaussian 16:  ES64L-G16RevA.03 25-Dec-2016

 ----------------------------------------------------------------------
 # B3LYP/6-311++G(d,p) empiricaldispersion=gd3bj scf=xqc pop=npa geom=c
 heck
 ----------------------------------------------------------------------

 -----------------------------------
 CID_64207646_JID_3384_Energie_anion
 -----------------------------------
 Structure from the checkpoint file:  "JID_3384.chk"
 Charge = -1 Multiplicity = 2

                         Standard orientation:
 ---------------------------------------------------------------------
 Center     Atomic      Atomic             Coordinates (Angstroms)
 Number     Number       Type             X           Y           Z
 ---------------------------------------------------------------------
      1          6           0        0.007116   -1.866726    0.712454
      2          6           0       -1.187293   -1.088672    0.253538
      3          6           0       -1.329146    0.264433    0.015877
      4          8           0       -2.631061    0.538713   -0.339939
      5          6           0       -3.300746   -0.631571   -0.346597
      6          6           0       -2.478452   -1.658075    0.012358
      7          6           0       -0.514882    1.483344    0.140204
      8          8           0       -1.004629    2.585224    0.330915
      9          7           0        0.882070    1.371057    0.051890
     10          7           0        1.463992    0.372673   -0.718822
     11          6           0        2.636146   -0.258879   -0.294876
     12          8           0        3.254415   -0.989403   -1.052949
     13          7           0        3.004174    0.020842    0.995387
     14          1           0       -0.315896   -2.768864    1.241329
     15          1           0        0.634379   -2.175455   -0.130494
     16          1           0        0.637385   -1.285904    1.389148
     17          1           0       -4.341789   -0.576034   -0.627240
     18          1           0       -2.744434   -2.701801    0.107750
     19          1           0        1.302220    2.297590   -0.022131
     20          1           0        1.387014    0.447215   -1.728420
     21          1           0        2.343574    0.464957    1.616957
     22          1           0        3.699638   -0.593099    1.391957
 ---------------------------------------------------------------------

 SCF Done:  E(UB3LYP) =  -662.310095087     A.U. after   32 cycles

 The electronic state is 2-A.
 Alpha  occ. eigenvalues --  -19.04311 -18.97465 -18.94251 -14.24629 -14.23782
 Alpha  occ. eigenvalues --  -14.21873 -10.18761 -10.12111 -10.08785 -10.08176
 Alpha  occ. eigenvalues --  -10.04784 -10.04457 -10.04284  -0.97684  -0.94717
 Alpha  occ. eigenvalues --   -0.90720  -0.86469  -0.79431  -0.69832  -0.68470
 Alpha  occ. eigenvalues --   -0.62932  -0.58152  -0.50702  -0.50523  -0.46212
 Alpha  occ. eigenvalues --   -0.45470  -0.44356  -0.41389  -0.39227  -0.37838
 Alpha  occ. eigenvalues --   -0.33877  -0.32684  -0.31558  -0.31315  -0.30661
 Alpha  occ. eigenvalues --   -0.28900  -0.28509  -0.27463  -0.26799  -0.25269
 Alpha  occ. eigenvalues --   -0.22918  -0.17995  -0.17126  -0.16281  -0.14793
 Alpha  occ. eigenvalues --   -0.14333  -0.12410  -0.10316   0.04900
 Alpha virt. eigenvalues --    0.07018   0.08448   0.09533   0.09938   0.10953
 Alpha virt. eigenvalues --    0.11688   0.12395   0.13083   0.14168   0.14836
 Alpha virt. eigenvalues --    0.15142   0.15872   0.16477   0.17311   0.17721

  Beta  occ. eigenvalues --  -19.04085 -18.97461 -18.93908 -14.24587 -14.23766
  Beta  occ. eigenvalues --  -14.21809 -10.18758 -10.11818 -10.08574 -10.08162
  Beta  occ. eigenvalues --  -10.04795 -10.04372 -10.04226  -0.97316  -0.94677
  Beta  occ. eigenvalues --   -0.90329  -0.86171  -0.79338  -0.69655  -0.68195
  Beta  occ. eigenvalues --   -0.62607  -0.58024  -0.50588  -0.49930  -0.46129
  Beta  occ. eigenvalues --   -0.45357  -0.44263  -0.41155  -0.39037  -0.37738
  Beta  occ. eigenvalues --   -0.33482  -0.32002  -0.31524  -0.31126  -0.30491
  Beta  occ. eigenvalues --   -0.28558  -0.28265  -0.27262  -0.25464  -0.25119
  Beta  occ. eigenvalues --   -0.22757  -0.17613  -0.17057  -0.16209  -0.14048
  Beta  occ. eigenvalues --   -0.13746  -0.12057  -0.09146
  Beta virt. eigenvalues --    0.07714   0.08476   0.09501   0.10038   0.10298
  Beta virt. eigenvalues --    0.11469   0.11700   0.12540   0.13136   0.14317
  Beta virt. eigenvalues --    0.15098   0.15379   0.15909   0.16621   0.17299

 Mulliken charges and spin densities:
               1          2
     1  C   -0.738551  -0.181306
     2  C    0.534579   0.008266
     3  C   -0.609793   0.462584
     4  O   -0.004620   0.028981
     5  C   -0.260702   0.272237
     6  C    0.451892  -0.391081
     7  C   -0.055684   0.120126
     8  O   -0.386581   0.121561
     9  N   -0.170751  -0.202456
    10  N   -0.332770   0.197596
    11  C    0.649325  -0.617240
    12  O   -0.421441   0.046164
    13  N   -0.351347  -0.010470
    14  H   -0.023319   0.154107
    15  H    0.120530   0.064500
    16  H    0.181492  -0.081139
    17  H    0.116712   0.009388
    18  H    0.101194   0.024546
    19  H    0.221461   0.070814
    20  H    0.194012   0.111913
    21  H    0.082341   0.188325
    22  H   -0.297980   0.602586
 Sum of Mulliken charges =  -1.00000   1.00000

 Dipole moment (field-independent basis, Debye):
    X=             -1.9860    Y=             -1.4958    Z=             -0.2132  Tot=              2.4954
 Quadrupole moment (field-independent basis, Debye-Ang):
   XX=           -123.8089   YY=           -102.0148   ZZ=            -91.8303
   XY=             15.7634   XZ=              0.3375   YZ=             -4.7701

 Summary of Natural Population Analysis:

                                       Natural Population
                Natural  -----------------------------------------------
    Atom  No    Charge         Core      Valence    Rydberg      Total
 -----------------------------------------------------------------------
      C    1   -0.29490      0.99963     2.29030    0.00497     3.29490
      C    2   -0.00171      0.99950     1.99448    0.00773     3.00171
      C    3    0.09448      0.99937     1.89154    0.01460     2.90552
      O    4   -0.20466      0.99986     3.19646    0.00834     4.20466
      C    5    0.10587      0.99953     1.87943    0.01517     2.89413
      C    6   -0.18216      0.99953     2.17351    0.00911     3.18216
      C    7    0.35172      0.99964     1.62650    0.02215     2.64828
      O    8   -0.28309      0.99988     3.27756    0.00565     4.28309
      N    9   -0.24794      0.99968     2.73497    0.01330     3.74794
      N   10   -0.24025      0.99968     2.72785    0.01272     3.74025
      C   11    0.39802      0.99973     1.57920    0.02305     2.60198
      O   12   -0.34073      0.99987     3.33476    0.00610     4.34073
      N   13   -0.41599      0.99971     2.90791    0.00838     3.91599
      H   14    0.09572      0.00000     0.40334    0.00093     0.40428
      H   15    0.11159      0.00000     0.38688    0.00153     0.38841
      H   16    0.10223      0.00000     0.39616    0.00161     0.39777
      H   17    0.08456      0.00000     0.41454    0.00090     0.41544
      H   18    0.09993      0.00000     0.39925    0.00082     0.40007
      H   19    0.18071      0.00000     0.31619    0.00310     0.31929
      H   20    0.18781      0.00000     0.30946    0.00273     0.31219
      H   21    0.20125      0.00000     0.29618    0.00257     0.29875
      H   22    0.19755      0.00000     0.29732    0.00513     0.30245
 =======================================================================
   * Total *   -0.00000     12.99562    34.83380    0.17058    48.00000

 Normal termination of Gaussian 16 at Wed Dec  9 23:24:46 2020.
