 Gaussian 16, Revision A.03,

 -----------------------------------------------------------
 # opt freq B3LYP/6-31G(d) empiricaldispersion=gd3bj scf=xqc
 -----------------------------------------------------------

 -------------------------------
 CID_107149623_JID_9968_neutraal
 -------------------------------
 Symbolic Z-matrix:
 Charge =  0 Multiplicity = 1

 SCF Done:  E(RB3LYP) =  -844.860017439     A.U. after   15 cycles
 SCF Done:  E(RB3LYP) =  -844.865305716     A.U. after   13 cycles
 SCF Done:  E(RB3LYP) =  -844.865953693     A.U. after   13 cycles
 SCF Done:  E(RB3LYP) =  -844.866431631     A.U. after   12 cycles
 SCF Done:  E(RB3LYP) =  -844.866663095     A.U. after   12 cycles
 SCF Done:  E(RB3LYP) =  -844.867125341     A.U. after   12 cycles
 SCF Done:  E(RB3LYP) =  -844.867563817     A.U. after   14 cycles
 SCF Done:  E(RB3LYP) =  -844.867572205     A.U. after   14 cycles
 SCF Done:  E(RB3LYP) =  -844.867967791     A.U. after   12 cycles
 SCF Done:  E(RB3LYP) =  -844.868197059     A.U. after   12 cycles
 SCF Done:  E(RB3LYP) =  -844.868782749     A.U. after   11 cycles
 SCF Done:  E(RB3LYP) =  -844.868784790     A.U. after   11 cycles
 SCF Done:  E(RB3LYP) =  -844.868785430     A.U. after    8 cycles
 SCF Done:  E(RB3LYP) =  -844.868785727     A.U. after    8 cycles
 SCF Done:  E(RB3LYP) =  -844.868785735     A.U. after    6 cycles
 Optimization completed.
    -- Stationary point found.
 Normal termination of Gaussian 16 at Mon Dec 14 13:56:17 2020.

 --------------------------------------------------------------------
 #N Geom=AllCheck Guess=TCheck SCRF=Check GenChk RB3LYP/6-31G(d) Freq
 --------------------------------------------------------------------

 Structure from the checkpoint file:  "JID_9968.chk"
 -------------------------------
 CID_107149623_JID_9968_neutraal
 -------------------------------
 Charge =  0 Multiplicity = 1

 SCF Done:  E(RB3LYP) =  -844.868785735     A.U. after    1 cycles

  Exact polarizability: 213.463 -11.382 184.469  -5.042  -5.708 116.392
 Approx polarizability: 280.287 -13.371 288.420 -11.674 -15.542 178.685

                      1                      2                      3
                      A                      A                      A
 Frequencies --     17.7436                30.3681                42.9632
 Red. masses --      4.6373                 4.2836                 3.6690
 Frc consts  --      0.0009                 0.0023                 0.0040
 IR Inten    --      1.1139                 3.5025                 0.0749

                      4                      5                      6
                      A                      A                      A
 Frequencies --     67.6656                82.2633                87.6081
 Red. masses --      3.5873                 2.9592                 3.2996
 Frc consts  --      0.0097                 0.0118                 0.0149
 IR Inten    --      2.4345                 1.0270                 0.0298

                      7                      8                      9
                      A                      A                      A
 Frequencies --    109.8403               114.1376               124.9710
 Red. masses --      4.9036                 2.4713                 2.9945
 Frc consts  --      0.0349                 0.0190                 0.0276
 IR Inten    --      0.9009                 1.4818                 0.5335

                     10                     11                     12
                      A                      A                      A
 Frequencies --    172.5015               200.5388               226.7243
 Red. masses --      4.5340                 4.7682                 1.0666
 Frc consts  --      0.0795                 0.1130                 0.0323
 IR Inten    --      4.5453                 1.6619                 0.0777

                     13                     14                     15
                      A                      A                      A
 Frequencies --    235.1370               236.4518               285.0262
 Red. masses --      1.8686                 1.5828                 3.7362
 Frc consts  --      0.0609                 0.0521                 0.1788
 IR Inten    --      1.2516                 1.2959                 2.6535

                     16                     17                     18
                      A                      A                      A
 Frequencies --    305.1783               328.8005               335.0141
 Red. masses --      2.7677                 2.5069                 2.4905
 Frc consts  --      0.1519                 0.1597                 0.1647
 IR Inten    --      7.1590                 0.3102                 4.0640

                     19                     20                     21
                      A                      A                      A
 Frequencies --    401.8143               408.7435               423.8831
 Red. masses --      3.3447                 3.4289                 2.5824
 Frc consts  --      0.3182                 0.3375                 0.2734
 IR Inten    --      0.2449                 6.9018                 0.3069

                     22                     23                     24
                      A                      A                      A
 Frequencies --    444.8127               452.1810               461.9041
 Red. masses --      3.8326                 3.6378                 3.1939
 Frc consts  --      0.4468                 0.4382                 0.4015
 IR Inten    --      9.1225                 1.4402                 4.3608

                     25                     26                     27
                      A                      A                      A
 Frequencies --    507.2260               511.4381               540.5839
 Red. masses --      3.9370                 3.1795                 5.1051
 Frc consts  --      0.5968                 0.4900                 0.8790
 IR Inten    --      4.8427                 5.3173                 1.8716

                     28                     29                     30
                      A                      A                      A
 Frequencies --    603.5800               619.6709               659.6413
 Red. masses --      3.3423                 3.1720                 4.8490
 Frc consts  --      0.7174                 0.7176                 1.2431
 IR Inten    --      0.1898                33.6106                14.2397

                     31                     32                     33
                      A                      A                      A
 Frequencies --    709.5023               726.7228               749.7591
 Red. masses --      3.5607                 4.1523                 2.2538
 Frc consts  --      1.0561                 1.2921                 0.7465
 IR Inten    --      9.6541                 2.4029                47.2334

                     34                     35                     36
                      A                      A                      A
 Frequencies --    775.3188               780.7285               805.2876
 Red. masses --      1.4243                 1.9349                 1.6303
 Frc consts  --      0.5044                 0.6949                 0.6229
 IR Inten    --     22.9996                 0.4302                11.9908

                     37                     38                     39
                      A                      A                      A
 Frequencies --    811.2570               828.5078               848.5028
 Red. masses --      1.1496                 2.3774                 2.8639
 Frc consts  --      0.4458                 0.9615                 1.2148
 IR Inten    --     10.5508                33.2028                 2.8630

                     40                     41                     42
                      A                      A                      A
 Frequencies --    893.0086               939.5490               960.1476
 Red. masses --      1.3040                 2.2659                 1.3198
 Frc consts  --      0.6127                 1.1785                 0.7168
 IR Inten    --      0.2138                 5.8699                 0.4228

                     43                     44                     45
                      A                      A                      A
 Frequencies --    963.9103               974.0463               998.1181
 Red. masses --      2.2233                 3.8269                 1.2792
 Frc consts  --      1.2171                 2.1393                 0.7508
 IR Inten    --      5.0582                26.8113                 0.8962

                     46                     47                     48
                      A                      A                      A
 Frequencies --   1014.3929              1020.9945              1047.4048
 Red. masses --      1.7909                 2.0093                 2.4606
 Frc consts  --      1.0858                 1.2341                 1.5905
 IR Inten    --     12.8973                16.1963                 8.0196

                     49                     50                     51
                      A                      A                      A
 Frequencies --   1054.4066              1076.0431              1092.2361
 Red. masses --      2.4039                 2.5296                 2.8321
 Frc consts  --      1.5747                 1.7257                 1.9907
 IR Inten    --     13.8309                14.3765                 1.9840

                     52                     53                     54
                      A                      A                      A
 Frequencies --   1104.3093              1116.5837              1126.0751
 Red. masses --      1.9879                 1.7737                 2.6412
 Frc consts  --      1.4283                 1.3029                 1.9733
 IR Inten    --      9.1080                 5.6978                10.1755

                     55                     56                     57
                      A                      A                      A
 Frequencies --   1134.0741              1136.1593              1152.6393
 Red. masses --      1.8364                 2.4802                 4.9660
 Frc consts  --      1.3915                 1.8863                 3.8873
 IR Inten    --     25.4430                15.9903               129.7820

                     58                     59                     60
                      A                      A                      A
 Frequencies --   1178.3466              1192.9394              1201.9393
 Red. masses --      2.4770                 1.7445                 1.1570
 Frc consts  --      2.0264                 1.4627                 0.9848
 IR Inten    --      8.1881                16.0595                 0.8839

                     61                     62                     63
                      A                      A                      A
 Frequencies --   1222.2209              1240.4623              1244.4268
 Red. masses --      2.1332                 2.4484                 1.3231
 Frc consts  --      1.8775                 2.2197                 1.2072
 IR Inten    --      3.9577                10.4890                 1.3616

                     64                     65                     66
                      A                      A                      A
 Frequencies --   1250.7037              1262.3713              1312.1475
 Red. masses --      1.2460                 2.6017                 1.3765
 Frc consts  --      1.1484                 2.4428                 1.3964
 IR Inten    --     12.5285                24.8291                 5.4293

                     67                     68                     69
                      A                      A                      A
 Frequencies --   1318.4500              1327.9858              1329.5801
 Red. masses --      1.3560                 1.3770                 1.2457
 Frc consts  --      1.3888                 1.4308                 1.2975
 IR Inten    --      5.8225                42.8965                57.9234

                     70                     71                     72
                      A                      A                      A
 Frequencies --   1348.1971              1355.7344              1357.8886
 Red. masses --      3.5534                 1.3385                 1.3193
 Frc consts  --      3.8054                 1.4495                 1.4332
 IR Inten    --      0.2911                 8.4604                14.0246

                     73                     74                     75
                      A                      A                      A
 Frequencies --   1390.9125              1400.6082              1410.3255
 Red. masses --      1.4010                 1.2783                 1.4481
 Frc consts  --      1.5969                 1.4775                 1.6971
 IR Inten    --     10.6688                16.3368                 4.6254

                     76                     77                     78
                      A                      A                      A
 Frequencies --   1422.1336              1434.0149              1436.1006
 Red. masses --      1.2718                 1.3941                 1.2933
 Frc consts  --      1.5155                 1.6891                 1.5715
 IR Inten    --      8.2748                18.9005                 8.9590

                     79                     80                     81
                      A                      A                      A
 Frequencies --   1441.6645              1491.3920              1499.9156
 Red. masses --      1.2637                 1.8408                 2.1912
 Frc consts  --      1.5475                 2.4123                 2.9045
 IR Inten    --     16.9960               127.3901                11.2238

                     82                     83                     84
                      A                      A                      A
 Frequencies --   1511.4060              1516.0071              1520.5092
 Red. masses --      1.2144                 1.1226                 1.0517
 Frc consts  --      1.6344                 1.5201                 1.4325
 IR Inten    --     42.4618                 1.4217                 2.0178

                     85                     86                     87
                      A                      A                      A
 Frequencies --   1522.8314              1525.7172              1528.4709
 Red. masses --      1.0510                 1.2282                 1.1124
 Frc consts  --      1.4360                 1.6844                 1.5311
 IR Inten    --      1.6263                22.6856                16.8787

                     88                     89                     90
                      A                      A                      A
 Frequencies --   1528.8607              1536.1316              1543.2222
 Red. masses --      1.1134                 1.0606                 1.8670
 Frc consts  --      1.5334                 1.4745                 2.6196
 IR Inten    --      3.0289                 5.0732                10.0284

                     91                     92                     93
                      A                      A                      A
 Frequencies --   1549.3175              1566.8258              1640.3383
 Red. masses --      1.2394                 1.0924                 6.2472
 Frc consts  --      1.7529                 1.5801                 9.9038
 IR Inten    --     26.6554                 0.2126                 0.1947

                     94                     95                     96
                      A                      A                      A
 Frequencies --   1666.5926              1743.4920              2961.3089
 Red. masses --      5.5729                 9.2098                 1.0730
 Frc consts  --      9.1199                16.4945                 5.5442
 IR Inten    --      1.3597               282.0001                59.1263

                     97                     98                     99
                      A                      A                      A
 Frequencies --   2992.2462              3035.2100              3043.8564
 Red. masses --      1.0713                 1.0709                 1.0688
 Frc consts  --      5.6514                 5.8128                 5.8345
 IR Inten    --     49.9744                 1.7193                48.5687

                    100                    101                    102
                      A                      A                      A
 Frequencies --   3051.9595              3053.2202              3058.6710
 Red. masses --      1.0365                 1.0379                 1.0671
 Frc consts  --      5.6883                 5.7005                 5.8822
 IR Inten    --     19.7084                11.8051                30.7749

                    103                    104                    105
                      A                      A                      A
 Frequencies --   3073.3700              3074.6908              3088.1455
 Red. masses --      1.0702                 1.1028                 1.0893
 Frc consts  --      5.9558                 6.1427                 6.1203
 IR Inten    --     19.4792                54.4356                30.5601

                    106                    107                    108
                      A                      A                      A
 Frequencies --   3114.0817              3115.0389              3124.6517
 Red. masses --      1.1015                 1.1007                 1.1014
 Frc consts  --      6.2937                 6.2929                 6.3358
 IR Inten    --     11.5402                31.1921                35.4868

                    109                    110                    111
                      A                      A                      A
 Frequencies --   3127.2913              3137.2790              3138.5263
 Red. masses --      1.0948                 1.0977                 1.0998
 Frc consts  --      6.3082                 6.3656                 6.3826
 IR Inten    --     41.6841                20.8513                12.2152

                    112                    113                    114
                      A                      A                      A
 Frequencies --   3149.6928              3169.0335              3189.9059
 Red. masses --      1.1036                 1.0877                 1.0876
 Frc consts  --      6.4508                 6.4359                 6.5203
 IR Inten    --     22.4134                13.2816                10.0855

                    115                    116                    117
                      A                      A                      A
 Frequencies --   3201.8626              3212.3076              3498.6555
 Red. masses --      1.0919                 1.0968                 1.0740
 Frc consts  --      6.5951                 6.6683                 7.7454
 IR Inten    --     13.5483                20.5047                 1.2831

 - Thermochemistry -
 -------------------
 Temperature   298.150 Kelvin.  Pressure   1.00000 Atm.
 Atom     1 has atomic number  6 and mass  12.00000

 Molecular mass:   262.16813 amu.
 Principal axes and moments of inertia in atomic units:
                           1         2         3
     Eigenvalues --  2739.084309277.02503**********
           X            0.99996  -0.00839   0.00278
           Y            0.00835   0.99984   0.01574
           Z           -0.00292  -0.01572   0.99987
 This molecule is an asymmetric top.
 Rotational symmetry number  1.
 Warning -- assumption of classical behavior for rotation
           may cause significant error
 Rotational temperatures (Kelvin)      0.03162     0.00934     0.00782
 Rotational constants (GHZ):           0.65888     0.19454     0.16286
 Zero-point vibrational energy     941815.7 (Joules/Mol)
                                  225.09935 (Kcal/Mol)
 Warning -- explicit consideration of  29 degrees of freedom as
           vibrations may cause significant error
 Vibrational temperatures:     25.53    43.69    61.81    97.36   118.36
          (Kelvin)            126.05   158.04   164.22   179.81   248.19
                              288.53   326.21   338.31   340.20   410.09
                              439.08   473.07   482.01   578.12   588.09
                              609.87   639.99   650.59   664.58   729.79
                              735.85   777.78   868.42   891.57   949.08
                             1020.82  1045.59  1078.74  1115.51  1123.29
                             1158.63  1167.22  1192.04  1220.81  1284.84
                             1351.80  1381.44  1386.85  1401.44  1436.07
                             1459.49  1468.98  1506.98  1517.06  1548.19
                             1571.48  1588.85  1606.51  1620.17  1631.68
                             1634.68  1658.39  1695.38  1716.37  1729.32
                             1758.50  1784.75  1790.45  1799.48  1816.27
                             1887.89  1896.96  1910.68  1912.97  1939.75
                             1950.60  1953.70  2001.21  2015.16  2029.14
                             2046.13  2063.23  2066.23  2074.23  2145.78
                             2158.04  2174.58  2181.20  2187.67  2191.01
                             2195.17  2199.13  2199.69  2210.15  2220.35
                             2229.12  2254.31  2360.08  2397.85  2508.50
                             4260.66  4305.17  4366.99  4379.43  4391.09
                             4392.90  4400.75  4421.89  4423.79  4443.15
                             4480.47  4481.85  4495.68  4499.47  4513.84
                             4515.64  4531.71  4559.53  4589.56  4606.77
                             4621.79  5033.78

 Zero-point correction=                           0.358719 (Hartree/Particle)
 Thermal correction to Energy=                    0.377330
 Thermal correction to Enthalpy=                  0.378274
 Thermal correction to Gibbs Free Energy=         0.310060
 Sum of electronic and zero-point Energies=           -844.510067
 Sum of electronic and thermal Energies=              -844.491456
 Sum of electronic and thermal Enthalpies=            -844.490511
 Sum of electronic and thermal Free Energies=         -844.558726

                     E (Thermal)             CV                S
                      KCal/Mol        Cal/Mol-Kelvin    Cal/Mol-Kelvin
 Total                  236.778             70.610            143.569
 Electronic               0.000              0.000              0.000
 Translational            0.889              2.981             42.591
 Rotational               0.889              2.981             33.998
 Vibrational            235.001             64.649             66.980
 Vibration     1          0.593              1.986              6.872
 Vibration     2          0.594              1.984              5.805
 Vibration     3          0.595              1.980              5.118
 Vibration     4          0.598              1.970              4.220
 Vibration     5          0.600              1.961              3.836
 Vibration     6          0.601              1.958              3.713
 Vibration     7          0.606              1.941              3.272
 Vibration     8          0.607              1.938              3.197
 Vibration     9          0.610              1.928              3.022
 Vibration    10          0.626              1.876              2.408
 Vibration    11          0.638              1.839              2.128
 Vibration    12          0.650              1.800              1.905
 Vibration    13          0.655              1.787              1.839
 Vibration    14          0.655              1.785              1.829
 Vibration    15          0.683              1.701              1.503
 Vibration    16          0.696              1.664              1.388
 Vibration    17          0.712              1.618              1.266
 Vibration    18          0.716              1.606              1.236
 Vibration    19          0.767              1.466              0.956
 Vibration    20          0.773              1.451              0.931
 Vibration    21          0.786              1.418              0.879
 Vibration    22          0.804              1.372              0.812
 Vibration    23          0.811              1.356              0.789
 Vibration    24          0.820              1.335              0.761
 Vibration    25          0.862              1.234              0.640
 Vibration    26          0.867              1.225              0.630
 Vibration    27          0.896              1.160              0.564
 Vibration    28          0.962              1.024              0.444
 Vibration    29          0.980              0.990              0.417

 Optimization completed.
    -- Stationary point found.
 Normal termination of Gaussian 16 at Mon Dec 14 14:17:57 2020.

 ----------------------------------------------------------------------
 # B3LYP/6-311++G(d,p) empiricaldispersion=gd3bj scf=xqc pop=npa geom=c
 heck
 ----------------------------------------------------------------------

 ---------------------------------------
 CID_107149623_JID_9968_Energie_neutraal
 ---------------------------------------
 Structure from the checkpoint file:  "JID_9968.chk"
 Charge =  0 Multiplicity = 1

 SCF Done:  E(RB3LYP) =  -845.103596151     A.U. after   15 cycles
 Normal termination of Gaussian 16 at Mon Dec 14 14:28:40 2020.

 ----------------------------------------------------------------------
 # B3LYP/6-311++G(d,p) empiricaldispersion=gd3bj scf=xqc pop=npa geom=c
 heck
 ----------------------------------------------------------------------

 -------------------------------------
 CID_107149623_JID_9968_Energie_kation
 -------------------------------------
 Structure from the checkpoint file:  "JID_9968.chk"
 Charge =  1 Multiplicity = 2

 SCF Done:  E(UB3LYP) =  -844.812032173     A.U. after   30 cycles
 Normal termination of Gaussian 16 at Mon Dec 14 14:58:45 2020.
 Gaussian 16:  ES64L-G16RevA.03 25-Dec-2016

 ----------------------------------------------------------------------
 # B3LYP/6-311++G(d,p) empiricaldispersion=gd3bj scf=xqc pop=npa geom=c
 heck
 ----------------------------------------------------------------------

 ------------------------------------
 CID_107149623_JID_9968_Energie_anion
 ------------------------------------
 Structure from the checkpoint file:  "JID_9968.chk"
 Charge = -1 Multiplicity = 2

                         Standard orientation:
 ---------------------------------------------------------------------
 Center     Atomic      Atomic             Coordinates (Angstroms)
 Number     Number       Type             X           Y           Z
 ---------------------------------------------------------------------
      1          6           0       -4.066326   -1.548533   -1.826972
      2          6           0       -4.347898   -0.999726   -0.427742
      3          7           0       -3.279635   -0.119168    0.050164
      4          6           0       -3.383727    1.310348   -0.250039
      5          6           0       -4.194978    2.080968    0.793088
      6          6           0       -2.198468   -0.693614    0.647873
      7          8           0       -2.087313   -1.913679    0.783970
      8          6           0       -1.069450    0.223514    1.114617
      9          7           0       -0.239213    0.604621   -0.037279
     10          6           0        1.134447    0.980752    0.315028
     11          6           0        1.597169    2.155643   -0.549638
     12          8           0        2.913217    2.535753   -0.181262
     13          6           0        3.867064    1.552105   -0.539811
     14          6           0        3.464401    0.137460   -0.172360
     15          6           0        4.401206   -0.894671   -0.280365
     16          6           0        4.043784   -2.212927   -0.009698
     17          6           0        2.730365   -2.509299    0.358322
     18          6           0        1.788761   -1.487778    0.464602
     19          6           0        2.145925   -0.155695    0.211403
     20          1           0       -3.935100   -0.738330   -2.553510
     21          1           0       -4.895191   -2.179331   -2.167283
     22          1           0       -3.155668   -2.153622   -1.809469
     23          1           0       -5.281043   -0.426360   -0.413633
     24          1           0       -4.444135   -1.822417    0.283544
     25          1           0       -2.376469    1.718450   -0.357372
     26          1           0       -3.857722    1.402089   -1.234631
     27          1           0       -3.716276    2.028095    1.776696
     28          1           0       -4.281157    3.135907    0.509348
     29          1           0       -5.206613    1.671651    0.890056
     30          1           0       -1.448094    1.133418    1.595507
     31          1           0       -0.521921   -0.349408    1.873516
     32          1           0       -0.208740   -0.169899   -0.697063
     33          1           0        1.118283    1.346402    1.350481
     34          1           0        0.953727    3.023063   -0.385028
     35          1           0        1.545688    1.883364   -1.617299
     36          1           0        4.059202    1.598701   -1.627103
     37          1           0        4.797107    1.832636   -0.034012
     38          1           0        5.419837   -0.660466   -0.583532
     39          1           0        4.783147   -3.004737   -0.090567
     40          1           0        2.436024   -3.535185    0.559983
     41          1           0        0.766169   -1.740071    0.729669
 ---------------------------------------------------------------------

 SCF Done:  E(UB3LYP) =  -845.092427172     A.U. after   33 cycles
 SCF Done:  E(UB3LYP) =  -845.092427172     a.u. after    1 cycles

 The electronic state is 2-A.
 Alpha  occ. eigenvalues --  -19.04349 -18.99454 -14.25018 -14.22018 -10.17687
 Alpha  occ. eigenvalues --  -10.14002 -10.12656 -10.11811 -10.11248 -10.11233
 Alpha  occ. eigenvalues --  -10.11081 -10.09706 -10.09285 -10.08796 -10.08770
 Alpha  occ. eigenvalues --  -10.08669 -10.08349 -10.07447 -10.06832  -0.96016
 Alpha  occ. eigenvalues --   -0.94636  -0.84640  -0.83026  -0.77265  -0.69466
 Alpha  occ. eigenvalues --   -0.68502  -0.67943  -0.65570  -0.64904  -0.60920
 Alpha  occ. eigenvalues --   -0.57145  -0.55052  -0.54684  -0.54239  -0.51414
 Alpha  occ. eigenvalues --   -0.48304  -0.44705  -0.44110  -0.42310  -0.40971
 Alpha  occ. eigenvalues --   -0.40067  -0.39610  -0.38639  -0.37509  -0.36747
 Alpha  occ. eigenvalues --   -0.35482  -0.35323  -0.34573  -0.33863  -0.33542
 Alpha  occ. eigenvalues --   -0.32884  -0.31810  -0.30764  -0.30503  -0.29906
 Alpha  occ. eigenvalues --   -0.29805  -0.28784  -0.28761  -0.27632  -0.27363
 Alpha  occ. eigenvalues --   -0.26807  -0.26001  -0.25705  -0.25159  -0.23143
 Alpha  occ. eigenvalues --   -0.18462  -0.17453  -0.16653  -0.16087  -0.15414
 Alpha  occ. eigenvalues --   -0.14070   0.04014
 Alpha virt. eigenvalues --    0.05326   0.06044   0.06512   0.06877   0.07110
 Alpha virt. eigenvalues --    0.07759   0.08068   0.08768   0.09219   0.09281
 Alpha virt. eigenvalues --    0.09665   0.09929   0.10395   0.10508   0.11095

  Beta  occ. eigenvalues --  -19.04349 -18.99442 -14.25020 -14.22010 -10.17674
  Beta  occ. eigenvalues --  -10.13992 -10.12639 -10.11809 -10.11232 -10.11214
  Beta  occ. eigenvalues --  -10.11060 -10.09715 -10.09238 -10.08782 -10.08760
  Beta  occ. eigenvalues --  -10.08616 -10.08311 -10.07432 -10.06782  -0.96010
  Beta  occ. eigenvalues --   -0.94613  -0.84626  -0.83006  -0.77201  -0.69414
  Beta  occ. eigenvalues --   -0.68462  -0.67897  -0.65508  -0.64843  -0.60881
  Beta  occ. eigenvalues --   -0.57113  -0.54973  -0.54622  -0.54178  -0.51352
  Beta  occ. eigenvalues --   -0.48258  -0.44663  -0.44076  -0.42276  -0.40936
  Beta  occ. eigenvalues --   -0.40029  -0.39577  -0.38608  -0.37459  -0.36715
  Beta  occ. eigenvalues --   -0.35439  -0.35287  -0.34545  -0.33827  -0.33503
  Beta  occ. eigenvalues --   -0.32859  -0.31774  -0.30730  -0.30464  -0.29841
  Beta  occ. eigenvalues --   -0.29747  -0.28749  -0.28708  -0.27588  -0.27306
  Beta  occ. eigenvalues --   -0.26727  -0.25964  -0.25671  -0.25101  -0.23119
  Beta  occ. eigenvalues --   -0.18444  -0.17233  -0.16618  -0.15984  -0.15379
  Beta  occ. eigenvalues --   -0.13993
  Beta virt. eigenvalues --    0.05790   0.06365   0.06388   0.06714   0.07290
  Beta virt. eigenvalues --    0.07410   0.08182   0.08398   0.09000   0.09383
  Beta virt. eigenvalues --    0.09566   0.09947   0.10216   0.10453   0.10613

 Mulliken charges and spin densities:
               1          2
     1  C    0.132948  -0.554944
     2  C    0.079505  -0.230156
     3  N    0.219069   0.010913
     4  C   -0.965740   0.642392
     5  C    1.566634  -1.994538
     6  C   -0.934951   0.690526
     7  O   -0.280773  -0.002563
     8  C    0.272436  -0.675341
     9  N    0.159065   0.043281
    10  C   -1.120644  -0.091887
    11  C    0.474136  -0.779862
    12  O   -0.077674   0.025155
    13  C    0.519202  -0.900451
    14  C   -0.348923   0.609763
    15  C   -0.094045  -0.454510
    16  C    0.077137  -0.242333
    17  C   -0.022741  -0.421595
    18  C   -0.624048   0.068717
    19  C    0.765310   0.818313
    20  H    0.016212   0.113531
    21  H   -0.050293   0.187452
    22  H    0.086766   0.081753
    23  H   -0.328840   0.474716
    24  H    0.136105   0.047173
    25  H    0.257627  -0.043443
    26  H   -0.392758   0.547787
    27  H   -0.287382   0.424734
    28  H   -0.504494   0.656386
    29  H   -0.173261   0.319215
    30  H    0.029943   0.132336
    31  H    0.067452   0.102527
    32  H    0.292470  -0.034912
    33  H    0.071434   0.136326
    34  H   -0.057437   0.281036
    35  H    0.011633   0.112188
    36  H    0.117964   0.049812
    37  H    0.032411   0.139443
    38  H   -0.304274   0.455059
    39  H   -0.128293   0.266887
    40  H    0.111327   0.057138
    41  H    0.199786  -0.068024
 Sum of Mulliken charges =  -1.00000   1.00000

 Dipole moment (field-independent basis, Debye):
    X=              4.8862    Y=             -3.1958    Z=             -0.5249  Tot=              5.8620
 Quadrupole moment (field-independent basis, Debye-Ang):
   XX=           -224.6416   YY=           -172.1795   ZZ=           -144.7474
   XY=             15.2483   XZ=             -2.9001   YZ=             -1.0196

 Summary of Natural Population Analysis:

                                       Natural Population
                Natural  -----------------------------------------------
    Atom  No    Charge         Core      Valence    Rydberg      Total
 -----------------------------------------------------------------------
      C    1   -0.29170      0.99966     2.28707    0.00497     3.29170
      C    2   -0.08714      0.99962     2.07638    0.01114     3.08714
      N    3   -0.25011      0.99963     2.73858    0.01190     3.75011
      C    4   -0.09194      0.99961     2.08131    0.01103     3.09194
      C    5   -0.28900      0.99966     2.28437    0.00496     3.28900
      C    6    0.34102      0.99963     1.63744    0.02191     2.65898
      O    7   -0.33209      0.99988     3.32695    0.00525     4.33209
      C    8   -0.12572      0.99959     2.11617    0.00996     3.12572
      N    9   -0.34115      0.99973     2.83036    0.01106     3.84115
      C   10   -0.02602      0.99955     2.01354    0.01293     3.02602
      C   11   -0.00625      0.99956     1.99225    0.01445     3.00625
      O   12   -0.29672      0.99989     3.28786    0.00897     4.29672
      C   13   -0.00981      0.99954     1.99899    0.01128     3.00981
      C   14   -0.03271      0.99947     2.02356    0.00969     3.03271
      C   15   -0.09745      0.99952     2.08779    0.01014     3.09745
      C   16   -0.09334      0.99957     2.08422    0.00955     3.09334
      C   17   -0.10416      0.99957     2.09493    0.00967     3.10416
      C   18   -0.09666      0.99952     2.08892    0.00822     3.09666
      C   19   -0.01705      0.99946     2.00814    0.00945     3.01705
      H   20    0.09773      0.00000     0.40130    0.00097     0.40227
      H   21    0.09826      0.00000     0.40098    0.00076     0.40174
      H   22    0.10433      0.00000     0.39474    0.00093     0.39567
      H   23    0.09650      0.00000     0.40216    0.00134     0.40350
      H   24    0.10620      0.00000     0.39273    0.00106     0.39380
      H   25    0.11110      0.00000     0.38639    0.00250     0.38890
      H   26    0.09719      0.00000     0.40109    0.00172     0.40281
      H   27    0.09697      0.00000     0.40174    0.00129     0.40303
      H   28    0.10442      0.00000     0.39353    0.00205     0.39558
      H   29    0.09880      0.00000     0.39964    0.00156     0.40120
      H   30    0.09954      0.00000     0.39889    0.00157     0.40046
      H   31    0.09644      0.00000     0.40214    0.00141     0.40356
      H   32    0.17783      0.00000     0.31927    0.00291     0.32217
      H   33    0.10186      0.00000     0.39639    0.00175     0.39814
      H   34    0.09746      0.00000     0.40096    0.00158     0.40254
      H   35    0.07822      0.00000     0.42043    0.00135     0.42178
      H   36    0.08262      0.00000     0.41587    0.00151     0.41738
      H   37    0.09547      0.00000     0.40301    0.00153     0.40453
      H   38    0.09854      0.00000     0.40027    0.00119     0.40146
      H   39    0.09875      0.00000     0.40041    0.00085     0.40125
      H   40    0.10018      0.00000     0.39907    0.00075     0.39982
      H   41    0.10959      0.00000     0.38841    0.00200     0.39041
 =======================================================================
   * Total *   -0.00000     18.99264    51.77826    0.22910    71.00000

 Normal termination of Gaussian 16 at Mon Dec 14 15:32:30 2020.
