 Gaussian 16, Revision A.03,

 -----------------------------------------------------------
 # opt freq B3LYP/6-31G(d) empiricaldispersion=gd3bj scf=xqc
 -----------------------------------------------------------

 ------------------------------
 CID_21976932_JID_6701_neutraal
 ------------------------------
 Symbolic Z-matrix:
 Charge =  0 Multiplicity = 1

 SCF Done:  E(RB3LYP) =  -677.327652801     A.U. after   15 cycles
 SCF Done:  E(RB3LYP) =  -677.330470863     A.U. after   12 cycles
 SCF Done:  E(RB3LYP) =  -677.331115398     A.U. after   12 cycles
 SCF Done:  E(RB3LYP) =  -677.331305835     A.U. after   12 cycles
 SCF Done:  E(RB3LYP) =  -677.331356529     A.U. after   10 cycles
 SCF Done:  E(RB3LYP) =  -677.331395117     A.U. after   10 cycles
 SCF Done:  E(RB3LYP) =  -677.331410106     A.U. after   10 cycles
 SCF Done:  E(RB3LYP) =  -677.331419019     A.U. after   10 cycles
 SCF Done:  E(RB3LYP) =  -677.331431967     A.U. after   10 cycles
 SCF Done:  E(RB3LYP) =  -677.331437789     A.U. after    9 cycles
 SCF Done:  E(RB3LYP) =  -677.331446942     A.U. after   10 cycles
 SCF Done:  E(RB3LYP) =  -677.331447149     A.U. after    7 cycles
 SCF Done:  E(RB3LYP) =  -677.331447797     A.U. after    9 cycles
 SCF Done:  E(RB3LYP) =  -677.331448072     A.U. after    9 cycles
 SCF Done:  E(RB3LYP) =  -677.331448115     A.U. after    6 cycles
 Optimization completed.
    -- Stationary point found.
 Normal termination of Gaussian 16 at Thu Dec 10 23:48:09 2020.

 --------------------------------------------------------------------
 #N Geom=AllCheck Guess=TCheck SCRF=Check GenChk RB3LYP/6-31G(d) Freq
 --------------------------------------------------------------------

 Structure from the checkpoint file:  "JID_6701.chk"
 ------------------------------
 CID_21976932_JID_6701_neutraal
 ------------------------------
 Charge =  0 Multiplicity = 1

 SCF Done:  E(RB3LYP) =  -677.331448115     A.U. after    1 cycles

  Exact polarizability: 198.498   2.427 161.346   7.480  -0.790 117.302
 Approx polarizability: 243.246   0.768 232.518  10.325  -3.760 178.275

                      1                      2                      3
                      A                      A                      A
 Frequencies --     13.3351                19.3624                27.9471
 Red. masses --      3.8503                 4.0121                 3.4563
 Frc consts  --      0.0004                 0.0009                 0.0016
 IR Inten    --      1.2036                 0.3215                 0.1833

                      4                      5                      6
                      A                      A                      A
 Frequencies --     37.7259                70.2147                75.1997
 Red. masses --      3.3167                 3.2828                 2.8454
 Frc consts  --      0.0028                 0.0095                 0.0095
 IR Inten    --      0.1342                 0.1449                 0.2225

                      7                      8                      9
                      A                      A                      A
 Frequencies --     89.1041               106.3184               121.1878
 Red. masses --      4.8402                 2.9080                 2.6393
 Frc consts  --      0.0226                 0.0194                 0.0228
 IR Inten    --      0.3772                 0.4732                 0.2798

                     10                     11                     12
                      A                      A                      A
 Frequencies --    133.1535               170.1655               183.7090
 Red. masses --      2.6780                 2.6394                 2.3798
 Frc consts  --      0.0280                 0.0450                 0.0473
 IR Inten    --      0.2747                 0.2044                 0.4809

                     13                     14                     15
                      A                      A                      A
 Frequencies --    217.7605               244.0571               256.9726
 Red. masses --      2.0431                 1.8903                 2.3706
 Frc consts  --      0.0571                 0.0663                 0.0922
 IR Inten    --      3.0121                 0.4732                 1.9919

                     16                     17                     18
                      A                      A                      A
 Frequencies --    293.5616               324.6557               361.8839
 Red. masses --      1.7006                 2.9849                 2.6045
 Frc consts  --      0.0863                 0.1854                 0.2010
 IR Inten    --      0.4558                 1.6323                 2.7625

                     19                     20                     21
                      A                      A                      A
 Frequencies --    376.2887               408.1927               415.2451
 Red. masses --      4.1922                 2.6763                 2.8133
 Frc consts  --      0.3497                 0.2627                 0.2858
 IR Inten    --      6.3072                 2.0958                 2.2472

                     22                     23                     24
                      A                      A                      A
 Frequencies --    434.7039               489.5219               538.0896
 Red. masses --      2.0927                 2.0644                 2.0721
 Frc consts  --      0.2330                 0.2915                 0.3535
 IR Inten    --      3.9467                 3.3454                12.6679

                     25                     26                     27
                      A                      A                      A
 Frequencies --    562.3510               578.4820               627.9970
 Red. masses --      1.3468                 3.3089                 3.2956
 Frc consts  --      0.2509                 0.6524                 0.7658
 IR Inten    --     48.5459                 8.6384                23.2306

                     28                     29                     30
                      A                      A                      A
 Frequencies --    716.7009               745.2876               784.6160
 Red. masses --      2.6883                 1.4630                 1.1577
 Frc consts  --      0.8136                 0.4788                 0.4199
 IR Inten    --     31.0774                 4.3931                 1.0138

                     31                     32                     33
                      A                      A                      A
 Frequencies --    794.9325               809.4630               836.0386
 Red. masses --      1.2875                 2.3645                 1.7267
 Frc consts  --      0.4794                 0.9128                 0.7111
 IR Inten    --      2.7353                 7.6968                 1.4465

                     34                     35                     36
                      A                      A                      A
 Frequencies --    846.0112               850.9161               873.4417
 Red. masses --      1.4782                 2.1420                 2.2329
 Frc consts  --      0.6233                 0.9138                 1.0036
 IR Inten    --      9.0712                 7.3408                10.3720

                     37                     38                     39
                      A                      A                      A
 Frequencies --    890.2147               917.2786               931.7304
 Red. masses --      1.8671                 2.4017                 1.9190
 Frc consts  --      0.8718                 1.1906                 0.9815
 IR Inten    --      0.8926                 6.8757                 1.7185

                     40                     41                     42
                      A                      A                      A
 Frequencies --    946.9300               961.4257               989.7734
 Red. masses --      2.2629                 2.8171                 1.9295
 Frc consts  --      1.1955                 1.5342                 1.1137
 IR Inten    --      8.1028                 3.4451                 3.4427

                     43                     44                     45
                      A                      A                      A
 Frequencies --   1009.2782              1027.9167              1031.8911
 Red. masses --      1.3448                 1.5135                 1.1377
 Frc consts  --      0.8071                 0.9422                 0.7138
 IR Inten    --     10.8077                 9.6070                25.2168

                     46                     47                     48
                      A                      A                      A
 Frequencies --   1050.2775              1060.2634              1072.9478
 Red. masses --      1.6889                 1.7061                 1.4819
 Frc consts  --      1.0977                 1.1300                 1.0052
 IR Inten    --      6.6497                 2.7975                10.8289

                     49                     50                     51
                      A                      A                      A
 Frequencies --   1078.9083              1088.1849              1102.5719
 Red. masses --      1.9967                 1.3427                 1.6457
 Frc consts  --      1.3694                 0.9368                 1.1787
 IR Inten    --      7.8483                 2.4264                 3.5927

                     52                     53                     54
                      A                      A                      A
 Frequencies --   1109.4179              1131.5604              1142.3589
 Red. masses --      2.9562                 2.1097                 1.1550
 Frc consts  --      2.1438                 1.5916                 0.8880
 IR Inten    --      1.4018                 1.6192                 1.9145

                     55                     56                     57
                      A                      A                      A
 Frequencies --   1155.7382              1201.7281              1204.4788
 Red. masses --      1.6009                 1.2666                 1.5005
 Frc consts  --      1.2599                 1.0777                 1.2826
 IR Inten    --      4.1605                 1.6523                14.7650

                     58                     59                     60
                      A                      A                      A
 Frequencies --   1209.7036              1215.5082              1247.4439
 Red. masses --      1.3710                 2.2082                 1.6226
 Frc consts  --      1.1821                 1.9223                 1.4877
 IR Inten    --      0.1281                 2.5597                45.2259

                     61                     62                     63
                      A                      A                      A
 Frequencies --   1258.5701              1293.3611              1294.6765
 Red. masses --      1.4521                 1.2401                 1.3663
 Frc consts  --      1.3552                 1.2222                 1.3493
 IR Inten    --      8.5403                 6.4722                19.3077

                     64                     65                     66
                      A                      A                      A
 Frequencies --   1318.3786              1331.1755              1343.6454
 Red. masses --      1.2668                 1.3477                 1.2197
 Frc consts  --      1.2973                 1.4071                 1.2974
 IR Inten    --     23.9217                30.0378                13.3166

                     67                     68                     69
                      A                      A                      A
 Frequencies --   1346.6083              1366.1172              1375.5340
 Red. masses --      1.2628                 1.4328                 1.4340
 Frc consts  --      1.3492                 1.5755                 1.5987
 IR Inten    --      1.9956                 8.6102                 3.8804

                     70                     71                     72
                      A                      A                      A
 Frequencies --   1394.7168              1396.0878              1406.7203
 Red. masses --      1.4215                 1.5177                 1.3814
 Frc consts  --      1.6292                 1.7429                 1.6106
 IR Inten    --      7.8621                89.7801                58.6359

                     73                     74                     75
                      A                      A                      A
 Frequencies --   1419.6501              1426.8566              1435.8369
 Red. masses --      1.4278                 1.9292                 1.2257
 Frc consts  --      1.6954                 2.3141                 1.4889
 IR Inten    --      2.5408               101.7029                 1.1396

                     76                     77                     78
                      A                      A                      A
 Frequencies --   1466.5850              1487.0183              1506.5097
 Red. masses --      1.9574                 1.1045                 1.0936
 Frc consts  --      2.4806                 1.4390                 1.4624
 IR Inten    --     88.6385                 0.3264                 2.3168

                     79                     80                     81
                      A                      A                      A
 Frequencies --   1512.1130              1516.5040              1521.9638
 Red. masses --      1.0727                 1.0907                 1.0880
 Frc consts  --      1.4452                 1.4780                 1.4848
 IR Inten    --      2.3791                 9.5858                 7.5731

                     82                     83                     84
                      A                      A                      A
 Frequencies --   1527.0089              1527.5685              1528.3861
 Red. masses --      1.1740                 1.0409                 1.2770
 Frc consts  --      1.6129                 1.4311                 1.7575
 IR Inten    --      4.9093                 5.3135                10.0309

                     85                     86                     87
                      A                      A                      A
 Frequencies --   1537.1823              1721.3877              1758.4342
 Red. masses --      1.0678                 6.8187                 6.0544
 Frc consts  --      1.4866                11.9044                11.0299
 IR Inten    --      2.6801               117.6009                 0.2835

                     88                     89                     90
                      A                      A                      A
 Frequencies --   1778.5406              3020.5032              3030.0918
 Red. masses --      7.3017                 1.0650                 1.0630
 Frc consts  --     13.6083                 5.7249                 5.7502
 IR Inten    --    259.5313                38.8560                24.1239

                     91                     92                     93
                      A                      A                      A
 Frequencies --   3033.8979              3039.6015              3046.4643
 Red. masses --      1.0627                 1.0616                 1.0357
 Frc consts  --      5.7631                 5.7790                 5.6632
 IR Inten    --     36.0411                18.6756                29.8837

                     94                     95                     96
                      A                      A                      A
 Frequencies --   3048.0841              3066.9218              3071.1459
 Red. masses --      1.0615                 1.0965                 1.1000
 Frc consts  --      5.8104                 6.0768                 6.1131
 IR Inten    --     31.6619                14.6996                 3.3033

                     97                     98                     99
                      A                      A                      A
 Frequencies --   3072.6502              3084.5698              3091.1602
 Red. masses --      1.0979                 1.1005                 1.1033
 Frc consts  --      6.1071                 6.1693                 6.2115
 IR Inten    --     25.1739                44.5288                86.9430

                    100                    101                    102
                      A                      A                      A
 Frequencies --   3112.8122              3118.4342              3120.5600
 Red. masses --      1.1016                 1.0876                 1.1016
 Frc consts  --      6.2888                 6.2317                 6.3205
 IR Inten    --     28.2913                33.1012                37.6530

                    103                    104                    105
                      A                      A                      A
 Frequencies --   3124.2881              3135.0437              3154.8680
 Red. masses --      1.0918                 1.0868                 1.0512
 Frc consts  --      6.2789                 6.2935                 6.1643
 IR Inten    --     27.9018                47.7412                19.0205

                    106                    107                    108
                      A                      A                      A
 Frequencies --   3159.4415              3169.0399              3205.0794
 Red. masses --      1.0595                 1.0888                 1.0892
 Frc consts  --      6.2310                 6.4423                 6.5924
 IR Inten    --      4.3061                 3.9287                12.8943

                    109                    110                    111
                      A                      A                      A
 Frequencies --   3234.1701              3247.4333              3588.3013
 Red. masses --      1.1201                 1.1167                 1.0758
 Frc consts  --      6.9028                 6.9384                 8.1616
 IR Inten    --      1.1506                15.8930                26.5674

 - Thermochemistry -
 -------------------
 Temperature   298.150 Kelvin.  Pressure   1.00000 Atm.
 Atom     1 has atomic number  6 and mass  12.00000

 Molecular mass:   221.17796 amu.
 Principal axes and moments of inertia in atomic units:
                           1         2         3
     Eigenvalues --  2326.283199078.32566**********
           X            0.99995   0.00994  -0.00078
           Y           -0.00994   0.99995   0.00239
           Z            0.00081  -0.00238   1.00000
 This molecule is an asymmetric top.
 Rotational symmetry number  1.
 Warning -- assumption of classical behavior for rotation
           may cause significant error
 Rotational temperatures (Kelvin)      0.03723     0.00954     0.00802
 Rotational constants (GHZ):           0.77580     0.19880     0.16701
 Zero-point vibrational energy     915046.5 (Joules/Mol)
                                  218.70136 (Kcal/Mol)
 Warning -- explicit consideration of  26 degrees of freedom as
           vibrations may cause significant error
 Vibrational temperatures:     19.19    27.86    40.21    54.28   101.02
          (Kelvin)            108.20   128.20   152.97   174.36   191.58
                              244.83   264.32   313.31   351.14   369.73
                              422.37   467.11   520.67   541.40   587.30
                              597.45   625.44   704.31   774.19   809.10
                              832.31   903.55  1031.17  1072.30  1128.89
                             1143.73  1164.64  1202.87  1217.22  1224.28
                             1256.69  1280.82  1319.76  1340.55  1362.42
                             1383.28  1424.06  1452.13  1478.94  1484.66
                             1511.12  1525.48  1543.73  1552.31  1565.66
                             1586.35  1596.20  1628.06  1643.60  1662.85
                             1729.02  1732.98  1740.49  1748.85  1794.79
                             1810.80  1860.86  1862.75  1896.85  1915.26
                             1933.21  1937.47  1965.54  1979.09  2006.69
                             2008.66  2023.96  2042.56  2052.93  2065.85
                             2110.09  2139.49  2167.53  2175.59  2181.91
                             2189.77  2197.03  2197.83  2199.01  2211.66
                             2476.69  2529.99  2558.92  4345.83  4359.63
                             4365.10  4373.31  4383.18  4385.51  4412.62
                             4418.69  4420.86  4438.01  4447.49  4478.64
                             4486.73  4489.79  4495.15  4510.63  4539.15
                             4545.73  4559.54  4611.39  4653.25  4672.33
                             5162.77

 Zero-point correction=                           0.348523 (Hartree/Particle)
 Thermal correction to Energy=                    0.366937
 Thermal correction to Enthalpy=                  0.367881
 Thermal correction to Gibbs Free Energy=         0.298022
 Sum of electronic and zero-point Energies=           -676.982925
 Sum of electronic and thermal Energies=              -676.964511
 Sum of electronic and thermal Enthalpies=            -676.963567
 Sum of electronic and thermal Free Energies=         -677.033426

                     E (Thermal)             CV                S
                      KCal/Mol        Cal/Mol-Kelvin    Cal/Mol-Kelvin
 Total                  230.257             66.929            147.032
 Electronic               0.000              0.000              0.000
 Translational            0.889              2.981             42.084
 Rotational               0.889              2.981             33.789
 Vibrational            228.479             60.968             71.158
 Vibration     1          0.593              1.987              7.439
 Vibration     2          0.593              1.986              6.699
 Vibration     3          0.593              1.984              5.970
 Vibration     4          0.594              1.982              5.375
 Vibration     5          0.598              1.968              4.147
 Vibration     6          0.599              1.966              4.012
 Vibration     7          0.602              1.957              3.680
 Vibration     8          0.605              1.944              3.335
 Vibration     9          0.609              1.932              3.081
 Vibration    10          0.613              1.920              2.900
 Vibration    11          0.625              1.879              2.434
 Vibration    12          0.631              1.862              2.290
 Vibration    13          0.646              1.814              1.978
 Vibration    14          0.659              1.773              1.773
 Vibration    15          0.667              1.751              1.682
 Vibration    16          0.688              1.686              1.453
 Vibration    17          0.709              1.626              1.287
 Vibration    18          0.736              1.551              1.114
 Vibration    19          0.747              1.521              1.054
 Vibration    20          0.773              1.452              0.933
 Vibration    21          0.779              1.437              0.908
 Vibration    22          0.795              1.395              0.843
 Vibration    23          0.845              1.273              0.685
 Vibration    24          0.893              1.166              0.569
 Vibration    25          0.918              1.113              0.519
 Vibration    26          0.935              1.078              0.488

 Optimization completed.
    -- Stationary point found.
 Normal termination of Gaussian 16 at Thu Dec 10 23:59:07 2020.

 ----------------------------------------------------------------------
 # B3LYP/6-311++G(d,p) empiricaldispersion=gd3bj scf=xqc pop=npa geom=c
 heck
 ----------------------------------------------------------------------

 --------------------------------------
 CID_21976932_JID_6701_Energie_neutraal
 --------------------------------------
 Structure from the checkpoint file:  "JID_6701.chk"
 Charge =  0 Multiplicity = 1

 SCF Done:  E(RB3LYP) =  -677.525779131     A.U. after   15 cycles
 Normal termination of Gaussian 16 at Fri Dec 11 00:04:34 2020.

 ----------------------------------------------------------------------
 # B3LYP/6-311++G(d,p) empiricaldispersion=gd3bj scf=xqc pop=npa geom=c
 heck
 ----------------------------------------------------------------------

 ------------------------------------
 CID_21976932_JID_6701_Energie_kation
 ------------------------------------
 Structure from the checkpoint file:  "JID_6701.chk"
 Charge =  1 Multiplicity = 2

 SCF Done:  E(UB3LYP) =  -677.219336207     A.U. after   33 cycles
 SCF Done:  E(UB3LYP) =  -677.219336214     a.u. after    2 cycles
 Normal termination of Gaussian 16 at Fri Dec 11 00:32:47 2020.
 Gaussian 16:  ES64L-G16RevA.03 25-Dec-2016

 ----------------------------------------------------------------------
 # B3LYP/6-311++G(d,p) empiricaldispersion=gd3bj scf=xqc pop=npa geom=c
 heck
 ----------------------------------------------------------------------

 -----------------------------------
 CID_21976932_JID_6701_Energie_anion
 -----------------------------------
 Structure from the checkpoint file:  "JID_6701.chk"
 Charge = -1 Multiplicity = 2

                         Standard orientation:
 ---------------------------------------------------------------------
 Center     Atomic      Atomic             Coordinates (Angstroms)
 Number     Number       Type             X           Y           Z
 ---------------------------------------------------------------------
      1          6           0       -6.303427    0.584209    0.144545
      2          6           0       -5.105135    1.198395   -0.596840
      3          6           0       -3.828837    1.087310    0.189043
      4          6           0       -2.746258    0.403631   -0.189037
      5          6           0       -1.489583    0.259278    0.623137
      6          6           0       -1.267789   -1.164206    1.176299
      7          6           0       -1.253243   -2.278295    0.119757
      8          6           0       -0.205946   -2.082421   -0.998164
      9          6           0        1.184609   -1.962678   -0.457318
     10          6           0        1.952464   -0.871540   -0.552338
     11          6           0        3.303827   -0.843961    0.068763
     12          8           0        3.823259   -1.829037    0.587338
     13          7           0        3.960785    0.367204    0.056479
     14          6           0        3.537436    1.589420   -0.557762
     15          6           0        2.359264    2.334895    0.026179
     16          6           0        3.755027    2.865291    0.215451
     17          1           0       -6.141709   -0.484388    0.323605
     18          1           0       -7.228082    0.700226   -0.431943
     19          1           0       -6.452425    1.065404    1.118517
     20          1           0       -4.981113    0.709226   -1.571326
     21          1           0       -5.321241    2.257178   -0.803012
     22          1           0       -3.817217    1.598261    1.154943
     23          1           0       -2.766624   -0.108978   -1.152604
     24          1           0       -0.619874    0.543524    0.014716
     25          1           0       -1.517780    0.960455    1.466555
     26          1           0       -0.318781   -1.176512    1.726866
     27          1           0       -2.060357   -1.383981    1.902584
     28          1           0       -1.061691   -3.235337    0.622281
     29          1           0       -2.243629   -2.365834   -0.343488
     30          1           0       -0.260967   -2.946071   -1.675906
     31          1           0       -0.451759   -1.196339   -1.595688
     32          1           0        1.590275   -2.815699    0.086638
     33          1           0        1.596132    0.011587   -1.073278
     34          1           0        4.905114    0.314168    0.419026
     35          1           0        3.666091    1.648035   -1.639287
     36          1           0        1.693117    2.849260   -0.660394
     37          1           0        1.869721    1.880569    0.881617
     38          1           0        4.196938    2.773004    1.203337
     39          1           0        4.059844    3.748142   -0.338117
 ---------------------------------------------------------------------

 SCF Done:  E(UB3LYP) =  -677.520157323     A.U. after   31 cycles

 The electronic state is 2-A.
 Alpha  occ. eigenvalues --  -18.95566 -14.22141 -10.14023 -10.11878 -10.08735
 Alpha  occ. eigenvalues --  -10.08346 -10.08320 -10.07599 -10.07498 -10.07441
 Alpha  occ. eigenvalues --  -10.07331 -10.06748 -10.06634 -10.06427 -10.04752
 Alpha  occ. eigenvalues --  -10.04167  -0.90991  -0.82356  -0.74147  -0.72562
 Alpha  occ. eigenvalues --   -0.70513  -0.67527  -0.64283  -0.60741  -0.56301
 Alpha  occ. eigenvalues --   -0.53420  -0.52153  -0.51875  -0.49432  -0.46845
 Alpha  occ. eigenvalues --   -0.44970  -0.43086  -0.41793  -0.39731  -0.37798
 Alpha  occ. eigenvalues --   -0.37294  -0.37012  -0.35544  -0.34293  -0.32509
 Alpha  occ. eigenvalues --   -0.32464  -0.30831  -0.30570  -0.29359  -0.29168
 Alpha  occ. eigenvalues --   -0.28526  -0.28156  -0.27856  -0.27176  -0.26074
 Alpha  occ. eigenvalues --   -0.25402  -0.24012  -0.23205  -0.22876  -0.22434
 Alpha  occ. eigenvalues --   -0.21964  -0.20945  -0.15757  -0.14675  -0.14089
 Alpha  occ. eigenvalues --   -0.13467   0.04024
 Alpha virt. eigenvalues --    0.05456   0.06384   0.07380   0.07689   0.07791
 Alpha virt. eigenvalues --    0.08226   0.09019   0.09308   0.09487   0.09763
 Alpha virt. eigenvalues --    0.09958   0.10514   0.11468   0.11599   0.12030

  Beta  occ. eigenvalues --  -18.95447 -14.22128 -10.13892 -10.11864 -10.08718
  Beta  occ. eigenvalues --  -10.08338 -10.08306 -10.07598 -10.07473 -10.07431
  Beta  occ. eigenvalues --  -10.07331 -10.06742 -10.06598 -10.06448 -10.04457
  Beta  occ. eigenvalues --  -10.04145  -0.90772  -0.82272  -0.74091  -0.72524
  Beta  occ. eigenvalues --   -0.70391  -0.67345  -0.64146  -0.60660  -0.56186
  Beta  occ. eigenvalues --   -0.53264  -0.52095  -0.51832  -0.49252  -0.46773
  Beta  occ. eigenvalues --   -0.44930  -0.42959  -0.41627  -0.39670  -0.37720
  Beta  occ. eigenvalues --   -0.37257  -0.36913  -0.35477  -0.34230  -0.32419
  Beta  occ. eigenvalues --   -0.32405  -0.30727  -0.30502  -0.29237  -0.28758
  Beta  occ. eigenvalues --   -0.28388  -0.28098  -0.27759  -0.27094  -0.25994
  Beta  occ. eigenvalues --   -0.25370  -0.23907  -0.23112  -0.22826  -0.22306
  Beta  occ. eigenvalues --   -0.21893  -0.20893  -0.15675  -0.14193  -0.13482
  Beta  occ. eigenvalues --   -0.13160
  Beta virt. eigenvalues --    0.05925   0.06616   0.07373   0.07496   0.07875
  Beta virt. eigenvalues --    0.08342   0.08976   0.09108   0.09464   0.09647
  Beta virt. eigenvalues --    0.09884   0.09988   0.10680   0.11448   0.11724

 Mulliken charges and spin densities:
               1          2
     1  C    0.400274  -1.022772
     2  C   -0.683026   0.381961
     3  C    0.195956  -0.110825
     4  C   -0.074801  -0.027019
     5  C    0.048098  -0.308940
     6  C   -0.142566   0.017609
     7  C   -0.083010  -0.426289
     8  C   -0.032003  -0.275170
     9  C   -0.569473   0.803021
    10  C    0.310317  -0.265607
    11  C   -0.111411  -0.025459
    12  O   -0.399389   0.046720
    13  N   -0.233198   0.012657
    14  C   -0.264606   0.110020
    15  C    0.039387  -0.197490
    16  C    0.073304  -0.611635
    17  H   -0.021978   0.166579
    18  H   -0.264420   0.394901
    19  H   -0.021696   0.153117
    20  H   -0.123246   0.262119
    21  H   -0.061558   0.192219
    22  H   -0.004945   0.141156
    23  H    0.077159   0.072542
    24  H    0.058039  -0.078047
    25  H    0.134970   0.027872
    26  H    0.109901   0.042208
    27  H    0.160215  -0.014585
    28  H    0.039930   0.107624
    29  H   -0.057554   0.193397
    30  H    0.000432   0.175271
    31  H   -0.057399   0.214451
    32  H    0.195662  -0.012939
    33  H    0.156516  -0.036886
    34  H    0.292947   0.001665
    35  H   -0.194854   0.420179
    36  H   -0.018370   0.163531
    37  H    0.194851  -0.038999
    38  H    0.129703  -0.001502
    39  H   -0.198160   0.353347
 Sum of Mulliken charges =  -1.00000   1.00000

 Dipole moment (field-independent basis, Debye):
    X=              0.4530    Y=              1.5684    Z=              2.4166  Tot=              2.9163
 Quadrupole moment (field-independent basis, Debye-Ang):
   XX=           -207.6746   YY=           -144.8401   ZZ=           -124.3794
   XY=              8.8052   XZ=             -2.4782   YZ=              5.9399

 Summary of Natural Population Analysis:

                                       Natural Population
                Natural  -----------------------------------------------
    Atom  No    Charge         Core      Valence    Rydberg      Total
 -----------------------------------------------------------------------
      C    1   -0.27998      0.99966     2.27620    0.00411     3.27998
      C    2   -0.20547      0.99963     2.19657    0.00927     3.20547
      C    3   -0.09318      0.99951     2.08473    0.00894     3.09318
      C    4   -0.08669      0.99951     2.07739    0.00979     3.08669
      C    5   -0.20857      0.99961     2.20070    0.00826     3.20857
      C    6   -0.18654      0.99962     2.17857    0.00835     3.18654
      C    7   -0.18488      0.99963     2.17695    0.00831     3.18488
      C    8   -0.21244      0.99962     2.20389    0.00893     3.21244
      C    9    0.00616      0.99954     1.98456    0.00974     2.99384
      C   10   -0.17032      0.99946     2.16243    0.00843     3.17032
      C   11    0.34833      0.99965     1.63021    0.02181     2.65167
      O   12   -0.32637      0.99988     3.32089    0.00559     4.32637
      N   13   -0.32526      0.99967     2.81562    0.00997     3.82526
      C   14   -0.02128      0.99958     2.00855    0.01315     3.02128
      C   15   -0.19895      0.99962     2.19107    0.00825     3.19895
      C   16   -0.19965      0.99962     2.19206    0.00797     3.19965
      H   17    0.09817      0.00000     0.40046    0.00137     0.40183
      H   18    0.09748      0.00000     0.40115    0.00137     0.40252
      H   19    0.09347      0.00000     0.40509    0.00144     0.40653
      H   20    0.09789      0.00000     0.40082    0.00130     0.40211
      H   21    0.09665      0.00000     0.40223    0.00112     0.40335
      H   22    0.08705      0.00000     0.41180    0.00115     0.41295
      H   23    0.09142      0.00000     0.40716    0.00142     0.40858
      H   24    0.10441      0.00000     0.39389    0.00170     0.39559
      H   25    0.09581      0.00000     0.40263    0.00156     0.40419
      H   26    0.10176      0.00000     0.39725    0.00099     0.39824
      H   27    0.09388      0.00000     0.40520    0.00091     0.40612
      H   28    0.09530      0.00000     0.40380    0.00091     0.40470
      H   29    0.09747      0.00000     0.40131    0.00123     0.40253
      H   30    0.10451      0.00000     0.39448    0.00101     0.39549
      H   31    0.09428      0.00000     0.40414    0.00158     0.40572
      H   32    0.09729      0.00000     0.40151    0.00120     0.40271
      H   33    0.09489      0.00000     0.40326    0.00185     0.40511
      H   34    0.18823      0.00000     0.30915    0.00262     0.31177
      H   35    0.09763      0.00000     0.40062    0.00176     0.40237
      H   36    0.10418      0.00000     0.39457    0.00125     0.39582
      H   37    0.10768      0.00000     0.39116    0.00116     0.39232
      H   38    0.10172      0.00000     0.39736    0.00092     0.39828
      H   39    0.10392      0.00000     0.39479    0.00129     0.39608
 =======================================================================
   * Total *    0.00000     15.99382    44.82422    0.18196    61.00000

 Normal termination of Gaussian 16 at Fri Dec 11 00:47:55 2020.
