 Gaussian 16, Revision A.03,

 -----------------------------------------------------------
 # opt freq B3LYP/6-31G(d) empiricaldispersion=gd3bj scf=xqc
 -----------------------------------------------------------

 -------------------------------
 CID_154436076_JID_1941_neutraal
 -------------------------------
 Symbolic Z-matrix:
 Charge =  0 Multiplicity = 1

 SCF Done:  E(RB3LYP) =  -519.113413826     A.U. after   15 cycles
 SCF Done:  E(RB3LYP) =  -519.117289138     A.U. after   13 cycles
 SCF Done:  E(RB3LYP) =  -519.118020336     A.U. after   13 cycles
 SCF Done:  E(RB3LYP) =  -519.118518724     A.U. after   12 cycles
 SCF Done:  E(RB3LYP) =  -519.118717475     A.U. after   12 cycles
 SCF Done:  E(RB3LYP) =  -519.118820398     A.U. after   11 cycles
 SCF Done:  E(RB3LYP) =  -519.118890426     A.U. after   11 cycles
 SCF Done:  E(RB3LYP) =  -519.119061897     A.U. after   12 cycles
 SCF Done:  E(RB3LYP) =  -519.118308379     A.U. after   13 cycles
 SCF Done:  E(RB3LYP) =  -519.119185100     A.U. after   11 cycles
 SCF Done:  E(RB3LYP) =  -519.119348817     A.U. after    8 cycles
 SCF Done:  E(RB3LYP) =  -519.119349048     A.U. after    8 cycles
 SCF Done:  E(RB3LYP) =  -519.119349348     A.U. after    8 cycles
 SCF Done:  E(RB3LYP) =  -519.119349653     A.U. after    8 cycles
 SCF Done:  E(RB3LYP) =  -519.119349722     A.U. after    7 cycles
 Optimization completed.
    -- Stationary point found.
 Normal termination of Gaussian 16 at Tue Dec  8 21:45:44 2020.

 --------------------------------------------------------------------
 #N Geom=AllCheck Guess=TCheck SCRF=Check GenChk RB3LYP/6-31G(d) Freq
 --------------------------------------------------------------------

 Structure from the checkpoint file:  "JID_1941.chk"
 -------------------------------
 CID_154436076_JID_1941_neutraal
 -------------------------------
 Charge =  0 Multiplicity = 1

 SCF Done:  E(RB3LYP) =  -519.119349722     A.U. after    1 cycles

  Exact polarizability: 121.351  -6.654 103.543  -3.312  -2.347  71.099
 Approx polarizability: 171.025 -13.560 145.908  -7.538  -4.825  98.927

                      1                      2                      3
                      A                      A                      A
 Frequencies --     41.9047                47.7956                76.0281
 Red. masses --      3.3785                 4.1043                 4.3464
 Frc consts  --      0.0035                 0.0055                 0.0148
 IR Inten    --      0.4399                 2.1091                 1.5411

                      4                      5                      6
                      A                      A                      A
 Frequencies --     96.6894               137.6534               187.8942
 Red. masses --      2.7866                 3.2976                 3.2010
 Frc consts  --      0.0153                 0.0368                 0.0666
 IR Inten    --      0.0984                 0.8620                 3.7882

                      7                      8                      9
                      A                      A                      A
 Frequencies --    195.0854               241.4146               248.4135
 Red. masses --      1.2348                 1.0414                 1.6751
 Frc consts  --      0.0277                 0.0358                 0.0609
 IR Inten    --      1.4423                 1.1427                 2.3360

                     10                     11                     12
                      A                      A                      A
 Frequencies --    251.3874               272.6916               301.4466
 Red. masses --      1.1730                 1.2735                 3.2244
 Frc consts  --      0.0437                 0.0558                 0.1726
 IR Inten    --    226.6250                 2.7919                 5.7897

                     13                     14                     15
                      A                      A                      A
 Frequencies --    350.3490               382.4175               410.7502
 Red. masses --      2.6579                 3.2336                 3.9459
 Frc consts  --      0.1922                 0.2786                 0.3922
 IR Inten    --      2.1787                 0.6486                14.6803

                     16                     17                     18
                      A                      A                      A
 Frequencies --    426.3475               468.9824               492.3003
 Red. masses --      2.7506                 2.7724                 3.4388
 Frc consts  --      0.2946                 0.3593                 0.4910
 IR Inten    --      4.6096                 0.3850                 3.5671

                     19                     20                     21
                      A                      A                      A
 Frequencies --    541.0707               607.0285               628.6866
 Red. masses --      2.9415                 3.2639                 1.2539
 Frc consts  --      0.5074                 0.7086                 0.2920
 IR Inten    --      1.0324                30.4099                 8.4721

                     22                     23                     24
                      A                      A                      A
 Frequencies --    772.2363               790.0704               822.9810
 Red. masses --      3.0252                 8.2180                 1.1680
 Frc consts  --      1.0629                 3.0224                 0.4661
 IR Inten    --      7.0792                 6.6297                 3.1708

                     25                     26                     27
                      A                      A                      A
 Frequencies --    873.3156               879.2805               907.1968
 Red. masses --      1.6932                 1.9569                 2.3420
 Frc consts  --      0.7608                 0.8914                 1.1356
 IR Inten    --     18.1395                 6.1029                 4.8365

                     28                     29                     30
                      A                      A                      A
 Frequencies --    944.0208               977.7202              1005.1716
 Red. masses --      1.2011                 1.4587                 1.8038
 Frc consts  --      0.6307                 0.8216                 1.0738
 IR Inten    --      1.1560                 0.1117                30.5758

                     31                     32                     33
                      A                      A                      A
 Frequencies --   1053.5854              1106.6107              1119.1606
 Red. masses --      3.3720                 1.9316                 2.0786
 Frc consts  --      2.2053                 1.3937                 1.5340
 IR Inten    --     19.8694                 3.7684                12.4198

                     34                     35                     36
                      A                      A                      A
 Frequencies --   1134.9875              1161.3172              1204.3936
 Red. masses --      2.2715                 2.4180                 1.7912
 Frc consts  --      1.7240                 1.9214                 1.5308
 IR Inten    --     20.6808                97.5636                 9.1739

                     37                     38                     39
                      A                      A                      A
 Frequencies --   1221.4093              1225.4451              1323.9349
 Red. masses --      1.9013                 3.0808                 1.5592
 Frc consts  --      1.6712                 2.7259                 1.6103
 IR Inten    --      1.6596               144.2743                78.0112

                     40                     41                     42
                      A                      A                      A
 Frequencies --   1336.9455              1358.6170              1373.2592
 Red. masses --      1.1288                 1.4231                 1.5512
 Frc consts  --      1.1888                 1.5477                 1.7236
 IR Inten    --     14.4254                26.4711                56.6463

                     43                     44                     45
                      A                      A                      A
 Frequencies --   1418.6977              1420.3880              1433.9719
 Red. masses --      1.2265                 1.2540                 1.8290
 Frc consts  --      1.4545                 1.4907                 2.2159
 IR Inten    --      4.8798                 3.1695                87.8538

                     46                     47                     48
                      A                      A                      A
 Frequencies --   1442.4770              1444.7319              1515.6115
 Red. masses --      1.2590                 1.3824                 1.0422
 Frc consts  --      1.5435                 1.7001                 1.4105
 IR Inten    --     14.8266                25.5757                 5.3038

                     49                     50                     51
                      A                      A                      A
 Frequencies --   1516.9977              1522.1624              1530.9139
 Red. masses --      1.0513                 1.0438                 1.0506
 Frc consts  --      1.4254                 1.4249                 1.4508
 IR Inten    --      0.9742                 3.1352                 2.1101

                     52                     53                     54
                      A                      A                      A
 Frequencies --   1532.6359              1540.5488              1545.6959
 Red. masses --      1.0526                 1.0506                 1.0816
 Frc consts  --      1.4568                 1.4691                 1.5226
 IR Inten    --      0.1485                 9.3351                 3.0156

                     55                     56                     57
                      A                      A                      A
 Frequencies --   1616.0329              1708.8016              1784.5520
 Red. masses --      1.3098                 7.7896                 8.5616
 Frc consts  --      2.0154                13.4014                16.0644
 IR Inten    --    196.1124               117.3809               185.1052

                     58                     59                     60
                      A                      A                      A
 Frequencies --   3033.9709              3039.7179              3049.5948
 Red. masses --      1.0376                 1.0383                 1.0656
 Frc consts  --      5.6274                 5.6523                 5.8391
 IR Inten    --     25.0279                45.8749                35.3688

                     61                     62                     63
                      A                      A                      A
 Frequencies --   3063.4595              3093.5193              3096.7389
 Red. masses --      1.0368                 1.0949                 1.1008
 Frc consts  --      5.7326                 6.1732                 6.2199
 IR Inten    --     15.3133                39.2755                10.9064

                     64                     65                     66
                      A                      A                      A
 Frequencies --   3108.8262              3115.5133              3126.7263
 Red. masses --      1.0999                 1.1024                 1.0886
 Frc consts  --      6.2634                 6.3046                 6.2706
 IR Inten    --     20.7827                34.1318                25.1195

                     67                     68                     69
                      A                      A                      A
 Frequencies --   3131.4473              3144.2788              3149.8329
 Red. masses --      1.1018                 1.0995                 1.1024
 Frc consts  --      6.3655                 6.4048                 6.4441
 IR Inten    --     24.6475                19.0479                33.4889

                     70                     71                     72
                      A                      A                      A
 Frequencies --   3175.8492              3606.1046              3738.1436
 Red. masses --      1.0867                 1.0439                 1.1058
 Frc consts  --      6.4574                 7.9980                 9.1044
 IR Inten    --     19.0686                49.6360                57.0156

 - Thermochemistry -
 -------------------
 Temperature   298.150 Kelvin.  Pressure   1.00000 Atm.
 Atom     1 has atomic number  6 and mass  12.00000

 Molecular mass:   157.11028 amu.
 Principal axes and moments of inertia in atomic units:
                           1         2         3
     Eigenvalues --  1566.302802129.280303188.02173
           X            0.99996  -0.00768   0.00461
           Y            0.00766   0.99996   0.00398
           Z           -0.00464  -0.00394   0.99998
 This molecule is an asymmetric top.
 Rotational symmetry number  1.
 Warning -- assumption of classical behavior for rotation
           may cause significant error
 Rotational temperatures (Kelvin)      0.05530     0.04068     0.02717
 Rotational constants (GHZ):           1.15223     0.84758     0.56610
 Zero-point vibrational energy     596015.1 (Joules/Mol)
                                  142.45102 (Kcal/Mol)
 Warning -- explicit consideration of  20 degrees of freedom as
           vibrations may cause significant error
 Vibrational temperatures:     60.29    68.77   109.39   139.11   198.05
          (Kelvin)            270.34   280.68   347.34   357.41   361.69
                              392.34   433.71   504.07   550.21   590.98
                              613.42   674.76   708.31   778.48   873.38
                              904.54  1111.08  1136.74  1184.09  1256.51
                             1265.09  1305.25  1358.24  1406.72  1446.22
                             1515.87  1592.17  1610.22  1632.99  1670.88
                             1732.85  1757.34  1763.14  1904.85  1923.57
                             1954.75  1975.81  2041.19  2043.62  2063.17
                             2075.40  2078.65  2180.63  2182.62  2190.05
                             2202.64  2205.12  2216.51  2223.91  2325.11
                             2458.58  2567.57  4365.21  4373.48  4387.69
                             4407.63  4450.88  4455.52  4472.91  4482.53
                             4498.66  4505.45  4523.92  4531.91  4569.34
                             5188.38  5378.35

 Zero-point correction=                           0.227010 (Hartree/Particle)
 Thermal correction to Energy=                    0.240266
 Thermal correction to Enthalpy=                  0.241211
 Thermal correction to Gibbs Free Energy=         0.187156
 Sum of electronic and zero-point Energies=           -518.892340
 Sum of electronic and thermal Energies=              -518.879083
 Sum of electronic and thermal Enthalpies=            -518.878139
 Sum of electronic and thermal Free Energies=         -518.932193

                     E (Thermal)             CV                S
                      KCal/Mol        Cal/Mol-Kelvin    Cal/Mol-Kelvin
 Total                  150.769             48.073            113.767
 Electronic               0.000              0.000              0.000
 Translational            0.889              2.981             41.065
 Rotational               0.889              2.981             30.742
 Vibrational            148.992             42.112             41.960
 Vibration     1          0.595              1.980              5.167
 Vibration     2          0.595              1.978              4.907
 Vibration     3          0.599              1.965              3.991
 Vibration     4          0.603              1.952              3.520
 Vibration     5          0.614              1.916              2.836
 Vibration     6          0.633              1.856              2.249
 Vibration     7          0.636              1.847              2.179
 Vibration     8          0.658              1.777              1.792
 Vibration     9          0.662              1.765              1.742
 Vibration    10          0.663              1.760              1.721
 Vibration    11          0.676              1.724              1.579
 Vibration    12          0.693              1.671              1.409
 Vibration    13          0.727              1.575              1.165
 Vibration    14          0.752              1.508              1.030
 Vibration    15          0.775              1.447              0.924
 Vibration    16          0.788              1.413              0.871
 Vibration    17          0.826              1.319              0.740
 Vibration    18          0.848              1.267              0.678
 Vibration    19          0.896              1.159              0.563
 Vibration    20          0.966              1.017              0.438

                           ! Non-Optimized Parameters !
 Normal termination of Gaussian 16 at Tue Dec  8 21:51:27 2020.

 ----------------------------------------------------------------------
 # B3LYP/6-311++G(d,p) empiricaldispersion=gd3bj scf=xqc pop=npa geom=c
 heck
 ----------------------------------------------------------------------

 ---------------------------------------
 CID_154436076_JID_1941_Energie_neutraal
 ---------------------------------------
 Structure from the checkpoint file:  "JID_1941.chk"
 Charge =  0 Multiplicity = 1

 SCF Done:  E(RB3LYP) =  -519.278947167     A.U. after   15 cycles
 Normal termination of Gaussian 16 at Tue Dec  8 21:54:24 2020.

 ----------------------------------------------------------------------
 # B3LYP/6-311++G(d,p) empiricaldispersion=gd3bj scf=xqc pop=npa geom=c
 heck
 ----------------------------------------------------------------------

 -------------------------------------
 CID_154436076_JID_1941_Energie_kation
 -------------------------------------
 Structure from the checkpoint file:  "JID_1941.chk"
 Charge =  1 Multiplicity = 2

 SCF Done:  E(UB3LYP) =  -518.971376311     A.U. after   22 cycles
 Normal termination of Gaussian 16 at Tue Dec  8 21:59:38 2020.
 Gaussian 16:  ES64L-G16RevA.03 25-Dec-2016

 ----------------------------------------------------------------------
 # B3LYP/6-311++G(d,p) empiricaldispersion=gd3bj scf=xqc pop=npa geom=c
 heck
 ----------------------------------------------------------------------

 ------------------------------------
 CID_154436076_JID_1941_Energie_anion
 ------------------------------------
 Structure from the checkpoint file:  "JID_1941.chk"
 Charge = -1 Multiplicity = 2

                         Standard orientation:
 ---------------------------------------------------------------------
 Center     Atomic      Atomic             Coordinates (Angstroms)
 Number     Number       Type             X           Y           Z
 ---------------------------------------------------------------------
      1          6           0       -2.179378   -2.200793   -0.855193
      2          6           0       -2.202213   -1.436979    0.463694
      3          8           0       -1.834788   -0.066472    0.303932
      4          6           0       -0.502513    0.276789    0.191775
      5          6           0        0.531909   -0.577971    0.256738
      6          6           0        2.004811   -0.255814    0.173887
      7          6           0        2.800503   -1.235545    1.048648
      8          6           0        2.481526   -0.302996   -1.289034
      9          6           0       -0.356842    1.762515    0.003002
     10          8           0        0.709298    2.302611   -0.278658
     11          7           0       -1.509977    2.466151    0.181968
     12          1           0       -2.853144   -1.726989   -1.575871
     13          1           0       -2.511151   -3.233110   -0.696944
     14          1           0       -1.176966   -2.223518   -1.290627
     15          1           0       -3.218508   -1.402154    0.866429
     16          1           0       -1.560770   -1.907583    1.219571
     17          1           0        0.309507   -1.637098    0.363855
     18          1           0        2.164991    0.761951    0.534685
     19          1           0        2.671524   -2.269789    0.701965
     20          1           0        3.870932   -1.004338    1.012529
     21          1           0        2.478565   -1.189695    2.095362
     22          1           0        1.957201    0.454227   -1.877449
     23          1           0        3.558361   -0.103826   -1.349339
     24          1           0        2.295006   -1.288260   -1.735477
     25          1           0       -2.387750    1.987554    0.310323
     26          1           0       -1.490847    3.455226   -0.016073
 ---------------------------------------------------------------------

 SCF Done:  E(UB3LYP) =  -519.266576500     A.U. after   33 cycles
 SCF Done:  E(UB3LYP) =  -519.266576500     a.u. after    1 cycles

 The electronic state is 2-A.
 Alpha  occ. eigenvalues --  -19.03935 -18.96927 -14.21450 -10.15554 -10.11447
 Alpha  occ. eigenvalues --  -10.11368 -10.06553 -10.05840 -10.05053 -10.05032
 Alpha  occ. eigenvalues --  -10.04688  -0.95438  -0.91792  -0.78937  -0.70447
 Alpha  occ. eigenvalues --   -0.66430  -0.62269  -0.57803  -0.55237  -0.50510
 Alpha  occ. eigenvalues --   -0.47570  -0.44593  -0.41390  -0.40918  -0.36958
 Alpha  occ. eigenvalues --   -0.34802  -0.33933  -0.33179  -0.31328  -0.30598
 Alpha  occ. eigenvalues --   -0.29439  -0.28920  -0.28287  -0.28014  -0.26189
 Alpha  occ. eigenvalues --   -0.24440  -0.23719  -0.22572  -0.22003  -0.21681
 Alpha  occ. eigenvalues --   -0.16123  -0.14417  -0.11773   0.04778
 Alpha virt. eigenvalues --    0.07146   0.07437   0.07691   0.09171   0.09400
 Alpha virt. eigenvalues --    0.10282   0.10513   0.11092   0.12425   0.12483
 Alpha virt. eigenvalues --    0.12904   0.13604   0.13914   0.15048   0.15720

  Beta  occ. eigenvalues --  -19.03937 -18.96854 -14.21404 -10.15463 -10.11423
  Beta  occ. eigenvalues --  -10.11330 -10.06561 -10.05830 -10.04977 -10.04926
  Beta  occ. eigenvalues --  -10.04657  -0.95402  -0.91653  -0.78834  -0.70337
  Beta  occ. eigenvalues --   -0.66349  -0.62154  -0.57759  -0.55047  -0.50329
  Beta  occ. eigenvalues --   -0.47530  -0.44496  -0.41319  -0.40852  -0.36896
  Beta  occ. eigenvalues --   -0.34682  -0.33822  -0.33142  -0.31230  -0.30375
  Beta  occ. eigenvalues --   -0.29333  -0.28730  -0.28230  -0.27968  -0.26120
  Beta  occ. eigenvalues --   -0.24349  -0.23661  -0.22526  -0.21892  -0.21641
  Beta  occ. eigenvalues --   -0.15812  -0.14332  -0.11324
  Beta virt. eigenvalues --    0.07173   0.07799   0.08206   0.08601   0.09757
  Beta virt. eigenvalues --    0.10047   0.10498   0.11047   0.11248   0.12630
  Beta virt. eigenvalues --    0.13028   0.13225   0.13770   0.13950   0.15221

 Mulliken charges and spin densities:
               1          2
     1  C    1.483077  -1.836096
     2  C   -0.042052  -0.199390
     3  O   -0.117199   0.012924
     4  C   -1.436194   0.936423
     5  C    1.970560  -1.549346
     6  C    0.471273  -0.086668
     7  C   -0.495247  -0.139598
     8  C   -0.097245  -0.603939
     9  C   -0.757580   0.720587
    10  O   -0.365614   0.013329
    11  N   -0.385754  -0.021229
    12  H   -0.221108   0.371451
    13  H   -0.506759   0.640145
    14  H   -0.449844   0.584738
    15  H   -0.982061   1.179616
    16  H   -0.052695   0.177258
    17  H    0.417384  -0.241436
    18  H    0.226249  -0.002119
    19  H   -0.028807   0.159597
    20  H    0.099336   0.037480
    21  H    0.066693   0.055415
    22  H    0.115824   0.060426
    23  H    0.005526   0.102625
    24  H    0.015518   0.123882
    25  H    0.051134   0.230223
    26  H    0.015584   0.273701
 Sum of Mulliken charges =  -1.00000   1.00000

 Dipole moment (field-independent basis, Debye):
    X=              5.2683    Y=              2.5445    Z=              1.6642  Tot=              6.0827
 Quadrupole moment (field-independent basis, Debye-Ang):
   XX=           -125.3938   YY=           -117.8613   ZZ=            -92.2136
   XY=            -14.7928   XZ=              2.1498   YZ=             -1.1639

 Summary of Natural Population Analysis:

                                       Natural Population
                Natural  -----------------------------------------------
    Atom  No    Charge         Core      Valence    Rydberg      Total
 -----------------------------------------------------------------------
      C    1   -0.29997      0.99966     2.29511    0.00520     3.29997
      C    2   -0.00959      0.99958     1.99751    0.01250     3.00959
      O    3   -0.29391      0.99986     3.28218    0.01187     4.29391
      C    4    0.12131      0.99932     1.86621    0.01317     2.87869
      C    5   -0.09402      0.99949     2.08458    0.00995     3.09402
      C    6   -0.13574      0.99960     2.12577    0.01037     3.13574
      C    7   -0.27886      0.99966     2.27486    0.00434     3.27886
      C    8   -0.27645      0.99964     2.27224    0.00457     3.27645
      C    9    0.32646      0.99966     1.65069    0.02319     2.67354
      O   10   -0.32507      0.99988     3.31964    0.00555     4.32507
      N   11   -0.39961      0.99971     2.89230    0.00760     3.89961
      H   12    0.10188      0.00000     0.39646    0.00166     0.39812
      H   13    0.10403      0.00000     0.39296    0.00301     0.39597
      H   14    0.10200      0.00000     0.39659    0.00141     0.39800
      H   15    0.09358      0.00000     0.40371    0.00270     0.40642
      H   16    0.08211      0.00000     0.41637    0.00152     0.41789
      H   17    0.09483      0.00000     0.40376    0.00142     0.40517
      H   18    0.11266      0.00000     0.38536    0.00198     0.38734
      H   19    0.09433      0.00000     0.40467    0.00101     0.40567
      H   20    0.09427      0.00000     0.40495    0.00078     0.40573
      H   21    0.09719      0.00000     0.40197    0.00084     0.40281
      H   22    0.10829      0.00000     0.39076    0.00095     0.39171
      H   23    0.09142      0.00000     0.40766    0.00092     0.40858
      H   24    0.09329      0.00000     0.40558    0.00112     0.40671
      H   25    0.20392      0.00000     0.29346    0.00262     0.29608
      H   26    0.19165      0.00000     0.30642    0.00193     0.30835
 =======================================================================
   * Total *   -0.00000     10.99607    31.87174    0.13219    43.00000

 Normal termination of Gaussian 16 at Tue Dec  8 22:07:22 2020.
