 Gaussian 16, Revision A.03,

 -----------------------------------------------------------
 # opt freq B3LYP/6-31G(d) empiricaldispersion=gd3bj scf=xqc
 -----------------------------------------------------------

 ------------------------------
 CID_42954981_JID_5264_neutraal
 ------------------------------
 Symbolic Z-matrix:
 Charge =  0 Multiplicity = 1

 SCF Done:  E(RB3LYP) =  -743.166209887     A.U. after   15 cycles
 SCF Done:  E(RB3LYP) =  -743.177562041     A.U. after   12 cycles
 SCF Done:  E(RB3LYP) =  -743.179800913     A.U. after   13 cycles
 SCF Done:  E(RB3LYP) =  -743.180265371     A.U. after   13 cycles
 SCF Done:  E(RB3LYP) =  -743.181099758     A.U. after   13 cycles
 SCF Done:  E(RB3LYP) =  -743.181328600     A.U. after   13 cycles
 SCF Done:  E(RB3LYP) =  -743.182130427     A.U. after   12 cycles
 SCF Done:  E(RB3LYP) =  -743.182561777     A.U. after   12 cycles
 SCF Done:  E(RB3LYP) =  -743.182618410     A.U. after   12 cycles
 SCF Done:  E(RB3LYP) =  -743.182765152     A.U. after   11 cycles
 SCF Done:  E(RB3LYP) =  -743.182813541     A.U. after   10 cycles
 SCF Done:  E(RB3LYP) =  -743.182829286     A.U. after   10 cycles
 SCF Done:  E(RB3LYP) =  -743.182839677     A.U. after    9 cycles
 SCF Done:  E(RB3LYP) =  -743.182843759     A.U. after    9 cycles
 SCF Done:  E(RB3LYP) =  -743.182843887     A.U. after    7 cycles
 Optimization completed.
    -- Stationary point found.
 Normal termination of Gaussian 16 at Thu Dec 10 15:25:10 2020.

 --------------------------------------------------------------------
 #N Geom=AllCheck Guess=TCheck SCRF=Check GenChk RB3LYP/6-31G(d) Freq
 --------------------------------------------------------------------

 Structure from the checkpoint file:  "JID_5264.chk"
 ------------------------------
 CID_42954981_JID_5264_neutraal
 ------------------------------
 Charge =  0 Multiplicity = 1

 SCF Done:  E(RB3LYP) =  -743.182843887     A.U. after    1 cycles

  Exact polarizability: 117.409   2.628 133.922  -1.912   2.050 104.071
 Approx polarizability: 157.550   5.426 197.671  -2.319   3.777 164.902

                      1                      2                      3
                      A                      A                      A
 Frequencies --     35.9430                50.6243                61.4341
 Red. masses --      4.7218                 4.7226                 6.8222
 Frc consts  --      0.0036                 0.0071                 0.0152
 IR Inten    --      1.5955                 0.8554                 5.7533

                      4                      5                      6
                      A                      A                      A
 Frequencies --     83.2454               108.7512               118.4273
 Red. masses --      2.4925                 3.8809                 6.8286
 Frc consts  --      0.0102                 0.0270                 0.0564
 IR Inten    --      0.1762                 1.4010                 9.0654

                      7                      8                      9
                      A                      A                      A
 Frequencies --    131.7043               180.4091               196.2648
 Red. masses --      3.6504                 4.3223                 2.8771
 Frc consts  --      0.0373                 0.0829                 0.0653
 IR Inten    --      0.9072                 1.6803                 1.1332

                     10                     11                     12
                      A                      A                      A
 Frequencies --    217.2644               248.9662               309.6971
 Red. masses --      1.4092                 3.1387                 2.7507
 Frc consts  --      0.0392                 0.1146                 0.1554
 IR Inten    --      0.5016                 1.2268                 5.1066

                     13                     14                     15
                      A                      A                      A
 Frequencies --    326.3480               348.3737               394.9699
 Red. masses --      1.9815                 3.4536                 2.7374
 Frc consts  --      0.1243                 0.2470                 0.2516
 IR Inten    --      2.0045                 4.9588                 2.6127

                     16                     17                     18
                      A                      A                      A
 Frequencies --    411.9494               441.8004               452.4597
 Red. masses --      3.4250                 4.9631                 2.6888
 Frc consts  --      0.3425                 0.5708                 0.3243
 IR Inten    --      6.7872                 7.4630                 4.7821

                     19                     20                     21
                      A                      A                      A
 Frequencies --    467.9406               492.4514               553.9949
 Red. masses --      2.3121                 1.2188                 2.8302
 Frc consts  --      0.2983                 0.1741                 0.5118
 IR Inten    --     16.6696                37.7300                12.1927

                     22                     23                     24
                      A                      A                      A
 Frequencies --    562.8162               566.3756               582.2120
 Red. masses --      1.5757                 1.6389                 2.9132
 Frc consts  --      0.2941                 0.3097                 0.5818
 IR Inten    --     33.5514               101.6742                45.8577

                     25                     26                     27
                      A                      A                      A
 Frequencies --    606.9322               662.6041               749.8558
 Red. masses --      2.5432                 2.0065                 2.3137
 Frc consts  --      0.5520                 0.5190                 0.7665
 IR Inten    --      6.1274                41.5574               139.2783

                     28                     29                     30
                      A                      A                      A
 Frequencies --    767.3188               778.4827               817.3442
 Red. masses --      5.8753                 1.3100                 2.9292
 Frc consts  --      2.0381                 0.4677                 1.1530
 IR Inten    --     57.0924                 1.7179                 2.5563

                     31                     32                     33
                      A                      A                      A
 Frequencies --    840.8658               853.9615               898.3249
 Red. masses --      3.7741                 3.3300                 2.5599
 Frc consts  --      1.5722                 1.4308                 1.2171
 IR Inten    --     12.1422                 8.4541                 3.5592

                     34                     35                     36
                      A                      A                      A
 Frequencies --    926.0112               962.1487               988.5620
 Red. masses --      2.3498                 2.3242                 2.0612
 Frc consts  --      1.1872                 1.2677                 1.1868
 IR Inten    --      4.1623                 2.5090                21.7394

                     37                     38                     39
                      A                      A                      A
 Frequencies --   1001.8974              1009.1385              1029.2194
 Red. masses --      2.4538                 2.6629                 1.8048
 Frc consts  --      1.4512                 1.5978                 1.1264
 IR Inten    --      6.8067                11.3974                 5.5812

                     40                     41                     42
                      A                      A                      A
 Frequencies --   1088.7047              1111.9740              1125.5002
 Red. masses --      2.4588                 1.9308                 2.5564
 Frc consts  --      1.7171                 1.4066                 1.9080
 IR Inten    --     49.2301                 3.0706                13.4796

                     43                     44                     45
                      A                      A                      A
 Frequencies --   1133.4292              1136.6365              1168.8529
 Red. masses --      1.7516                 3.1856                 2.2829
 Frc consts  --      1.3258                 2.4248                 1.8376
 IR Inten    --     13.1979               115.4471                59.4629

                     46                     47                     48
                      A                      A                      A
 Frequencies --   1178.9451              1194.0315              1266.1969
 Red. masses --      1.8980                 2.2368                 1.3252
 Frc consts  --      1.5543                 1.8790                 1.2518
 IR Inten    --     13.6499                 6.7926                30.0795

                     49                     50                     51
                      A                      A                      A
 Frequencies --   1288.9671              1310.2078              1319.3277
 Red. masses --      1.5397                 1.7444                 1.2127
 Frc consts  --      1.5072                 1.7643                 1.2436
 IR Inten    --    114.6428                52.2840                23.8222

                     52                     53                     54
                      A                      A                      A
 Frequencies --   1348.0356              1381.5341              1388.6462
 Red. masses --      1.3313                 1.3831                 1.2980
 Frc consts  --      1.4254                 1.5553                 1.4747
 IR Inten    --      5.4580                45.6386                 7.4635

                     55                     56                     57
                      A                      A                      A
 Frequencies --   1398.6260              1401.8850              1407.7037
 Red. masses --      1.3400                 1.8902                 2.2550
 Frc consts  --      1.5444                 2.1887                 2.6328
 IR Inten    --     36.4874                39.7099               108.1949

                     58                     59                     60
                      A                      A                      A
 Frequencies --   1414.8607              1420.1070              1431.3536
 Red. masses --      1.4073                 1.4064                 1.3767
 Frc consts  --      1.6599                 1.6712                 1.6619
 IR Inten    --     24.5846                28.1354                12.1376

                     61                     62                     63
                      A                      A                      A
 Frequencies --   1442.0219              1443.6725              1446.5858
 Red. masses --      1.5259                 1.3889                 1.2998
 Frc consts  --      1.8694                 1.7055                 1.6025
 IR Inten    --     32.6332                 3.7721                14.5355

                     64                     65                     66
                      A                      A                      A
 Frequencies --   1490.2000              1494.2977              1508.0199
 Red. masses --      1.0961                 1.0887                 1.0989
 Frc consts  --      1.4342                 1.4323                 1.4724
 IR Inten    --      9.6772                 6.8790                 4.5712

                     67                     68                     69
                      A                      A                      A
 Frequencies --   1509.8605              1529.7071              1533.2555
 Red. masses --      1.0797                 1.0940                 1.0454
 Frc consts  --      1.4502                 1.5083                 1.4480
 IR Inten    --      4.4021                 3.5400                 3.8970

                     70                     71                     72
                      A                      A                      A
 Frequencies --   1541.1856              1649.5464              1783.6598
 Red. masses --      1.0579                 1.2075                 8.5419
 Frc consts  --      1.4805                 1.9359                16.0114
 IR Inten    --      5.5508               124.4775               240.5752

                     73                     74                     75
                      A                      A                      A
 Frequencies --   1827.2856              3017.6629              3020.6927
 Red. masses --      7.5065                 1.0713                 1.0779
 Frc consts  --     14.7672                 5.7479                 5.7950
 IR Inten    --    331.4765                47.9638                 2.3565

                     76                     77                     78
                      A                      A                      A
 Frequencies --   3035.7523              3041.9690              3052.7319
 Red. masses --      1.0633                 1.0655                 1.0622
 Frc consts  --      5.7736                 5.8089                 5.8324
 IR Inten    --     33.9868                48.2172                36.1208

                     79                     80                     81
                      A                      A                      A
 Frequencies --   3057.0382              3080.5030              3085.4326
 Red. masses --      1.0383                 1.0657                 1.1023
 Frc consts  --      5.7171                 5.9583                 6.1830
 IR Inten    --     39.5912                29.0985                 8.3423

                     82                     83                     84
                      A                      A                      A
 Frequencies --   3105.0538              3112.5832              3116.4866
 Red. masses --      1.1005                 1.0985                 1.0965
 Frc consts  --      6.2514                 6.2703                 6.2746
 IR Inten    --     54.2769                27.3694                36.5268

                     85                     86                     87
                      A                      A                      A
 Frequencies --   3117.4873              3136.6695              3154.8177
 Red. masses --      1.1011                 1.1021                 1.0991
 Frc consts  --      6.3050                 6.3885                 6.4453
 IR Inten    --     28.8180                25.2682                15.0028

                     88                     89                     90
                      A                      A                      A
 Frequencies --   3570.6142              3573.5401              3686.7832
 Red. masses --      1.0727                 1.0495                 1.1021
 Frc consts  --      8.0574                 7.8962                 8.8260
 IR Inten    --     51.5485                36.6996                34.6745

 - Thermochemistry -
 -------------------
 Temperature   298.150 Kelvin.  Pressure   1.00000 Atm.
 Atom     1 has atomic number  6 and mass  12.00000

 Molecular mass:   215.12699 amu.
 Principal axes and moments of inertia in atomic units:
                           1         2         3
     Eigenvalues --  2454.165203369.356394655.32217
           X            0.99918   0.03960  -0.00855
           Y           -0.03953   0.99918   0.00862
           Z            0.00889  -0.00827   0.99993
 This molecule is an asymmetric top.
 Rotational symmetry number  1.
 Warning -- assumption of classical behavior for rotation
           may cause significant error
 Rotational temperatures (Kelvin)      0.03529     0.02571     0.01861
 Rotational constants (GHZ):           0.73538     0.53563     0.38767
 Zero-point vibrational energy     725641.2 (Joules/Mol)
                                  173.43241 (Kcal/Mol)
 Warning -- explicit consideration of  25 degrees of freedom as
           vibrations may cause significant error
 Vibrational temperatures:     51.71    72.84    88.39   119.77   156.47
          (Kelvin)            170.39   189.49   259.57   282.38   312.60
                              358.21   445.59   469.54   501.23   568.27
                              592.70   635.65   650.99   673.26   708.53
                              797.08   809.77   814.89   837.67   873.24
                              953.34  1078.88  1104.00  1120.06  1175.98
                             1209.82  1228.66  1292.49  1332.32  1384.32
                             1422.32  1441.51  1451.93  1480.82  1566.40
                             1599.88  1619.34  1630.75  1635.37  1681.72
                             1696.24  1717.95  1821.77  1854.54  1885.10
                             1898.22  1939.52  1987.72  1997.95  2012.31
                             2017.00  2025.37  2035.67  2043.22  2059.40
                             2074.75  2077.12  2081.31  2144.07  2149.96
                             2169.70  2172.35  2200.91  2206.01  2217.42
                             2373.33  2566.29  2629.06  4341.74  4346.10
                             4367.77  4376.71  4392.20  4398.40  4432.16
                             4439.25  4467.48  4478.31  4483.93  4485.37
                             4512.97  4539.08  5137.32  5141.53  5304.46

 Zero-point correction=                           0.276382 (Hartree/Particle)
 Thermal correction to Energy=                    0.291653
 Thermal correction to Enthalpy=                  0.292597
 Thermal correction to Gibbs Free Energy=         0.233459
 Sum of electronic and zero-point Energies=           -742.906462
 Sum of electronic and thermal Energies=              -742.891191
 Sum of electronic and thermal Enthalpies=            -742.890247
 Sum of electronic and thermal Free Energies=         -742.949385

                     E (Thermal)             CV                S
                      KCal/Mol        Cal/Mol-Kelvin    Cal/Mol-Kelvin
 Total                  183.015             57.555            124.467
 Electronic               0.000              0.000              0.000
 Translational            0.889              2.981             42.001
 Rotational               0.889              2.981             32.021
 Vibrational            181.238             51.594             50.445
 Vibration     1          0.594              1.982              5.471
 Vibration     2          0.595              1.977              4.793
 Vibration     3          0.597              1.973              4.411
 Vibration     4          0.600              1.961              3.813
 Vibration     5          0.606              1.942              3.291
 Vibration     6          0.609              1.934              3.126
 Vibration     7          0.612              1.922              2.921
 Vibration     8          0.629              1.866              2.324
 Vibration     9          0.636              1.845              2.168
 Vibration    10          0.646              1.815              1.982
 Vibration    11          0.662              1.764              1.738
 Vibration    12          0.699              1.655              1.364
 Vibration    13          0.710              1.623              1.278
 Vibration    14          0.726              1.579              1.174
 Vibration    15          0.762              1.481              0.981
 Vibration    16          0.776              1.444              0.920
 Vibration    17          0.802              1.379              0.821
 Vibration    18          0.811              1.355              0.788
 Vibration    19          0.825              1.321              0.743
 Vibration    20          0.848              1.267              0.677
 Vibration    21          0.909              1.131              0.536
 Vibration    22          0.919              1.112              0.518
 Vibration    23          0.922              1.104              0.511
 Vibration    24          0.939              1.070              0.481
 Vibration    25          0.966              1.017              0.438

 Optimization completed.
    -- Stationary point found.
 Normal termination of Gaussian 16 at Thu Dec 10 15:37:06 2020.

 ----------------------------------------------------------------------
 # B3LYP/6-311++G(d,p) empiricaldispersion=gd3bj scf=xqc pop=npa geom=c
 heck
 ----------------------------------------------------------------------

 --------------------------------------
 CID_42954981_JID_5264_Energie_neutraal
 --------------------------------------
 Structure from the checkpoint file:  "JID_5264.chk"
 Charge =  0 Multiplicity = 1

 SCF Done:  E(RB3LYP) =  -743.408800027     A.U. after   14 cycles
 Normal termination of Gaussian 16 at Thu Dec 10 15:44:03 2020.

 ----------------------------------------------------------------------
 # B3LYP/6-311++G(d,p) empiricaldispersion=gd3bj scf=xqc pop=npa geom=c
 heck
 ----------------------------------------------------------------------

 ------------------------------------
 CID_42954981_JID_5264_Energie_kation
 ------------------------------------
 Structure from the checkpoint file:  "JID_5264.chk"
 Charge =  1 Multiplicity = 2

 SCF Done:  E(UB3LYP) =  -743.130274968     A.U. after   20 cycles
 Normal termination of Gaussian 16 at Thu Dec 10 15:56:50 2020.
 Gaussian 16:  ES64L-G16RevA.03 25-Dec-2016

 ----------------------------------------------------------------------
 # B3LYP/6-311++G(d,p) empiricaldispersion=gd3bj scf=xqc pop=npa geom=c
 heck
 ----------------------------------------------------------------------

 -----------------------------------
 CID_42954981_JID_5264_Energie_anion
 -----------------------------------
 Structure from the checkpoint file:  "JID_5264.chk"
 Charge = -1 Multiplicity = 2

                         Standard orientation:
 ---------------------------------------------------------------------
 Center     Atomic      Atomic             Coordinates (Angstroms)
 Number     Number       Type             X           Y           Z
 ---------------------------------------------------------------------
      1          6           0        3.465329    1.689619    0.375751
      2          6           0        2.174571    1.681771   -0.449487
      3          6           0        1.345604    0.404921   -0.332371
      4          6           0        0.880992    0.082343    1.096070
      5          7           0        0.176891   -1.196563    1.205074
      6          6           0        0.889380   -2.279631    0.526732
      7          6           0        1.382147   -1.891037   -0.870191
      8          8           0        2.134880   -0.683611   -0.821517
      9          6           0       -1.273594   -1.191803    1.148461
     10          6           0       -1.852906   -1.023128   -0.264189
     11          8           0       -1.964715   -1.980926   -1.012400
     12          7           0       -2.131196    0.253888   -0.770679
     13          6           0       -1.993932    1.552375   -0.234696
     14          8           0       -1.546555    2.463890   -0.907057
     15          7           0       -2.404139    1.699534    1.071021
     16          1           0        3.266706    1.702426    1.453153
     17          1           0        4.064890    2.576428    0.143644
     18          1           0        4.066228    0.802737    0.153345
     19          1           0        1.530788    2.527580   -0.175791
     20          1           0        2.421378    1.808644   -1.510188
     21          1           0        0.463416    0.513321   -0.980970
     22          1           0        1.770289    0.021699    1.737203
     23          1           0        0.240933    0.879200    1.487198
     24          1           0        1.765708   -2.537739    1.139423
     25          1           0        0.239105   -3.157570    0.469859
     26          1           0        2.053882   -2.658346   -1.268288
     27          1           0        0.533258   -1.779565   -1.559716
     28          1           0       -1.636366   -2.165971    1.491279
     29          1           0       -1.629111   -0.424772    1.837009
     30          1           0       -2.145835    0.264691   -1.785931
     31          1           0       -3.162371    1.118829    1.403143
     32          1           0       -2.428211    2.663008    1.379028
 ---------------------------------------------------------------------

 SCF Done:  E(UB3LYP) =  -743.405505505     A.U. after   31 cycles

 The electronic state is 2-A.
 Alpha  occ. eigenvalues --  -19.02474 -18.98785 -18.98249 -14.23882 -14.21471
 Alpha  occ. eigenvalues --  -14.20931 -10.19025 -10.16589 -10.11587 -10.11515
 Alpha  occ. eigenvalues --  -10.09905 -10.09887 -10.09320 -10.07117 -10.06805
 Alpha  occ. eigenvalues --   -0.95283  -0.94146  -0.93462  -0.82602  -0.81676
 Alpha  occ. eigenvalues --   -0.78147  -0.70310  -0.65034  -0.63742  -0.57093
 Alpha  occ. eigenvalues --   -0.56277  -0.53576  -0.50882  -0.47866  -0.46224
 Alpha  occ. eigenvalues --   -0.43361  -0.40768  -0.39077  -0.38458  -0.38429
 Alpha  occ. eigenvalues --   -0.36628  -0.36170  -0.35864  -0.33304  -0.32934
 Alpha  occ. eigenvalues --   -0.32526  -0.31705  -0.31342  -0.29843  -0.29252
 Alpha  occ. eigenvalues --   -0.27811  -0.27696  -0.26507  -0.25638  -0.24639
 Alpha  occ. eigenvalues --   -0.23515  -0.21739  -0.19105  -0.18134  -0.17165
 Alpha  occ. eigenvalues --   -0.16606  -0.15158  -0.10231   0.04586
 Alpha virt. eigenvalues --    0.06859   0.07530   0.07807   0.08783   0.09443
 Alpha virt. eigenvalues --    0.10240   0.10412   0.10856   0.11020   0.11993
 Alpha virt. eigenvalues --    0.12712   0.12931   0.13441   0.13919   0.14366

  Beta  occ. eigenvalues --  -19.02471 -18.98656 -18.98172 -14.23890 -14.21351
  Beta  occ. eigenvalues --  -14.20896 -10.18906 -10.16454 -10.11586 -10.11511
  Beta  occ. eigenvalues --  -10.09902 -10.09877 -10.09315 -10.07115 -10.06798
  Beta  occ. eigenvalues --   -0.95101  -0.94136  -0.93247  -0.82530  -0.81559
  Beta  occ. eigenvalues --   -0.78003  -0.70304  -0.64997  -0.63685  -0.57052
  Beta  occ. eigenvalues --   -0.56218  -0.53347  -0.50804  -0.47700  -0.46166
  Beta  occ. eigenvalues --   -0.43184  -0.40686  -0.39054  -0.38399  -0.38327
  Beta  occ. eigenvalues --   -0.36602  -0.36098  -0.35750  -0.33264  -0.32669
  Beta  occ. eigenvalues --   -0.32383  -0.31554  -0.31239  -0.29615  -0.29224
  Beta  occ. eigenvalues --   -0.27766  -0.27659  -0.26212  -0.25599  -0.24626
  Beta  occ. eigenvalues --   -0.23498  -0.21695  -0.18916  -0.18038  -0.16942
  Beta  occ. eigenvalues --   -0.16441  -0.15053  -0.10176
  Beta virt. eigenvalues --    0.06716   0.07734   0.08253   0.08589   0.09015
  Beta virt. eigenvalues --    0.09917   0.10520   0.10711   0.10809   0.11286
  Beta virt. eigenvalues --    0.12407   0.12819   0.13321   0.13770   0.14134

 Mulliken charges and spin densities:
               1          2
     1  C   -0.381774  -0.221743
     2  C   -0.399311  -0.033296
     3  C   -0.025513   0.045189
     4  C   -0.775495   0.035003
     5  N    0.209689   0.019950
     6  C   -0.162675  -0.024962
     7  C   -0.142498  -0.031712
     8  O   -0.061699   0.004387
     9  C    0.170122  -0.473694
    10  C   -0.315708   0.405243
    11  O   -0.305139   0.040897
    12  N   -0.282368   0.119167
    13  C    1.572032  -1.682871
    14  O   -0.355700   0.071668
    15  N   -0.478500   0.125849
    16  H    0.039938   0.090111
    17  H    0.062763   0.072739
    18  H    0.147351   0.015532
    19  H    0.076202   0.097706
    20  H    0.113399   0.037452
    21  H    0.347246  -0.066303
    22  H    0.119905   0.075906
    23  H    0.069995   0.109838
    24  H    0.088929   0.037301
    25  H    0.165032  -0.016163
    26  H    0.133275   0.046421
    27  H    0.107818   0.048221
    28  H    0.009438   0.187693
    29  H    0.170348  -0.006509
    30  H    0.201234   0.132987
    31  H   -0.828898   1.140065
    32  H   -0.289438   0.597928
 Sum of Mulliken charges =  -1.00000   1.00000

 Dipole moment (field-independent basis, Debye):
    X=              8.6789    Y=             -4.1429    Z=             -1.8215  Tot=              9.7880
 Quadrupole moment (field-independent basis, Debye-Ang):
   XX=           -154.6294   YY=           -131.4640   ZZ=           -121.1922
   XY=              9.8363   XZ=             12.1549   YZ=             -6.5557

 Summary of Natural Population Analysis:

                                       Natural Population
                Natural  -----------------------------------------------
    Atom  No    Charge         Core      Valence    Rydberg      Total
 -----------------------------------------------------------------------
      C    1   -0.28940      0.99967     2.28516    0.00458     3.28940
      C    2   -0.19656      0.99961     2.18892    0.00803     3.19656
      C    3    0.05329      0.99954     1.93474    0.01243     2.94671
      C    4   -0.10115      0.99958     2.08971    0.01186     3.10115
      N    5   -0.27195      0.99974     2.76004    0.01217     3.77195
      C    6   -0.09728      0.99962     2.08789    0.00977     3.09728
      C    7   -0.02100      0.99958     2.01004    0.01138     3.02100
      O    8   -0.30959      0.99988     3.30075    0.00896     4.30959
      C    9   -0.12509      0.99956     2.11284    0.01269     3.12509
      C   10    0.35837      0.99968     1.61749    0.02446     2.64163
      O   11   -0.30704      0.99988     3.30092    0.00624     4.30704
      N   12   -0.34632      0.99965     2.83620    0.01048     3.84632
      C   13    0.41360      0.99972     1.56260    0.02408     2.58640
      O   14   -0.31845      0.99987     3.31289    0.00569     4.31845
      N   15   -0.41427      0.99971     2.90452    0.01004     3.91427
      H   16    0.09490      0.00000     0.40410    0.00101     0.40510
      H   17    0.09509      0.00000     0.40399    0.00092     0.40491
      H   18    0.10190      0.00000     0.39685    0.00125     0.39810
      H   19    0.10541      0.00000     0.39350    0.00109     0.39459
      H   20    0.09865      0.00000     0.40013    0.00122     0.40135
      H   21    0.09003      0.00000     0.40763    0.00235     0.40997
      H   22    0.09228      0.00000     0.40644    0.00128     0.40772
      H   23    0.10764      0.00000     0.39092    0.00144     0.39236
      H   24    0.08833      0.00000     0.41028    0.00140     0.41167
      H   25    0.10306      0.00000     0.39587    0.00108     0.39694
      H   26    0.08570      0.00000     0.41312    0.00118     0.41430
      H   27    0.08858      0.00000     0.41001    0.00141     0.41142
      H   28    0.10253      0.00000     0.39634    0.00113     0.39747
      H   29    0.10955      0.00000     0.38859    0.00186     0.39045
      H   30    0.20226      0.00000     0.29523    0.00251     0.29774
      H   31    0.20582      0.00000     0.26090    0.03328     0.29418
      H   32    0.20113      0.00000     0.29127    0.00760     0.29887
 =======================================================================
   * Total *    0.00000     14.99530    42.76987    0.23483    58.00000

 Normal termination of Gaussian 16 at Thu Dec 10 16:15:03 2020.
