 Gaussian 16, Revision A.03,

 -----------------------------------------------------------
 # opt freq B3LYP/6-31G(d) empiricaldispersion=gd3bj scf=xqc
 -----------------------------------------------------------

 -------------------------------
 CID_115073715_JID_3944_neutraal
 -------------------------------
 Symbolic Z-matrix:
 Charge =  0 Multiplicity = 1

 SCF Done:  E(RB3LYP) =  -581.702068710     A.U. after   12 cycles
 SCF Done:  E(RB3LYP) =  -581.705943702     A.U. after   10 cycles
 SCF Done:  E(RB3LYP) =  -581.706044314     A.U. after   10 cycles
 SCF Done:  E(RB3LYP) =  -581.706365768     A.U. after   10 cycles
 SCF Done:  E(RB3LYP) =  -581.706435109     A.U. after   10 cycles
 SCF Done:  E(RB3LYP) =  -581.706458461     A.U. after    9 cycles
 SCF Done:  E(RB3LYP) =  -581.706480365     A.U. after    9 cycles
 SCF Done:  E(RB3LYP) =  -581.706502144     A.U. after    9 cycles
 SCF Done:  E(RB3LYP) =  -581.706514873     A.U. after    9 cycles
 SCF Done:  E(RB3LYP) =  -581.706549667     A.U. after    9 cycles
 SCF Done:  E(RB3LYP) =  -581.706743740     A.U. after    9 cycles
 SCF Done:  E(RB3LYP) =  -581.706743052     A.U. after    8 cycles
 SCF Done:  E(RB3LYP) =  -581.706744397     A.U. after    8 cycles
 SCF Done:  E(RB3LYP) =  -581.706744560     A.U. after    7 cycles
 SCF Done:  E(RB3LYP) =  -581.706744606     A.U. after    6 cycles
 SCF Done:  E(RB3LYP) =  -581.706744631     A.U. after    6 cycles
 Optimization completed.
    -- Stationary point found.
 Normal termination of Gaussian 16 at Mon Dec 14 16:41:34 2020.

 --------------------------------------------------------------------
 #N Geom=AllCheck Guess=TCheck SCRF=Check GenChk RB3LYP/6-31G(d) Freq
 --------------------------------------------------------------------

 Structure from the checkpoint file:  "JID_3944.chk"
 -------------------------------
 CID_115073715_JID_3944_neutraal
 -------------------------------
 Charge =  0 Multiplicity = 1

 SCF Done:  E(RB3LYP) =  -581.706744631     A.U. after    1 cycles

  Exact polarizability: 137.505  -0.472 106.810   1.941   1.257 104.739
 Approx polarizability: 164.765   1.399 154.456   3.136  -3.797 162.022

                      1                      2                      3
                      A                      A                      A
 Frequencies --     30.9569                68.1448                89.4120
 Red. masses --      3.1772                 3.1275                 2.5488
 Frc consts  --      0.0018                 0.0086                 0.0120
 IR Inten    --      0.2305                 0.0614                 0.3851

                      4                      5                      6
                      A                      A                      A
 Frequencies --    129.9531               166.8466               203.5838
 Red. masses --      3.0401                 3.2047                 2.7532
 Frc consts  --      0.0302                 0.0526                 0.0672
 IR Inten    --      0.1592                 1.7174                 0.4621

                      7                      8                      9
                      A                      A                      A
 Frequencies --    246.6986               270.9844               290.5317
 Red. masses --      2.6469                 2.1847                 1.0653
 Frc consts  --      0.0949                 0.0945                 0.0530
 IR Inten    --      1.3299                 1.9058                83.2238

                     10                     11                     12
                      A                      A                      A
 Frequencies --    334.7479               357.2259               380.6723
 Red. masses --      2.4425                 2.7585                 2.3298
 Frc consts  --      0.1613                 0.2074                 0.1989
 IR Inten    --     10.0815                 3.0854                 3.4943

                     13                     14                     15
                      A                      A                      A
 Frequencies --    418.8254               443.4331               457.4979
 Red. masses --      2.3366                 2.5658                 3.1696
 Frc consts  --      0.2415                 0.2973                 0.3909
 IR Inten    --      5.0516                 9.2407                 1.5465

                     16                     17                     18
                      A                      A                      A
 Frequencies --    472.6227               522.0344               578.1830
 Red. masses --      2.8629                 2.2594                 1.8659
 Frc consts  --      0.3768                 0.3628                 0.3675
 IR Inten    --      1.3589                 2.8122                 1.0895

                     19                     20                     21
                      A                      A                      A
 Frequencies --    632.9776               671.3419               774.7194
 Red. masses --      2.0558                 2.8392                 2.6157
 Frc consts  --      0.4853                 0.7539                 0.9250
 IR Inten    --      2.4888                11.5284                 6.2525

                     22                     23                     24
                      A                      A                      A
 Frequencies --    795.5895               823.3918               836.9708
 Red. masses --      2.8985                 1.8050                 1.6270
 Frc consts  --      1.0810                 0.7210                 0.6715
 IR Inten    --      0.5700                 0.8755                 0.8919

                     25                     26                     27
                      A                      A                      A
 Frequencies --    854.4537               863.9833               886.5969
 Red. masses --      2.4437                 2.1340                 2.5992
 Frc consts  --      1.0512                 0.9385                 1.2037
 IR Inten    --      7.6506                 2.7396                19.4217

                     28                     29                     30
                      A                      A                      A
 Frequencies --    899.5231               909.4499               919.1355
 Red. masses --      2.0089                 1.6481                 2.5683
 Frc consts  --      0.9577                 0.8032                 1.2784
 IR Inten    --      4.2424                 1.6546                 0.6673

                     31                     32                     33
                      A                      A                      A
 Frequencies --    946.1466               975.1765               985.4059
 Red. masses --      1.6656                 1.9042                 2.4431
 Frc consts  --      0.8785                 1.0669                 1.3978
 IR Inten    --      3.6410                 5.1125                10.5298

                     34                     35                     36
                      A                      A                      A
 Frequencies --   1027.8073              1034.3374              1039.6877
 Red. masses --      1.9294                 1.7462                 1.7571
 Frc consts  --      1.2009                 1.1007                 1.1190
 IR Inten    --     14.5450                14.6619                 2.9180

                     37                     38                     39
                      A                      A                      A
 Frequencies --   1057.5308              1069.0089              1076.0765
 Red. masses --      1.8097                 1.6391                 1.6640
 Frc consts  --      1.1925                 1.1036                 1.1352
 IR Inten    --      7.4993                20.3395                 0.8970

                     40                     41                     42
                      A                      A                      A
 Frequencies --   1084.5022              1107.5261              1142.6574
 Red. masses --      2.0998                 2.5446                 1.9674
 Frc consts  --      1.4551                 1.8390                 1.5135
 IR Inten    --     47.4606                47.9598                 9.7000

                     43                     44                     45
                      A                      A                      A
 Frequencies --   1167.9928              1199.0943              1207.7098
 Red. masses --      2.6750                 1.3908                 1.8307
 Frc consts  --      2.1500                 1.1782                 1.5733
 IR Inten    --     20.7942                19.9323                35.9271

                     46                     47                     48
                      A                      A                      A
 Frequencies --   1226.7306              1239.2007              1255.5434
 Red. masses --      1.4302                 1.6540                 1.3402
 Frc consts  --      1.2681                 1.4965                 1.2448
 IR Inten    --     11.5118                45.4648                 9.5163

                     49                     50                     51
                      A                      A                      A
 Frequencies --   1265.4370              1300.1159              1305.5464
 Red. masses --      1.3431                 1.3085                 1.2921
 Frc consts  --      1.2672                 1.3032                 1.2976
 IR Inten    --      2.0284                 7.3251                 7.3113

                     52                     53                     54
                      A                      A                      A
 Frequencies --   1323.1496              1325.4039              1328.9926
 Red. masses --      1.1740                 1.3331                 1.3711
 Frc consts  --      1.2110                 1.3798                 1.4268
 IR Inten    --      3.9482                21.5098                 2.0933

                     55                     56                     57
                      A                      A                      A
 Frequencies --   1344.5776              1359.3935              1365.6358
 Red. masses --      1.3161                 1.3782                 1.3898
 Frc consts  --      1.4018                 1.5006                 1.5271
 IR Inten    --      0.1933                 0.0220                 1.3083

                     58                     59                     60
                      A                      A                      A
 Frequencies --   1372.3227              1395.1512              1399.5730
 Red. masses --      1.3331                 1.4286                 1.5265
 Frc consts  --      1.4792                 1.6383                 1.7617
 IR Inten    --      0.0777                 1.1103                 0.9944

                     61                     62                     63
                      A                      A                      A
 Frequencies --   1407.8737              1418.6982              1426.6008
 Red. masses --      1.3958                 1.5999                 1.4739
 Frc consts  --      1.6300                 1.8972                 1.7674
 IR Inten    --     10.3183                15.4819                26.0857

                     64                     65                     66
                      A                      A                      A
 Frequencies --   1435.6076              1505.3608              1507.8036
 Red. masses --      1.3898                 1.0927                 1.0949
 Frc consts  --      1.6876                 1.4589                 1.4666
 IR Inten    --     10.8274                 0.5493                 2.6942

                     67                     68                     69
                      A                      A                      A
 Frequencies --   1512.1540              1513.4125              1523.5954
 Red. masses --      1.0846                 1.0874                 1.0808
 Frc consts  --      1.4612                 1.4674                 1.4782
 IR Inten    --      3.7305                 4.9605                 3.5506

                     70                     71                     72
                      A                      A                      A
 Frequencies --   1529.8409              1531.2003              1540.6597
 Red. masses --      1.0868                 1.0963                 1.0926
 Frc consts  --      1.4987                 1.5144                 1.5280
 IR Inten    --      8.7084                 3.1689                 2.6145

                     73                     74                     75
                      A                      A                      A
 Frequencies --   1545.3532              2991.1581              3020.7954
 Red. masses --      1.1043                 1.0717                 1.0731
 Frc consts  --      1.5538                 5.6493                 5.7692
 IR Inten    --      1.5067                46.6715                29.8058

                     76                     77                     78
                      A                      A                      A
 Frequencies --   3030.5250              3039.7534              3044.0556
 Red. masses --      1.0664                 1.0606                 1.0657
 Frc consts  --      5.7702                 5.7742                 5.8184
 IR Inten    --     22.8400                26.9793                18.2787

                     79                     80                     81
                      A                      A                      A
 Frequencies --   3050.4774              3054.8346              3057.6224
 Red. masses --      1.0698                 1.0644                 1.0614
 Frc consts  --      5.8650                 5.8521                 5.8466
 IR Inten    --     25.3872                33.6952                25.6101

                     82                     83                     84
                      A                      A                      A
 Frequencies --   3072.9683              3076.4817              3085.3675
 Red. masses --      1.0643                 1.0962                 1.1027
 Frc consts  --      5.9214                 6.1129                 6.1847
 IR Inten    --     29.9903                52.5405                68.7034

                     85                     86                     87
                      A                      A                      A
 Frequencies --   3094.3882              3099.1133              3100.4672
 Red. masses --      1.0989                 1.0946                 1.0960
 Frc consts  --      6.1997                 6.1941                 6.2074
 IR Inten    --     12.7202                43.3586                39.5640

                     88                     89                     90
                      A                      A                      A
 Frequencies --   3105.8951              3115.7409              3120.7771
 Red. masses --      1.0950                 1.0984                 1.1020
 Frc consts  --      6.2234                 6.2825                 6.3238
 IR Inten    --     36.4719                18.4351                32.2437

                     91                     92                     93
                      A                      A                      A
 Frequencies --   3122.5930              3125.6411              3742.4111
 Red. masses --      1.0935                 1.0907                 1.0660
 Frc consts  --      6.2821                 6.2780                 8.7961
 IR Inten    --     24.6064                55.0791                 4.9912

 - Thermochemistry -
 -------------------
 Temperature   298.150 Kelvin.  Pressure   1.00000 Atm.
 Atom     1 has atomic number  6 and mass  12.00000

 Molecular mass:   184.14633 amu.
 Principal axes and moments of inertia in atomic units:
                           1         2         3
     Eigenvalues --  1094.324434074.810374368.29833
           X            0.99998  -0.00645  -0.00062
           Y            0.00647   0.99896   0.04509
           Z            0.00033  -0.04509   0.99898
 This molecule is an asymmetric top.
 Rotational symmetry number  1.
 Warning -- assumption of classical behavior for rotation
           may cause significant error
 Rotational temperatures (Kelvin)      0.07915     0.02126     0.01983
 Rotational constants (GHZ):           1.64918     0.44290     0.41315
 Zero-point vibrational energy     794363.2 (Joules/Mol)
                                  189.85735 (Kcal/Mol)
 Warning -- explicit consideration of  18 degrees of freedom as
           vibrations may cause significant error
 Vibrational temperatures:     44.54    98.05   128.64   186.97   240.05
          (Kelvin)            292.91   354.94   389.89   418.01   481.63
                              513.97   547.70   602.60   638.00   658.24
                              680.00   751.09   831.88   910.71   965.91
                             1114.65  1144.68  1184.68  1204.21  1229.37
                             1243.08  1275.62  1294.21  1308.50  1322.43
                             1361.29  1403.06  1417.78  1478.79  1488.18
                             1495.88  1521.55  1538.07  1548.23  1560.36
                             1593.48  1644.03  1680.48  1725.23  1737.62
                             1764.99  1782.93  1806.45  1820.68  1870.58
                             1878.39  1903.72  1906.96  1912.12  1934.55
                             1955.86  1964.85  1974.47  2007.31  2013.67
                             2025.62  2041.19  2052.56  2065.52  2165.88
                             2169.39  2175.65  2177.46  2192.11  2201.10
                             2203.06  2216.67  2223.42  4303.61  4346.25
                             4360.25  4373.53  4379.72  4388.96  4395.23
                             4399.24  4421.32  4426.37  4439.16  4452.13
                             4458.93  4460.88  4468.69  4482.86  4490.10
                             4492.71  4497.10  5384.49

 Zero-point correction=                           0.302557 (Hartree/Particle)
 Thermal correction to Energy=                    0.315120
 Thermal correction to Enthalpy=                  0.316065
 Thermal correction to Gibbs Free Energy=         0.263498
 Sum of electronic and zero-point Energies=           -581.404188
 Sum of electronic and thermal Energies=              -581.391624
 Sum of electronic and thermal Enthalpies=            -581.390680
 Sum of electronic and thermal Free Energies=         -581.443247

                     E (Thermal)             CV                S
                      KCal/Mol        Cal/Mol-Kelvin    Cal/Mol-Kelvin
 Total                  197.741             50.374            110.636
 Electronic               0.000              0.000              0.000
 Translational            0.889              2.981             41.538
 Rotational               0.889              2.981             31.344
 Vibrational            195.964             44.413             37.754
 Vibration     1          0.594              1.984              5.767
 Vibration     2          0.598              1.969              4.206
 Vibration     3          0.602              1.957              3.673
 Vibration     4          0.612              1.923              2.947
 Vibration     5          0.624              1.883              2.471
 Vibration     6          0.639              1.835              2.100
 Vibration     7          0.661              1.768              1.754
 Vibration     8          0.675              1.727              1.590
 Vibration     9          0.686              1.691              1.471
 Vibration    10          0.716              1.606              1.237
 Vibration    11          0.732              1.560              1.134
 Vibration    12          0.750              1.511              1.036
 Vibration    13          0.782              1.429              0.896
 Vibration    14          0.803              1.375              0.816
 Vibration    15          0.816              1.344              0.773
 Vibration    16          0.829              1.311              0.730
 Vibration    17          0.877              1.201              0.605
 Vibration    18          0.935              1.078              0.489

 Optimization completed.
    -- Stationary point found.
 Normal termination of Gaussian 16 at Mon Dec 14 16:51:00 2020.

 ----------------------------------------------------------------------
 # B3LYP/6-311++G(d,p) empiricaldispersion=gd3bj scf=xqc pop=npa geom=c
 heck
 ----------------------------------------------------------------------

 ---------------------------------------
 CID_115073715_JID_3944_Energie_neutraal
 ---------------------------------------
 Structure from the checkpoint file:  "JID_3944.chk"
 Charge =  0 Multiplicity = 1

 SCF Done:  E(RB3LYP) =  -581.878086175     A.U. after   14 cycles
 Normal termination of Gaussian 16 at Mon Dec 14 16:55:25 2020.

 ----------------------------------------------------------------------
 # B3LYP/6-311++G(d,p) empiricaldispersion=gd3bj scf=xqc pop=npa geom=c
 heck
 ----------------------------------------------------------------------

 -------------------------------------
 CID_115073715_JID_3944_Energie_kation
 -------------------------------------
 Structure from the checkpoint file:  "JID_3944.chk"
 Charge =  1 Multiplicity = 2

 SCF Done:  E(UB3LYP) =  -581.559513911     A.U. after   24 cycles
 Normal termination of Gaussian 16 at Mon Dec 14 17:05:58 2020.
 Gaussian 16:  ES64L-G16RevA.03 25-Dec-2016

 ----------------------------------------------------------------------
 # B3LYP/6-311++G(d,p) empiricaldispersion=gd3bj scf=xqc pop=npa geom=c
 heck
 ----------------------------------------------------------------------

 ------------------------------------
 CID_115073715_JID_3944_Energie_anion
 ------------------------------------
 Structure from the checkpoint file:  "JID_3944.chk"
 Charge = -1 Multiplicity = 2

                         Standard orientation:
 ---------------------------------------------------------------------
 Center     Atomic      Atomic             Coordinates (Angstroms)
 Number     Number       Type             X           Y           Z
 ---------------------------------------------------------------------
      1          6           0       -2.227218    1.547451    0.067940
      2          6           0       -3.433859    0.787608   -0.497879
      3          6           0       -3.007028   -0.605227   -0.963193
      4          8           0       -2.357525   -1.340435    0.066500
      5          6           0       -1.185798   -0.707292    0.608338
      6          6           0       -1.541577    0.688776    1.137974
      7          6           0       -0.032412   -0.773729   -0.408933
      8          6           0        1.358228   -0.400773    0.116786
      9          6           0        1.641112    1.131936    0.253602
     10          6           0        3.035776    1.390976   -0.373671
     11          6           0        3.676698   -0.002335   -0.506925
     12          6           0        2.472126   -0.890257   -0.837694
     13          8           0        1.487432   -1.053379    1.392048
     14          1           0       -1.523927    1.776174   -0.745290
     15          1           0       -2.537711    2.510254    0.490942
     16          1           0       -4.195735    0.680227    0.285331
     17          1           0       -3.893833    1.332472   -1.332253
     18          1           0       -3.873720   -1.209427   -1.249133
     19          1           0       -2.359884   -0.518093   -1.851487
     20          1           0       -0.906734   -1.341895    1.451440
     21          1           0       -0.650322    1.179350    1.538626
     22          1           0       -2.235685    0.554357    1.977591
     23          1           0       -0.002649   -1.811251   -0.762773
     24          1           0       -0.235275   -0.148355   -1.285319
     25          1           0        0.869432    1.730661   -0.238871
     26          1           0        1.618756    1.398540    1.315007
     27          1           0        3.641877    2.089177    0.212368
     28          1           0        2.920692    1.828503   -1.372744
     29          1           0        4.130505   -0.311419    0.446307
     30          1           0        4.469556   -0.042296   -1.260304
     31          1           0        2.643190   -1.963920   -0.714257
     32          1           0        2.166510   -0.713457   -1.877848
     33          1           0        2.379413   -0.871896    1.726204
 ---------------------------------------------------------------------

 SCF Done:  E(UB3LYP) =  -581.864760754     A.U. after   29 cycles

 The electronic state is 2-A.
 Alpha  occ. eigenvalues --  -19.01738 -19.01553 -10.12408 -10.11377 -10.11198
 Alpha  occ. eigenvalues --  -10.06858 -10.06701 -10.06231 -10.06167 -10.06064
 Alpha  occ. eigenvalues --  -10.05962 -10.05941 -10.05846  -0.93014  -0.91958
 Alpha  occ. eigenvalues --   -0.72790  -0.69973  -0.68090  -0.63162  -0.60919
 Alpha  occ. eigenvalues --   -0.56733  -0.53885  -0.51773  -0.47270  -0.46994
 Alpha  occ. eigenvalues --   -0.43841  -0.40895  -0.39226  -0.38094  -0.36616
 Alpha  occ. eigenvalues --   -0.35372  -0.34946  -0.32628  -0.32443  -0.32030
 Alpha  occ. eigenvalues --   -0.30151  -0.29603  -0.28002  -0.27836  -0.26275
 Alpha  occ. eigenvalues --   -0.24757  -0.24247  -0.23759  -0.23434  -0.23339
 Alpha  occ. eigenvalues --   -0.22302  -0.22101  -0.21622  -0.18698  -0.16645
 Alpha  occ. eigenvalues --   -0.15216   0.04440
 Alpha virt. eigenvalues --    0.06361   0.07387   0.07856   0.08567   0.08861
 Alpha virt. eigenvalues --    0.09086   0.10204   0.10868   0.11130   0.11277
 Alpha virt. eigenvalues --    0.11496   0.12131   0.12922   0.13755   0.14088

  Beta  occ. eigenvalues --  -19.01736 -19.01524 -10.12407 -10.11365 -10.11197
  Beta  occ. eigenvalues --  -10.06843 -10.06678 -10.06226 -10.06129 -10.06053
  Beta  occ. eigenvalues --  -10.05944 -10.05910 -10.05825  -0.93006  -0.91897
  Beta  occ. eigenvalues --   -0.72752  -0.69946  -0.68067  -0.63128  -0.60865
  Beta  occ. eigenvalues --   -0.56688  -0.53854  -0.51732  -0.47167  -0.46933
  Beta  occ. eigenvalues --   -0.43795  -0.40853  -0.39182  -0.38063  -0.36594
  Beta  occ. eigenvalues --   -0.35343  -0.34904  -0.32596  -0.32421  -0.31993
  Beta  occ. eigenvalues --   -0.30119  -0.29575  -0.27970  -0.27807  -0.26252
  Beta  occ. eigenvalues --   -0.24716  -0.24214  -0.23717  -0.23393  -0.23292
  Beta  occ. eigenvalues --   -0.22273  -0.22070  -0.21579  -0.18681  -0.16613
  Beta  occ. eigenvalues --   -0.15194
  Beta virt. eigenvalues --    0.06656   0.07338   0.08019   0.08451   0.09221
  Beta virt. eigenvalues --    0.09258   0.09522   0.10570   0.11130   0.11405
  Beta virt. eigenvalues --    0.11542   0.11845   0.12478   0.13162   0.14042

 Mulliken charges and spin densities:
               1          2
     1  C   -0.011107  -0.229096
     2  C    0.576331  -0.997819
     3  C   -0.146764  -0.085466
     4  O   -0.055636   0.013748
     5  C   -0.800983   0.218742
     6  C   -0.139260   0.163227
     7  C    2.142623  -2.488093
     8  C   -2.010417   2.177308
     9  C   -0.627442   0.369782
    10  C    1.980256  -2.709260
    11  C   -0.475848   0.374810
    12  C    0.431929  -0.872464
    13  O   -0.131749  -0.006598
    14  H   -0.059559   0.216094
    15  H   -0.369915   0.533222
    16  H    0.204619  -0.064085
    17  H   -0.363378   0.511970
    18  H   -0.060650   0.229324
    19  H   -0.033158   0.157691
    20  H    0.193226   0.034699
    21  H    0.085680   0.084001
    22  H   -0.067457   0.236008
    23  H    0.289299  -0.075887
    24  H   -0.025535   0.179346
    25  H   -0.229363   0.345768
    26  H    0.038138   0.141939
    27  H   -0.352737   0.518771
    28  H   -0.106267   0.248406
    29  H   -0.109722   0.207077
    30  H   -0.496744   0.688794
    31  H   -0.000957   0.189528
    32  H   -0.204915   0.359575
    33  H   -0.062540   0.328939
 Sum of Mulliken charges =  -1.00000   1.00000

 Dipole moment (field-independent basis, Debye):
    X=             -3.3339    Y=             -2.3306    Z=              1.2236  Tot=              4.2478
 Quadrupole moment (field-independent basis, Debye-Ang):
   XX=           -156.4768   YY=           -122.6584   ZZ=           -118.8027
   XY=             -0.5013   XZ=             -1.5643   YZ=              3.8938

 Summary of Natural Population Analysis:

                                       Natural Population
                Natural  -----------------------------------------------
    Atom  No    Charge         Core      Valence    Rydberg      Total
 -----------------------------------------------------------------------
      C    1   -0.19379      0.99963     2.18514    0.00902     3.19379
      C    2   -0.20350      0.99963     2.19535    0.00852     3.20350
      C    3   -0.01079      0.99957     1.99785    0.01337     3.01079
      O    4   -0.30636      0.99989     3.29777    0.00870     4.30636
      C    5    0.06972      0.99953     1.91718    0.01357     2.93028
      C    6   -0.20425      0.99960     2.19614    0.00850     3.20425
      C    7   -0.20851      0.99955     2.19880    0.01017     3.20851
      C    8    0.13340      0.99952     1.85086    0.01622     2.86660
      C    9   -0.20676      0.99959     2.19831    0.00886     3.20676
      C   10   -0.19162      0.99964     2.18386    0.00812     3.19162
      C   11   -0.19344      0.99964     2.18506    0.00874     3.19344
      C   12   -0.19993      0.99958     2.19067    0.00967     3.19993
      O   13   -0.38233      0.99989     3.37603    0.00641     4.38233
      H   14    0.09634      0.00000     0.40191    0.00174     0.40366
      H   15    0.09946      0.00000     0.39938    0.00116     0.40054
      H   16    0.09276      0.00000     0.40606    0.00118     0.40724
      H   17    0.10041      0.00000     0.39826    0.00133     0.39959
      H   18    0.08801      0.00000     0.41094    0.00105     0.41199
      H   19    0.07754      0.00000     0.42114    0.00132     0.42246
      H   20    0.10096      0.00000     0.39738    0.00167     0.39904
      H   21    0.10664      0.00000     0.39203    0.00133     0.39336
      H   22    0.09608      0.00000     0.40277    0.00116     0.40392
      H   23    0.10491      0.00000     0.39374    0.00135     0.39509
      H   24    0.10099      0.00000     0.39722    0.00179     0.39901
      H   25    0.10441      0.00000     0.39397    0.00162     0.39559
      H   26    0.10319      0.00000     0.39521    0.00160     0.39681
      H   27    0.10087      0.00000     0.39768    0.00145     0.39913
      H   28    0.09634      0.00000     0.40196    0.00170     0.40366
      H   29    0.09088      0.00000     0.40701    0.00211     0.40912
      H   30    0.10307      0.00000     0.39542    0.00152     0.39693
      H   31    0.10401      0.00000     0.39492    0.00107     0.39599
      H   32    0.10001      0.00000     0.39862    0.00137     0.39999
      H   33    0.23127      0.00000     0.26513    0.00360     0.26873
 =======================================================================
   * Total *    0.00000     12.99526    37.84376    0.16099    51.00000

 Normal termination of Gaussian 16 at Mon Dec 14 17:18:48 2020.
