 Gaussian 16, Revision A.03,

 -----------------------------------------------------------
 # opt freq B3LYP/6-31G(d) empiricaldispersion=gd3bj scf=xqc
 -----------------------------------------------------------

 -------------------------------
 CID_145553167_JID_4080_neutraal
 -------------------------------
 Symbolic Z-matrix:
 Charge =  0 Multiplicity = 1

 SCF Done:  E(RB3LYP) =  -1001.80428605     A.U. after   15 cycles
 SCF Done:  E(RB3LYP) =  -1001.81820933     A.U. after   15 cycles
 SCF Done:  E(RB3LYP) =  -1001.82022085     A.U. after   13 cycles
 SCF Done:  E(RB3LYP) =  -1001.81340876     A.U. after   14 cycles
 SCF Done:  E(RB3LYP) =  -1001.81964345     A.U. after   13 cycles
 SCF Done:  E(RB3LYP) =  -1001.82331531     A.U. after   10 cycles
 SCF Done:  E(RB3LYP) =  -1001.82496688     A.U. after   13 cycles
 SCF Done:  E(RB3LYP) =  -1001.82627791     A.U. after   14 cycles
 SCF Done:  E(RB3LYP) =  -1001.82741863     A.U. after   12 cycles
 SCF Done:  E(RB3LYP) =  -1001.82831323     A.U. after   12 cycles
 SCF Done:  E(RB3LYP) =  -1001.83198213     A.U. after    7 cycles
 SCF Done:  E(RB3LYP) =  -1001.83198221     A.U. after    7 cycles
 SCF Done:  E(RB3LYP) =  -1001.83198231     A.U. after    7 cycles
 SCF Done:  E(RB3LYP) =  -1001.83198239     A.U. after    7 cycles
 SCF Done:  E(RB3LYP) =  -1001.83198242     A.U. after    7 cycles
 Optimization completed.
    -- Stationary point found.
 Normal termination of Gaussian 16 at Thu Dec 10 09:40:09 2020.

 --------------------------------------------------------------------
 #N Geom=AllCheck Guess=TCheck SCRF=Check GenChk RB3LYP/6-31G(d) Freq
 --------------------------------------------------------------------

 Structure from the checkpoint file:  "JID_4080.chk"
 -------------------------------
 CID_145553167_JID_4080_neutraal
 -------------------------------
 Charge =  0 Multiplicity = 1

 SCF Done:  E(RB3LYP) =  -1001.83198242     A.U. after    1 cycles

  Exact polarizability: 165.170  -4.293 118.538 -20.506 -24.660 114.156
 Approx polarizability: 239.725  -4.210 189.459 -40.400 -57.715 190.476

                      1                      2                      3
                      A                      A                      A
 Frequencies --     27.1675                43.4545                44.1174
 Red. masses --      5.5083                 1.2440                 3.1058
 Frc consts  --      0.0024                 0.0014                 0.0036
 IR Inten    --      0.2069                 0.5093                 0.6981

                      4                      5                      6
                      A                      A                      A
 Frequencies --     52.1693                77.5406               106.6751
 Red. masses --      3.4818                 4.2013                 5.0160
 Frc consts  --      0.0056                 0.0149                 0.0336
 IR Inten    --      0.4331                 2.7658                 1.7081

                      7                      8                      9
                      A                      A                      A
 Frequencies --    124.8610               147.1199               154.9376
 Red. masses --      4.7211                 4.1220                 3.8372
 Frc consts  --      0.0434                 0.0526                 0.0543
 IR Inten    --      1.7987                 4.0320                 3.3868

                     10                     11                     12
                      A                      A                      A
 Frequencies --    171.8959               210.9447               215.5875
 Red. masses --      2.4737                 1.8810                 2.1543
 Frc consts  --      0.0431                 0.0493                 0.0590
 IR Inten    --      8.5509                 3.6486                 2.5182

                     13                     14                     15
                      A                      A                      A
 Frequencies --    253.4975               288.6148               297.8654
 Red. masses --      4.2575                 4.1847                 3.2459
 Frc consts  --      0.1612                 0.2054                 0.1697
 IR Inten    --      4.7094                 4.3082                 4.9490

                     16                     17                     18
                      A                      A                      A
 Frequencies --    326.3275               379.6129               393.9838
 Red. masses --      1.3693                 2.0937                 5.2766
 Frc consts  --      0.0859                 0.1778                 0.4826
 IR Inten    --      3.4440                 4.1921                 4.6717

                     19                     20                     21
                      A                      A                      A
 Frequencies --    402.6978               457.1725               465.7003
 Red. masses --      1.3940                 2.6956                 1.1401
 Frc consts  --      0.1332                 0.3319                 0.1457
 IR Inten    --     34.8870                 3.1450                75.1048

                     22                     23                     24
                      A                      A                      A
 Frequencies --    520.0486               535.3692               557.8457
 Red. masses --      3.7467                 5.4278                 3.7350
 Frc consts  --      0.5970                 0.9166                 0.6848
 IR Inten    --     46.7662                 5.6666                11.8662

                     25                     26                     27
                      A                      A                      A
 Frequencies --    679.5817               692.7647               702.3169
 Red. masses --      6.4782                 3.2262                 5.7572
 Frc consts  --      1.7627                 0.9122                 1.6731
 IR Inten    --     31.7133                40.6015                 5.5242

                     28                     29                     30
                      A                      A                      A
 Frequencies --    762.4588               777.3778               783.0596
 Red. masses --      3.2537                 2.9376                 3.4852
 Frc consts  --      1.1145                 1.0459                 1.2591
 IR Inten    --     81.7012                54.5646                18.9368

                     31                     32                     33
                      A                      A                      A
 Frequencies --    846.8230               903.1326               928.3285
 Red. masses --      1.3575                 3.1596                 1.4516
 Frc consts  --      0.5735                 1.5184                 0.7370
 IR Inten    --     15.2091                80.1397                 9.0652

                     34                     35                     36
                      A                      A                      A
 Frequencies --    934.1070               943.1662               977.1840
 Red. masses --      2.4454                 1.1742                 1.3615
 Frc consts  --      1.2572                 0.6154                 0.7660
 IR Inten    --    124.6891                65.5700                 0.1103

                     37                     38                     39
                      A                      A                      A
 Frequencies --   1019.4275              1031.6793              1052.9457
 Red. masses --      7.3241                 1.4559                 2.1761
 Frc consts  --      4.4845                 0.9130                 1.4215
 IR Inten    --      4.2728                 6.0067                89.8509

                     40                     41                     42
                      A                      A                      A
 Frequencies --   1070.6013              1075.6341              1113.7519
 Red. masses --      1.1384                 1.5520                 1.7886
 Frc consts  --      0.7688                 1.0580                 1.3072
 IR Inten    --      9.5155                 5.4887                32.6634

                     43                     44                     45
                      A                      A                      A
 Frequencies --   1146.7909              1161.9427              1169.0728
 Red. masses --      1.5588                 1.1056                 1.6896
 Frc consts  --      1.2078                 0.8795                 1.3605
 IR Inten    --      0.8668                 1.1607                 2.0747

                     46                     47                     48
                      A                      A                      A
 Frequencies --   1257.1622              1277.2168              1320.0968
 Red. masses --      2.6338                 1.9709                 7.4617
 Frc consts  --      2.4525                 1.8942                 7.6613
 IR Inten    --      4.7578               106.2398                 1.4487

                     49                     50                     51
                      A                      A                      A
 Frequencies --   1327.7910              1336.3236              1387.6360
 Red. masses --      1.4545                 1.4470                 1.5901
 Frc consts  --      1.5109                 1.5225                 1.8040
 IR Inten    --     10.7161                34.9483                28.8598

                     52                     53                     54
                      A                      A                      A
 Frequencies --   1411.1365              1440.6862              1474.5068
 Red. masses --      1.6104                 1.2440                 3.8196
 Frc consts  --      1.8894                 1.5213                 4.8928
 IR Inten    --      8.6996                 0.5226                26.9027

                     55                     56                     57
                      A                      A                      A
 Frequencies --   1508.7727              1517.1412              1518.3591
 Red. masses --      1.2960                 1.2037                 1.0541
 Frc consts  --      1.7383                 1.6324                 1.4318
 IR Inten    --      9.5487                13.6924                 5.7006

                     58                     59                     60
                      A                      A                      A
 Frequencies --   1529.6833              1616.7671              1654.1863
 Red. masses --      2.4447                 5.8284                 4.6379
 Frc consts  --      3.3703                 8.9762                 7.4773
 IR Inten    --     32.4313                37.7561               107.1634

                     61                     62                     63
                      A                      A                      A
 Frequencies --   1660.8473              1672.8018              1715.6897
 Red. masses --      1.0834                 2.9799                 1.2676
 Frc consts  --      1.7608                 4.9129                 2.1984
 IR Inten    --     27.7077                17.0922                31.0483

                     64                     65                     66
                      A                      A                      A
 Frequencies --   1748.2860              2622.2798              3049.0009
 Red. masses --      1.0603                 1.0394                 1.0393
 Frc consts  --      1.9095                 4.2112                 5.6927
 IR Inten    --     24.6644                34.1597                19.2342

                     67                     68                     69
                      A                      A                      A
 Frequencies --   3108.2851              3135.1176              3170.3954
 Red. masses --      1.0968                 1.1033                 1.0885
 Frc consts  --      6.2435                 6.3890                 6.4461
 IR Inten    --     15.4731                13.1805                24.1428

                     70                     71                     72
                      A                      A                      A
 Frequencies --   3199.5070              3242.7523              3384.1169
 Red. masses --      1.0941                 1.0909                 1.0592
 Frc consts  --      6.5992                 6.7588                 7.1471
 IR Inten    --     25.3642                 0.4237                37.0775

                     73                     74                     75
                      A                      A                      A
 Frequencies --   3393.7847              3481.6593              3535.1462
 Red. masses --      1.0574                 1.0477                 1.0781
 Frc consts  --      7.1754                 7.4827                 7.9386
 IR Inten    --      2.8192                 3.2027                 5.4495

                     76                     77                     78
                      A                      A                      A
 Frequencies --   3547.5779              3554.4305              3579.2006
 Red. masses --      1.0790                 1.0851                 1.0971
 Frc consts  --      8.0008                 8.0775                 8.2806
 IR Inten    --     29.3012                 5.2001                10.8492

 - Thermochemistry -
 -------------------
 Temperature   298.150 Kelvin.  Pressure   1.00000 Atm.
 Atom     1 has atomic number  6 and mass  12.00000

 Molecular mass:   214.10007 amu.
 Principal axes and moments of inertia in atomic units:
                           1         2         3
     Eigenvalues --  2635.756403907.177584617.71368
           X            0.99906  -0.04334  -0.00018
           Y            0.04331   0.99836  -0.03745
           Z            0.00180   0.03741   0.99930
 This molecule is an asymmetric top.
 Rotational symmetry number  1.
 Warning -- assumption of classical behavior for rotation
           may cause significant error
 Rotational temperatures (Kelvin)      0.03286     0.02217     0.01876
 Rotational constants (GHZ):           0.68471     0.46190     0.39083
 Zero-point vibrational energy     600559.4 (Joules/Mol)
                                  143.53715 (Kcal/Mol)
 Warning -- explicit consideration of  24 degrees of freedom as
           vibrations may cause significant error
 Vibrational temperatures:     39.09    62.52    63.48    75.06   111.56
          (Kelvin)            153.48   179.65   211.67   222.92   247.32
                              303.50   310.18   364.73   415.25   428.56
                              469.51   546.18   566.85   579.39   657.77
                              670.04   748.23   770.28   802.62   977.77
                              996.73  1010.48  1097.01  1118.47  1126.65
                             1218.39  1299.41  1335.66  1343.97  1357.01
                             1405.95  1466.73  1484.36  1514.95  1540.36
                             1547.60  1602.44  1649.98  1671.78  1682.04
                             1808.78  1837.63  1899.32  1910.40  1922.67
                             1996.50  2030.31  2072.83  2121.49  2170.79
                             2182.83  2184.58  2200.87  2326.17  2380.01
                             2389.59  2406.79  2468.49  2515.39  3772.88
                             4386.83  4472.13  4510.73  4561.49  4603.38
                             4665.60  4868.99  4882.90  5009.33  5086.29
                             5104.17  5114.03  5149.67

 Zero-point correction=                           0.228741 (Hartree/Particle)
 Thermal correction to Energy=                    0.245181
 Thermal correction to Enthalpy=                  0.246125
 Thermal correction to Gibbs Free Energy=         0.183123
 Sum of electronic and zero-point Energies=          -1001.603241
 Sum of electronic and thermal Energies=             -1001.586802
 Sum of electronic and thermal Enthalpies=           -1001.585857
 Sum of electronic and thermal Free Energies=        -1001.648860

                     E (Thermal)             CV                S
                      KCal/Mol        Cal/Mol-Kelvin    Cal/Mol-Kelvin
 Total                  153.853             58.123            132.600
 Electronic               0.000              0.000              0.000
 Translational            0.889              2.981             41.987
 Rotational               0.889              2.981             32.231
 Vibrational            152.076             52.161             58.382
 Vibration     1          0.593              1.984              6.026
 Vibration     2          0.595              1.980              5.095
 Vibration     3          0.595              1.980              5.065
 Vibration     4          0.596              1.977              4.733
 Vibration     5          0.599              1.964              3.952
 Vibration     6          0.606              1.944              3.329
 Vibration     7          0.610              1.928              3.024
 Vibration     8          0.617              1.906              2.709
 Vibration     9          0.620              1.897              2.611
 Vibration    10          0.626              1.877              2.415
 Vibration    11          0.643              1.824              2.035
 Vibration    12          0.645              1.817              1.996
 Vibration    13          0.665              1.757              1.706
 Vibration    14          0.685              1.695              1.482
 Vibration    15          0.691              1.678              1.429
 Vibration    16          0.710              1.623              1.278
 Vibration    17          0.750              1.514              1.041
 Vibration    18          0.761              1.483              0.985
 Vibration    19          0.768              1.464              0.953
 Vibration    20          0.815              1.345              0.774
 Vibration    21          0.823              1.326              0.750
 Vibration    22          0.875              1.206              0.610
 Vibration    23          0.890              1.172              0.575
 Vibration    24          0.913              1.123              0.528

 Optimization completed.
    -- Stationary point found.
 Normal termination of Gaussian 16 at Thu Dec 10 09:47:50 2020.

 ----------------------------------------------------------------------
 # B3LYP/6-311++G(d,p) empiricaldispersion=gd3bj scf=xqc pop=npa geom=c
 heck
 ----------------------------------------------------------------------

 ---------------------------------------
 CID_145553167_JID_4080_Energie_neutraal
 ---------------------------------------
 Structure from the checkpoint file:  "JID_4080.chk"
 Charge =  0 Multiplicity = 1

 SCF Done:  E(RB3LYP) =  -1002.05148733     A.U. after   16 cycles
 Normal termination of Gaussian 16 at Thu Dec 10 09:51:16 2020.

 ----------------------------------------------------------------------
 # B3LYP/6-311++G(d,p) empiricaldispersion=gd3bj scf=xqc pop=npa geom=c
 heck
 ----------------------------------------------------------------------

 -------------------------------------
 CID_145553167_JID_4080_Energie_kation
 -------------------------------------
 Structure from the checkpoint file:  "JID_4080.chk"
 Charge =  1 Multiplicity = 2

 SCF Done:  E(UB3LYP) =  -1001.77268444     A.U. after   28 cycles
 Normal termination of Gaussian 16 at Thu Dec 10 09:59:23 2020.
 Gaussian 16:  ES64L-G16RevA.03 25-Dec-2016

 ----------------------------------------------------------------------
 # B3LYP/6-311++G(d,p) empiricaldispersion=gd3bj scf=xqc pop=npa geom=c
 heck
 ----------------------------------------------------------------------

 ------------------------------------
 CID_145553167_JID_4080_Energie_anion
 ------------------------------------
 Structure from the checkpoint file:  "JID_4080.chk"
 Charge = -1 Multiplicity = 2

                         Standard orientation:
 ---------------------------------------------------------------------
 Center     Atomic      Atomic             Coordinates (Angstroms)
 Number     Number       Type             X           Y           Z
 ---------------------------------------------------------------------
      1          6           0       -3.410398    1.417869   -1.029859
      2          6           0       -2.538137    0.313365   -0.491776
      3          6           0       -1.179243    0.255853   -0.796918
      4          6           0       -0.394524   -0.787098   -0.287865
      5          7           0       -0.902582   -1.766845    0.479810
      6          6           0       -2.209108   -1.714155    0.761758
      7          6           0       -3.058430   -0.705590    0.316500
      8          6           0        1.057093   -0.839883   -0.613794
      9          7           0        1.427999   -0.241431   -1.705618
     10          7           0        2.823110   -0.350882   -1.958832
     11          7           0        1.930366   -1.559214    0.181667
     12          7           0        1.715910   -1.704064    1.586922
     13          7           0        0.806339    1.333966    1.823350
     14         16           0        1.261758    2.534814    0.624724
     15          1           0       -2.840670    2.342421   -1.164252
     16          1           0       -3.824554    1.141834   -2.008040
     17          1           0       -4.254096    1.622751   -0.363055
     18          1           0       -0.712943    1.008616   -1.420215
     19          1           0       -2.593549   -2.521427    1.382613
     20          1           0       -4.108811   -0.713088    0.594149
     21          1           0        3.069909   -1.335696   -2.100682
     22          1           0        2.977810    0.112548   -2.850129
     23          1           0        2.892718   -1.285801    0.007074
     24          1           0        1.359174   -0.803530    1.924751
     25          1           0        0.947077   -2.364870    1.675218
     26          1           0        1.272918    1.570713    2.696381
     27          1           0       -0.198776    1.387313    1.976276
     28          1           0        1.614148    1.658308   -0.345038
 ---------------------------------------------------------------------

 SCF Done:  E(UB3LYP) =  -1002.04978241     A.U. after   33 cycles
 SCF Done:  E(UB3LYP) =  -1002.04978241     a.u. after    1 cycles

 The electronic state is 2-A.
 Alpha  occ. eigenvalues --  -88.73468 -14.21546 -14.21516 -14.20549 -14.18601
 Alpha  occ. eigenvalues --  -14.17668 -14.16140 -10.09369 -10.07219 -10.06496
 Alpha  occ. eigenvalues --  -10.05809 -10.05521 -10.03679 -10.03663  -7.81939
 Alpha  occ. eigenvalues --   -5.78450  -5.77927  -5.77273  -0.87427  -0.82632
 Alpha  occ. eigenvalues --   -0.80295  -0.77154  -0.69837  -0.68773  -0.63449
 Alpha  occ. eigenvalues --   -0.61569  -0.58748  -0.56695  -0.51587  -0.48121
 Alpha  occ. eigenvalues --   -0.44039  -0.40699  -0.38908  -0.37621  -0.37081
 Alpha  occ. eigenvalues --   -0.36260  -0.34983  -0.33680  -0.32455  -0.31533
 Alpha  occ. eigenvalues --   -0.31184  -0.28782  -0.28131  -0.27816  -0.26450
 Alpha  occ. eigenvalues --   -0.25872  -0.25176  -0.22627  -0.19127  -0.16176
 Alpha  occ. eigenvalues --   -0.15496  -0.14544  -0.14031  -0.13225  -0.11887
 Alpha  occ. eigenvalues --   -0.11247  -0.08367   0.04854
 Alpha virt. eigenvalues --    0.07538   0.07964   0.08172   0.09306   0.10120
 Alpha virt. eigenvalues --    0.10473   0.11139   0.11652   0.11896   0.12684
 Alpha virt. eigenvalues --    0.13414   0.13668   0.14082   0.14333   0.15080

  Beta  occ. eigenvalues --  -88.73450 -14.21535 -14.21496 -14.20425 -14.18589
  Beta  occ. eigenvalues --  -14.17373 -14.15900 -10.09337 -10.07273 -10.06266
  Beta  occ. eigenvalues --  -10.05815 -10.05370 -10.03709 -10.03502  -7.81922
  Beta  occ. eigenvalues --   -5.78402  -5.77910  -5.77262  -0.87234  -0.82457
  Beta  occ. eigenvalues --   -0.79910  -0.76933  -0.69682  -0.68445  -0.63295
  Beta  occ. eigenvalues --   -0.61312  -0.58619  -0.56544  -0.51220  -0.47989
  Beta  occ. eigenvalues --   -0.43827  -0.40577  -0.38786  -0.37486  -0.36961
  Beta  occ. eigenvalues --   -0.36157  -0.34868  -0.33604  -0.32333  -0.31363
  Beta  occ. eigenvalues --   -0.30958  -0.28498  -0.27873  -0.27674  -0.26093
  Beta  occ. eigenvalues --   -0.25691  -0.24485  -0.22486  -0.18769  -0.16020
  Beta  occ. eigenvalues --   -0.15200  -0.13748  -0.13579  -0.12681  -0.11643
  Beta  occ. eigenvalues --   -0.10993  -0.07538
  Beta virt. eigenvalues --    0.07726   0.08080   0.08475   0.09269   0.09764
  Beta virt. eigenvalues --    0.10317   0.10577   0.11230   0.11748   0.12065
  Beta virt. eigenvalues --    0.12775   0.13520   0.13857   0.14201   0.14510

 Mulliken charges and spin densities:
               1          2
     1  C   -0.420949  -0.185713
     2  C   -0.354283   0.362410
     3  C    0.354236   0.220986
     4  C   -0.174288  -0.207800
     5  N   -0.113391   0.156573
     6  C    0.118895  -0.161373
     7  C   -0.771727   0.128767
     8  C   -0.001113  -0.161941
     9  N   -0.134340   0.134030
    10  N   -0.301668  -0.006508
    11  N   -0.100612  -0.044509
    12  N   -0.426743   0.012310
    13  N   -0.294198  -0.258968
    14  S   -0.074432   0.028223
    15  H    0.110600   0.015017
    16  H    0.166114  -0.014653
    17  H   -0.052680   0.187093
    18  H    0.248674  -0.028389
    19  H    0.063730   0.082603
    20  H    0.017522   0.100354
    21  H    0.200175   0.004860
    22  H    0.246019  -0.000203
    23  H    0.213469   0.017946
    24  H    0.361623  -0.054374
    25  H    0.192903   0.039228
    26  H   -0.174299   0.491790
    27  H    0.062291   0.168897
    28  H    0.038471  -0.026653
 Sum of Mulliken charges =  -1.00000   1.00000

 Dipole moment (field-independent basis, Debye):
    X=             -0.3516    Y=             -0.1778    Z=             -3.5684  Tot=              3.5901
 Quadrupole moment (field-independent basis, Debye-Ang):
   XX=           -122.8140   YY=           -120.5678   ZZ=           -113.8572
   XY=             -1.1075   XZ=             -5.9176   YZ=             -3.0625

 Summary of Natural Population Analysis:

                                       Natural Population
                Natural  -----------------------------------------------
    Atom  No    Charge         Core      Valence    Rydberg      Total
 -----------------------------------------------------------------------
      C    1   -0.29401      0.99964     2.28900    0.00537     3.29401
      C    2    0.01386      0.99952     1.97773    0.00889     2.98614
      C    3   -0.11502      0.99947     2.10519    0.01036     3.11502
      C    4    0.12045      0.99949     1.86382    0.01624     2.87955
      N    5   -0.22478      0.99968     2.71354    0.01156     3.72478
      C    6    0.01267      0.99959     1.97176    0.01599     2.98733
      C    7   -0.10452      0.99951     2.09559    0.00942     3.10452
      C    8    0.19389      0.99955     1.78643    0.02012     2.80611
      N    9   -0.16500      0.99965     2.65098    0.01437     3.66500
      N   10   -0.33853      0.99976     2.82788    0.01089     3.83853
      N   11   -0.24234      0.99965     2.72844    0.01425     3.74234
      N   12   -0.33440      0.99978     2.82356    0.01106     3.83440
      N   13   -0.47589      0.99979     2.96169    0.01441     3.97589
      S   14    0.04464      4.99966     2.93362    0.02208     7.95536
      H   15    0.10283      0.00000     0.39637    0.00080     0.39717
      H   16    0.10027      0.00000     0.39895    0.00078     0.39973
      H   17    0.09992      0.00000     0.39924    0.00084     0.40008
      H   18    0.10994      0.00000     0.38864    0.00143     0.39006
      H   19    0.08193      0.00000     0.41702    0.00105     0.41807
      H   20    0.09378      0.00000     0.40529    0.00092     0.40622
      H   21    0.16446      0.00000     0.33352    0.00202     0.33554
      H   22    0.17316      0.00000     0.32559    0.00125     0.32684
      H   23    0.18538      0.00000     0.31239    0.00223     0.31462
      H   24    0.18058      0.00000     0.31539    0.00403     0.31942
      H   25    0.18180      0.00000     0.31537    0.00283     0.31820
      H   26    0.18253      0.00000     0.31421    0.00326     0.31747
      H   27    0.18514      0.00000     0.31251    0.00235     0.31486
      H   28    0.06725      0.00000     0.42871    0.00404     0.43275
 =======================================================================
   * Total *   -0.00000     17.99472    38.79242    0.21286    57.00000

 Normal termination of Gaussian 16 at Thu Dec 10 10:08:00 2020.
