 Gaussian 16, Revision A.03,

 -----------------------------------------------------------
 # opt freq B3LYP/6-31G(d) empiricaldispersion=gd3bj scf=xqc
 -----------------------------------------------------------

 ------------------------------
 CID_78912616_JID_3976_neutraal
 ------------------------------
 Symbolic Z-matrix:
 Charge =  0 Multiplicity = 1

 SCF Done:  E(RB3LYP) =  -576.591411188     A.U. after   15 cycles
 SCF Done:  E(RB3LYP) =  -576.595420077     A.U. after   12 cycles
 SCF Done:  E(RB3LYP) =  -576.594504363     A.U. after   13 cycles
 SCF Done:  E(RB3LYP) =  -576.595453405     A.U. after   12 cycles
 SCF Done:  E(RB3LYP) =  -576.596225977     A.U. after   12 cycles
 SCF Done:  E(RB3LYP) =  -576.596151547     A.U. after   12 cycles
 SCF Done:  E(RB3LYP) =  -576.596365595     A.U. after   12 cycles
 SCF Done:  E(RB3LYP) =  -576.596443234     A.U. after   11 cycles
 SCF Done:  E(RB3LYP) =  -576.596301753     A.U. after   13 cycles
 SCF Done:  E(RB3LYP) =  -576.596577465     A.U. after   12 cycles
 SCF Done:  E(RB3LYP) =  -576.600177868     A.U. after    9 cycles
 SCF Done:  E(RB3LYP) =  -576.600178326     A.U. after    8 cycles
 SCF Done:  E(RB3LYP) =  -576.600178612     A.U. after    8 cycles
 SCF Done:  E(RB3LYP) =  -576.600178704     A.U. after    7 cycles
 SCF Done:  E(RB3LYP) =  -576.600178747     A.U. after    7 cycles
 Optimization completed.
    -- Stationary point found.
 Normal termination of Gaussian 16 at Sun Dec 13 20:17:13 2020.

 --------------------------------------------------------------------
 #N Geom=AllCheck Guess=TCheck SCRF=Check GenChk RB3LYP/6-31G(d) Freq
 --------------------------------------------------------------------

 Structure from the checkpoint file:  "JID_3976.chk"
 ------------------------------
 CID_78912616_JID_3976_neutraal
 ------------------------------
 Charge =  0 Multiplicity = 1

 SCF Done:  E(RB3LYP) =  -576.600178747     A.U. after    1 cycles

  Exact polarizability: 136.349   6.209 117.807  -3.572   1.288  92.940
 Approx polarizability: 178.208  12.581 166.088 -10.392   5.515 146.916

                      1                      2                      3
                      A                      A                      A
 Frequencies --     27.1374                42.9677                66.0146
 Red. masses --      4.5203                 3.9702                 4.2058
 Frc consts  --      0.0020                 0.0043                 0.0108
 IR Inten    --      0.5489                 0.2921                 0.1956

                      4                      5                      6
                      A                      A                      A
 Frequencies --     74.8421                91.0637               124.9013
 Red. masses --      2.8814                 3.7228                 3.1151
 Frc consts  --      0.0095                 0.0182                 0.0286
 IR Inten    --      0.0520                 0.8504                 1.7365

                      7                      8                      9
                      A                      A                      A
 Frequencies --    174.7150               191.9482               201.6010
 Red. masses --      3.0470                 1.7472                 2.2888
 Frc consts  --      0.0548                 0.0379                 0.0548
 IR Inten    --      4.3185                 1.7811                 1.2545

                     10                     11                     12
                      A                      A                      A
 Frequencies --    227.4879               236.8457               265.7900
 Red. masses --      1.2490                 5.1065                 2.1208
 Frc consts  --      0.0381                 0.1688                 0.0883
 IR Inten    --      1.3134                 0.5032                 1.3234

                     13                     14                     15
                      A                      A                      A
 Frequencies --    287.8732               310.1708               332.4886
 Red. masses --      1.8166                 2.1278                 2.6855
 Frc consts  --      0.0887                 0.1206                 0.1749
 IR Inten    --      1.6213                 6.2128                 1.7295

                     16                     17                     18
                      A                      A                      A
 Frequencies --    367.4151               406.0395               428.0639
 Red. masses --      3.5874                 2.2432                 2.0151
 Frc consts  --      0.2853                 0.2179                 0.2176
 IR Inten    --      2.0101                 0.9824                 2.1855

                     19                     20                     21
                      A                      A                      A
 Frequencies --    473.6797               505.3108               518.2181
 Red. masses --      3.1100                 2.2109                 2.1956
 Frc consts  --      0.4111                 0.3326                 0.3474
 IR Inten    --      8.3640                18.1811                 0.3248

                     22                     23                     24
                      A                      A                      A
 Frequencies --    585.4320               613.2393               629.0492
 Red. masses --      3.8087                 1.2039                 2.5233
 Frc consts  --      0.7691                 0.2667                 0.5883
 IR Inten    --     10.7975                47.3645                14.4701

                     25                     26                     27
                      A                      A                      A
 Frequencies --    652.2691               653.3466               746.2091
 Red. masses --      1.6482                 1.5216                 1.4792
 Frc consts  --      0.4132                 0.3827                 0.4853
 IR Inten    --     65.9095                74.5642                 6.0609

                     28                     29                     30
                      A                      A                      A
 Frequencies --    820.5238               833.5043               839.6430
 Red. masses --      2.5527                 2.1979                 2.9212
 Frc consts  --      1.0126                 0.8996                 1.2134
 IR Inten    --     11.3946                 3.6943                 1.4946

                     31                     32                     33
                      A                      A                      A
 Frequencies --    917.0888               937.2743               972.5188
 Red. masses --      1.8648                 4.1987                 1.8759
 Frc consts  --      0.9241                 2.1732                 1.0454
 IR Inten    --      9.8584                15.1000                 6.0827

                     34                     35                     36
                      A                      A                      A
 Frequencies --    978.4782               991.5368              1011.5487
 Red. masses --      1.7637                 2.1007                 1.6435
 Frc consts  --      0.9949                 1.2168                 0.9908
 IR Inten    --      1.6127                25.4493                 4.0681

                     37                     38                     39
                      A                      A                      A
 Frequencies --   1073.5496              1115.1473              1125.5572
 Red. masses --      2.1052                 2.0478                 2.0529
 Frc consts  --      1.4295                 1.5004                 1.5323
 IR Inten    --     15.1250                22.9247                 6.9928

                     40                     41                     42
                      A                      A                      A
 Frequencies --   1127.9283              1143.7311              1171.0285
 Red. masses --      2.2542                 1.6502                 1.7275
 Frc consts  --      1.6897                 1.2719                 1.3958
 IR Inten    --     13.8423                13.8807                 2.1041

                     43                     44                     45
                      A                      A                      A
 Frequencies --   1183.9924              1257.8455              1266.1743
 Red. masses --      1.8187                 1.5993                 1.3872
 Frc consts  --      1.5022                 1.4909                 1.3103
 IR Inten    --     17.6781               115.2957                34.7442

                     46                     47                     48
                      A                      A                      A
 Frequencies --   1280.2359              1312.3824              1317.9546
 Red. masses --      1.6669                 1.3359                 1.4044
 Frc consts  --      1.6097                 1.3556                 1.4373
 IR Inten    --      1.8448                26.1553                57.9411

                     49                     50                     51
                      A                      A                      A
 Frequencies --   1360.3713              1372.1274              1392.4173
 Red. masses --      1.3261                 1.4159                 1.3439
 Frc consts  --      1.4459                 1.5706                 1.5351
 IR Inten    --     14.2051                 4.7625                 8.3222

                     52                     53                     54
                      A                      A                      A
 Frequencies --   1399.1708              1407.4940              1424.7129
 Red. masses --      1.2773                 1.3829                 1.6235
 Frc consts  --      1.4733                 1.6141                 1.9415
 IR Inten    --     14.6038                 3.3915                18.4053

                     55                     56                     57
                      A                      A                      A
 Frequencies --   1441.3112              1445.3203              1475.2948
 Red. masses --      1.3739                 1.2888                 1.2497
 Frc consts  --      1.6816                 1.5862                 1.6025
 IR Inten    --     12.8997                 7.0469                 8.4815

                     58                     59                     60
                      A                      A                      A
 Frequencies --   1479.8329              1499.8840              1507.0334
 Red. masses --      1.3238                 1.2082                 1.0894
 Frc consts  --      1.7081                 1.6015                 1.4578
 IR Inten    --     21.0010                40.8714                 9.6046

                     61                     62                     63
                      A                      A                      A
 Frequencies --   1510.5269              1511.1536              1525.3614
 Red. masses --      1.0788                 1.0558                 1.0441
 Frc consts  --      1.4502                 1.4206                 1.4314
 IR Inten    --      0.5931                10.5743                 0.3491

                     64                     65                     66
                      A                      A                      A
 Frequencies --   1533.5992              1540.6926              1552.1395
 Red. masses --      1.0690                 1.0802                 1.0602
 Frc consts  --      1.4813                 1.5107                 1.5049
 IR Inten    --      1.9453                 9.6941                10.2717

                     67                     68                     69
                      A                      A                      A
 Frequencies --   1556.7313              1785.4754              2242.0927
 Red. masses --      1.0653                 8.2467                 5.9164
 Frc consts  --      1.5211                15.4896                17.5232
 IR Inten    --      6.2875               252.3019                 1.5958

                     70                     71                     72
                      A                      A                      A
 Frequencies --   3013.5415              3025.1625              3027.4697
 Red. masses --      1.0403                 1.0588                 1.0659
 Frc consts  --      5.5662                 5.7089                 5.7559
 IR Inten    --     44.3634                33.3001                21.7797

                     73                     74                     75
                      A                      A                      A
 Frequencies --   3039.1197              3043.5421              3046.7624
 Red. masses --      1.0639                 1.0588                 1.0473
 Frc consts  --      5.7897                 5.7784                 5.7282
 IR Inten    --     30.5762                26.1042                26.3566

                     76                     77                     78
                      A                      A                      A
 Frequencies --   3058.3818              3065.8337              3067.1879
 Red. masses --      1.0979                 1.0999                 1.0597
 Frc consts  --      6.0507                 6.0911                 5.8738
 IR Inten    --     54.9938                28.6897                17.4323

                     79                     80                     81
                      A                      A                      A
 Frequencies --   3076.5413              3079.5923              3090.5056
 Red. masses --      1.0955                 1.0990                 1.0955
 Frc consts  --      6.1093                 6.1409                 6.1651
 IR Inten    --     38.5579                47.5115                21.9915

                     82                     83                     84
                      A                      A                      A
 Frequencies --   3101.7975              3105.8224              3107.4049
 Red. masses --      1.1038                 1.1030                 1.0999
 Frc consts  --      6.2568                 6.2685                 6.2574
 IR Inten    --      8.5748                30.6375                76.4230

                     85                     86                     87
                      A                      A                      A
 Frequencies --   3138.3245              3493.8227              3576.7705
 Red. masses --      1.1000                 1.1614                 1.0762
 Frc consts  --      6.3831                 8.3531                 8.1118
 IR Inten    --     25.6247                56.5361                17.5851

 - Thermochemistry -
 -------------------
 Temperature   298.150 Kelvin.  Pressure   1.00000 Atm.
 Atom     1 has atomic number  6 and mass  12.00000

 Molecular mass:   182.14191 amu.
 Principal axes and moments of inertia in atomic units:
                           1         2         3
     Eigenvalues --  1641.215253639.432734377.58343
           X            0.99988   0.01550  -0.00007
           Y           -0.01550   0.99975   0.01586
           Z            0.00032  -0.01586   0.99987
 This molecule is an asymmetric top.
 Rotational symmetry number  1.
 Warning -- assumption of classical behavior for rotation
           may cause significant error
 Rotational temperatures (Kelvin)      0.05277     0.02380     0.01979
 Rotational constants (GHZ):           1.09964     0.49589     0.41227
 Zero-point vibrational energy     717951.3 (Joules/Mol)
                                  171.59449 (Kcal/Mol)
 Warning -- explicit consideration of  23 degrees of freedom as
           vibrations may cause significant error
 Vibrational temperatures:     39.04    61.82    94.98   107.68   131.02
          (Kelvin)            179.71   251.38   276.17   290.06   327.30
                              340.77   382.41   414.19   446.27   478.38
                              528.63   584.20   615.89   681.52   727.03
                              745.60   842.31   882.31   905.06   938.47
                              940.02  1073.63  1180.55  1199.23  1208.06
                             1319.49  1348.53  1399.24  1407.81  1426.60
                             1455.39  1544.60  1604.45  1619.43  1622.84
                             1645.57  1684.85  1703.50  1809.76  1821.74
                             1841.97  1888.23  1896.24  1957.27  1974.19
                             2003.38  2013.09  2025.07  2049.84  2073.73
                             2079.49  2122.62  2129.15  2158.00  2168.29
                             2173.31  2174.21  2194.65  2206.51  2216.71
                             2233.18  2239.79  2568.90  3225.87  4335.81
                             4352.53  4355.85  4372.62  4378.98  4383.61
                             4400.33  4411.05  4413.00  4426.46  4430.85
                             4446.55  4462.79  4468.59  4470.86  4515.35
                             5026.83  5146.17

 Zero-point correction=                           0.273453 (Hartree/Particle)
 Thermal correction to Energy=                    0.288708
 Thermal correction to Enthalpy=                  0.289652
 Thermal correction to Gibbs Free Energy=         0.230470
 Sum of electronic and zero-point Energies=           -576.326726
 Sum of electronic and thermal Energies=              -576.311471
 Sum of electronic and thermal Enthalpies=            -576.310527
 Sum of electronic and thermal Free Energies=         -576.369709

                     E (Thermal)             CV                S
                      KCal/Mol        Cal/Mol-Kelvin    Cal/Mol-Kelvin
 Total                  181.167             55.860            124.560
 Electronic               0.000              0.000              0.000
 Translational            0.889              2.981             41.505
 Rotational               0.889              2.981             31.636
 Vibrational            179.390             49.899             51.418
 Vibration     1          0.593              1.984              6.028
 Vibration     2          0.595              1.980              5.117
 Vibration     3          0.597              1.970              4.269
 Vibration     4          0.599              1.966              4.022
 Vibration     5          0.602              1.956              3.637
 Vibration     6          0.610              1.928              3.023
 Vibration     7          0.627              1.874              2.384
 Vibration     8          0.634              1.851              2.209
 Vibration     9          0.638              1.838              2.118
 Vibration    10          0.651              1.799              1.899
 Vibration    11          0.656              1.784              1.826
 Vibration    12          0.672              1.736              1.623
 Vibration    13          0.685              1.696              1.486
 Vibration    14          0.699              1.654              1.361
 Vibration    15          0.714              1.611              1.248
 Vibration    16          0.740              1.539              1.091
 Vibration    17          0.771              1.457              0.941
 Vibration    18          0.790              1.409              0.865
 Vibration    19          0.830              1.308              0.727
 Vibration    20          0.861              1.238              0.645
 Vibration    21          0.873              1.210              0.614
 Vibration    22          0.942              1.063              0.475
 Vibration    23          0.973              1.004              0.427

 Optimization completed.
    -- Stationary point found.
 Normal termination of Gaussian 16 at Sun Dec 13 20:25:29 2020.

 ----------------------------------------------------------------------
 # B3LYP/6-311++G(d,p) empiricaldispersion=gd3bj scf=xqc pop=npa geom=c
 heck
 ----------------------------------------------------------------------

 --------------------------------------
 CID_78912616_JID_3976_Energie_neutraal
 --------------------------------------
 Structure from the checkpoint file:  "JID_3976.chk"
 Charge =  0 Multiplicity = 1

 SCF Done:  E(RB3LYP) =  -576.771901663     A.U. after   14 cycles
 Normal termination of Gaussian 16 at Sun Dec 13 20:29:21 2020.

 ----------------------------------------------------------------------
 # B3LYP/6-311++G(d,p) empiricaldispersion=gd3bj scf=xqc pop=npa geom=c
 heck
 ----------------------------------------------------------------------

 ------------------------------------
 CID_78912616_JID_3976_Energie_kation
 ------------------------------------
 Structure from the checkpoint file:  "JID_3976.chk"
 Charge =  1 Multiplicity = 2

 SCF Done:  E(UB3LYP) =  -576.491617186     A.U. after   20 cycles
 Normal termination of Gaussian 16 at Sun Dec 13 20:36:56 2020.
 Gaussian 16:  ES64L-G16RevA.03 25-Dec-2016

 ----------------------------------------------------------------------
 # B3LYP/6-311++G(d,p) empiricaldispersion=gd3bj scf=xqc pop=npa geom=c
 heck
 ----------------------------------------------------------------------

 -----------------------------------
 CID_78912616_JID_3976_Energie_anion
 -----------------------------------
 Structure from the checkpoint file:  "JID_3976.chk"
 Charge = -1 Multiplicity = 2

                         Standard orientation:
 ---------------------------------------------------------------------
 Center     Atomic      Atomic             Coordinates (Angstroms)
 Number     Number       Type             X           Y           Z
 ---------------------------------------------------------------------
      1          6           0       -2.801770   -1.877608    0.601894
      2          6           0       -2.245335   -1.430576   -0.753676
      3          6           0       -2.570339    0.032168   -1.114372
      4          6           0       -2.090823    1.129694   -0.150260
      5          7           0       -0.737725    1.635167   -0.416774
      6          6           0       -0.401851    2.756124    0.453517
      7          6           0        0.316629    0.653308   -0.515594
      8          6           0        0.558603   -0.215464    0.729338
      9          8           0       -0.020805   -0.040741    1.793171
     10          7           0        1.450762   -1.257573    0.583214
     11          6           0        2.426600   -1.387368   -0.494905
     12          6           0        3.517428   -0.403792   -0.444037
     13          6           0        4.393903    0.424149   -0.390588
     14          1           0       -2.302782   -1.361522    1.427077
     15          1           0       -2.653929   -2.953974    0.746533
     16          1           0       -3.878222   -1.676384    0.672304
     17          1           0       -1.165342   -1.616445   -0.769264
     18          1           0       -2.666802   -2.066363   -1.544226
     19          1           0       -2.196951    0.265682   -2.120569
     20          1           0       -3.664339    0.111546   -1.173331
     21          1           0       -2.752378    1.996734   -0.272103
     22          1           0       -2.200771    0.795674    0.891510
     23          1           0       -0.367373    2.490779    1.520846
     24          1           0        0.575146    3.160192    0.163573
     25          1           0       -1.146532    3.548914    0.316329
     26          1           0        0.120264   -0.003339   -1.370843
     27          1           0        1.255349    1.174041   -0.748156
     28          1           0        1.683163   -1.700727    1.465162
     29          1           0        2.836350   -2.402120   -0.447975
     30          1           0        1.909374   -1.314626   -1.457686
     31          1           0        5.172685    1.150902   -0.337528
 ---------------------------------------------------------------------

 SCF Done:  E(UB3LYP) =  -576.760231470     A.U. after   33 cycles
 SCF Done:  E(UB3LYP) =  -576.760231470     a.u. after    1 cycles

 The electronic state is 2-A.
 Alpha  occ. eigenvalues --  -18.99653 -14.24150 -14.21082 -10.17746 -10.13745
 Alpha  occ. eigenvalues --  -10.10733 -10.09313 -10.09052 -10.08283 -10.07294
 Alpha  occ. eigenvalues --  -10.07243 -10.06827 -10.05903  -0.94735  -0.83222
 Alpha  occ. eigenvalues --   -0.82851  -0.69667  -0.67985  -0.64428  -0.62467
 Alpha  occ. eigenvalues --   -0.61107  -0.56582  -0.52807  -0.48734  -0.45979
 Alpha  occ. eigenvalues --   -0.44402  -0.41004  -0.40510  -0.39872  -0.38195
 Alpha  occ. eigenvalues --   -0.38006  -0.35277  -0.34335  -0.33693  -0.32718
 Alpha  occ. eigenvalues --   -0.32123  -0.30153  -0.30054  -0.28593  -0.27718
 Alpha  occ. eigenvalues --   -0.26817  -0.26702  -0.23800  -0.23027  -0.22595
 Alpha  occ. eigenvalues --   -0.19737  -0.18391  -0.17565  -0.16698  -0.11506
 Alpha  occ. eigenvalues --    0.04314
 Alpha virt. eigenvalues --    0.06398   0.06729   0.07774   0.07920   0.08810
 Alpha virt. eigenvalues --    0.09517   0.09903   0.10208   0.10418   0.11074
 Alpha virt. eigenvalues --    0.11537   0.11653   0.12569   0.12833   0.13039

  Beta  occ. eigenvalues --  -18.99652 -14.24129 -14.21079 -10.17748 -10.13681
  Beta  occ. eigenvalues --  -10.10709 -10.09311 -10.09045 -10.08282 -10.07254
  Beta  occ. eigenvalues --  -10.07234 -10.06808 -10.05894  -0.94730  -0.83185
  Beta  occ. eigenvalues --   -0.82840  -0.69644  -0.67919  -0.64396  -0.62447
  Beta  occ. eigenvalues --   -0.61021  -0.56558  -0.52774  -0.48688  -0.45928
  Beta  occ. eigenvalues --   -0.44336  -0.40933  -0.40473  -0.39841  -0.38139
  Beta  occ. eigenvalues --   -0.37968  -0.35258  -0.34318  -0.33666  -0.32671
  Beta  occ. eigenvalues --   -0.32095  -0.30137  -0.30032  -0.28581  -0.27699
  Beta  occ. eigenvalues --   -0.26800  -0.26687  -0.23776  -0.22999  -0.22575
  Beta  occ. eigenvalues --   -0.19683  -0.18351  -0.17547  -0.16672  -0.11493
  Beta virt. eigenvalues --    0.06388   0.07154   0.07523   0.08387   0.08499
  Beta virt. eigenvalues --    0.09032   0.09667   0.10134   0.10600   0.10665
  Beta virt. eigenvalues --    0.11207   0.11595   0.11689   0.12674   0.12931

 Mulliken charges and spin densities:
               1          2
     1  C   -0.080027  -0.529773
     2  C   -0.213489   0.265582
     3  C    0.004179  -0.458346
     4  C   -0.047033  -0.231040
     5  N    0.183962   0.061865
     6  C   -0.030990  -0.242758
     7  C    0.124457  -0.792772
     8  C   -0.304153   0.082327
     9  O   -0.294673   0.017317
    10  N   -0.211025   0.224201
    11  C    2.891245  -3.539843
    12  C    5.782015  -3.949916
    13  C   -6.621327   4.963570
    14  H    0.108218   0.051296
    15  H   -0.082183   0.213148
    16  H    0.098547   0.017574
    17  H    0.051709   0.099500
    18  H   -0.335327   0.510744
    19  H    0.068499   0.084300
    20  H    0.025347   0.117478
    21  H    0.046483   0.065047
    22  H    0.185478  -0.033538
    23  H    0.129455   0.029499
    24  H   -0.029911   0.148870
    25  H    0.088384   0.039709
    26  H   -0.235269   0.478880
    27  H    0.451963  -0.301944
    28  H   -0.112960   0.422313
    29  H   -1.258567   1.498871
    30  H   -0.132890   0.288700
    31  H   -1.250116   1.399139
 Sum of Mulliken charges =  -1.00000   1.00000

 Dipole moment (field-independent basis, Debye):
    X=             -7.2786    Y=              4.7874    Z=              1.2086  Tot=              8.7953
 Quadrupole moment (field-independent basis, Debye-Ang):
   XX=           -157.4872   YY=           -129.9005   ZZ=           -117.1719
   XY=              4.4113   XZ=              2.4774   YZ=             -1.7379

 Summary of Natural Population Analysis:

                                       Natural Population
                Natural  -----------------------------------------------
    Atom  No    Charge         Core      Valence    Rydberg      Total
 -----------------------------------------------------------------------
      C    1   -0.29089      0.99966     2.28501    0.00623     3.29089
      C    2   -0.19284      0.99964     2.18513    0.00808     3.19284
      C    3   -0.19750      0.99962     2.18902    0.00885     3.19750
      C    4   -0.08523      0.99960     2.07606    0.00957     3.08523
      N    5   -0.27608      0.99973     2.76406    0.01228     3.77608
      C    6   -0.17649      0.99964     2.17015    0.00669     3.17649
      C    7   -0.13731      0.99956     2.12504    0.01271     3.13731
      C    8    0.34158      0.99967     1.63546    0.02329     2.65842
      O    9   -0.32320      0.99987     3.31775    0.00558     4.32320
      N   10   -0.31677      0.99968     2.80442    0.01266     3.81677
      C   11   -0.13248      0.99954     2.11824    0.01470     3.13248
      C   12   -0.01126      0.99934     2.00305    0.00887     3.01126
      C   13   -0.10764      0.99926     2.10485    0.00353     3.10764
      H   14    0.10617      0.00000     0.39274    0.00109     0.39383
      H   15    0.09945      0.00000     0.39981    0.00074     0.40055
      H   16    0.08994      0.00000     0.40923    0.00083     0.41006
      H   17    0.09572      0.00000     0.40195    0.00233     0.40428
      H   18    0.09471      0.00000     0.40408    0.00121     0.40529
      H   19    0.10080      0.00000     0.39791    0.00129     0.39920
      H   20    0.09533      0.00000     0.40380    0.00087     0.40467
      H   21    0.09006      0.00000     0.40870    0.00124     0.40994
      H   22    0.09258      0.00000     0.40600    0.00142     0.40742
      H   23    0.09176      0.00000     0.40677    0.00147     0.40824
      H   24    0.09334      0.00000     0.40568    0.00099     0.40666
      H   25    0.08925      0.00000     0.40963    0.00112     0.41075
      H   26    0.10742      0.00000     0.39005    0.00253     0.39258
      H   27    0.11355      0.00000     0.38473    0.00172     0.38645
      H   28    0.19648      0.00000     0.30043    0.00309     0.30352
      H   29    0.12308      0.00000     0.36861    0.00830     0.37692
      H   30    0.11385      0.00000     0.38346    0.00269     0.38615
      H   31    0.11260      0.00000     0.38497    0.00243     0.38740
 =======================================================================
   * Total *    0.00000     12.99483    36.83676    0.16841    50.00000

 Normal termination of Gaussian 16 at Sun Dec 13 20:48:27 2020.
