 Gaussian 16, Revision A.03,

 -----------------------------------------------------------
 # opt freq B3LYP/6-31G(d) empiricaldispersion=gd3bj scf=xqc
 -----------------------------------------------------------

 ------------------------------
 CID_55000874_JID_9682_neutraal
 ------------------------------
 Symbolic Z-matrix:
 Charge =  0 Multiplicity = 1

 SCF Done:  E(RB3LYP) =  -846.063050748     A.U. after   15 cycles
 SCF Done:  E(RB3LYP) =  -846.066248653     A.U. after   12 cycles
 SCF Done:  E(RB3LYP) =  -846.066172257     A.U. after   12 cycles
 SCF Done:  E(RB3LYP) =  -846.065891360     A.U. after   12 cycles
 SCF Done:  E(RB3LYP) =  -846.064936554     A.U. after   12 cycles
 SCF Done:  E(RB3LYP) =  -846.066541336     A.U. after    9 cycles
 SCF Done:  E(RB3LYP) =  -846.067757123     A.U. after   12 cycles
 SCF Done:  E(RB3LYP) =  -846.067342045     A.U. after   12 cycles
 SCF Done:  E(RB3LYP) =  -846.068280224     A.U. after   12 cycles
 SCF Done:  E(RB3LYP) =  -846.068528034     A.U. after   11 cycles
 SCF Done:  E(RB3LYP) =  -846.072030962     A.U. after    9 cycles
 SCF Done:  E(RB3LYP) =  -846.072028787     A.U. after    9 cycles
 SCF Done:  E(RB3LYP) =  -846.072031725     A.U. after    9 cycles
 SCF Done:  E(RB3LYP) =  -846.072031849     A.U. after    7 cycles
 SCF Done:  E(RB3LYP) =  -846.072031877     A.U. after    7 cycles
 Optimization completed.
    -- Stationary point found.
 Normal termination of Gaussian 16 at Sun Dec 13 13:27:20 2020.

 --------------------------------------------------------------------
 #N Geom=AllCheck Guess=TCheck SCRF=Check GenChk RB3LYP/6-31G(d) Freq
 --------------------------------------------------------------------

 Structure from the checkpoint file:  "JID_9682.chk"
 ------------------------------
 CID_55000874_JID_9682_neutraal
 ------------------------------
 Charge =  0 Multiplicity = 1

 SCF Done:  E(RB3LYP) =  -846.072031877     A.U. after    1 cycles

  Exact polarizability: 225.981   1.691 169.271 -15.366  -6.564 131.630
 Approx polarizability: 292.232   5.310 260.731 -32.835 -22.771 208.475

                      1                      2                      3
                      A                      A                      A
 Frequencies --     23.7591                30.2368                33.3892
 Red. masses --      4.4647                 4.1272                 3.5154
 Frc consts  --      0.0015                 0.0022                 0.0023
 IR Inten    --      0.2792                 0.2915                 0.5267

                      4                      5                      6
                      A                      A                      A
 Frequencies --     54.5745                65.6303                80.6852
 Red. masses --      3.6798                 3.2615                 2.1138
 Frc consts  --      0.0065                 0.0083                 0.0081
 IR Inten    --      0.2816                 0.2947                 0.2713

                      7                      8                      9
                      A                      A                      A
 Frequencies --     95.1960                96.8481               113.8132
 Red. masses --      2.6255                 3.0479                 3.4665
 Frc consts  --      0.0140                 0.0168                 0.0265
 IR Inten    --      6.1447                 2.0249                 4.2201

                     10                     11                     12
                      A                      A                      A
 Frequencies --    131.6242               165.4791               178.8190
 Red. masses --      2.9128                 1.8691                 3.4597
 Frc consts  --      0.0297                 0.0302                 0.0652
 IR Inten    --      0.0890                 1.3435                 1.0040

                     13                     14                     15
                      A                      A                      A
 Frequencies --    188.7000               209.4095               214.0481
 Red. masses --      3.0077                 1.2124                 3.0593
 Frc consts  --      0.0631                 0.0313                 0.0826
 IR Inten    --      3.3402                 1.4790                 3.4948

                     16                     17                     18
                      A                      A                      A
 Frequencies --    229.3837               251.0412               265.1395
 Red. masses --      2.5167                 1.7240                 3.3872
 Frc consts  --      0.0780                 0.0640                 0.1403
 IR Inten    --      5.3424                 0.7941                 2.3595

                     19                     20                     21
                      A                      A                      A
 Frequencies --    295.1664               359.1647               376.1202
 Red. masses --      1.9469                 3.1146                 2.2910
 Frc consts  --      0.0999                 0.2367                 0.1910
 IR Inten    --      0.2731                 1.4757                 2.4776

                     22                     23                     24
                      A                      A                      A
 Frequencies --    402.0561               420.1066               429.3549
 Red. masses --      3.7630                 3.1647                 2.2410
 Frc consts  --      0.3584                 0.3291                 0.2434
 IR Inten    --      0.0462                 0.2519                 4.6594

                     25                     26                     27
                      A                      A                      A
 Frequencies --    448.1245               478.5523               499.8150
 Red. masses --      2.9559                 2.9501                 2.8822
 Frc consts  --      0.3497                 0.3981                 0.4242
 IR Inten    --      3.2783                 7.1200                30.0496

                     28                     29                     30
                      A                      A                      A
 Frequencies --    520.0873               532.5629               563.0099
 Red. masses --      2.8376                 2.4814                 4.7826
 Frc consts  --      0.4522                 0.4147                 0.8932
 IR Inten    --     10.9888                14.5390                10.7363

                     31                     32                     33
                      A                      A                      A
 Frequencies --    614.7186               634.6587               656.7690
 Red. masses --      2.7613                 6.3376                 1.8843
 Frc consts  --      0.6148                 1.5040                 0.4789
 IR Inten    --     52.5647                 1.3100                44.3564

                     34                     35                     36
                      A                      A                      A
 Frequencies --    704.1867               714.4268               757.5115
 Red. masses --      2.7046                 2.1867                 3.3829
 Frc consts  --      0.7902                 0.6576                 1.1437
 IR Inten    --      2.1241                19.5779                11.3705

                     37                     38                     39
                      A                      A                      A
 Frequencies --    764.9370               797.9363               833.3936
 Red. masses --      1.6829                 1.3693                 2.2083
 Frc consts  --      0.5802                 0.5137                 0.9037
 IR Inten    --     61.5740                 3.8861                 6.6884

                     40                     41                     42
                      A                      A                      A
 Frequencies --    836.2546               841.4557               866.9684
 Red. masses --      1.2846                 3.6480                 2.1450
 Frc consts  --      0.5293                 1.5219                 0.9499
 IR Inten    --      1.1436                15.8184                 5.4976

                     43                     44                     45
                      A                      A                      A
 Frequencies --    892.0738               945.1458               954.4357
 Red. masses --      1.4413                 2.2832                 1.3231
 Frc consts  --      0.6758                 1.2017                 0.7101
 IR Inten    --      9.0826                13.2539                 0.4902

                     46                     47                     48
                      A                      A                      A
 Frequencies --    967.1830               983.1504               987.3531
 Red. masses --      1.8678                 1.2393                 1.2659
 Frc consts  --      1.0294                 0.7058                 0.7271
 IR Inten    --      7.3628                 2.0536                 7.9801

                     49                     50                     51
                      A                      A                      A
 Frequencies --   1000.7870              1008.7260              1011.2875
 Red. masses --      2.7206                 2.1684                 4.1631
 Frc consts  --      1.6055                 1.3000                 2.5085
 IR Inten    --     25.6309                 6.7177                 2.2531

                     52                     53                     54
                      A                      A                      A
 Frequencies --   1027.1920              1056.9126              1061.9396
 Red. masses --      2.0156                 2.8049                 2.3495
 Frc consts  --      1.2530                 1.8461                 1.5611
 IR Inten    --     16.8197                 8.2906                 1.3155

                     55                     56                     57
                      A                      A                      A
 Frequencies --   1096.6949              1107.4908              1131.2145
 Red. masses --      2.7180                 2.0156                 1.7469
 Frc consts  --      1.9261                 1.4566                 1.3171
 IR Inten    --     19.6278                36.0032                 9.6603

                     58                     59                     60
                      A                      A                      A
 Frequencies --   1155.3700              1167.9735              1170.4910
 Red. masses --      2.3323                 2.7365                 2.3461
 Frc consts  --      1.8343                 2.1994                 1.8938
 IR Inten    --     65.7003                21.3587                21.8668

                     61                     62                     63
                      A                      A                      A
 Frequencies --   1186.8208              1190.2318              1193.0836
 Red. masses --      2.0831                 1.4275                 1.0885
 Frc consts  --      1.7287                 1.1915                 0.9129
 IR Inten    --      2.1890                 6.3324                 1.4145

                     64                     65                     66
                      A                      A                      A
 Frequencies --   1220.9343              1226.2703              1244.6930
 Red. masses --      1.2289                 1.5341                 2.4789
 Frc consts  --      1.0793                 1.3592                 2.2628
 IR Inten    --     18.1966                31.6750                26.0886

                     67                     68                     69
                      A                      A                      A
 Frequencies --   1263.0176              1292.3873              1301.8287
 Red. masses --      1.3087                 2.2324                 1.4221
 Frc consts  --      1.2300                 2.1969                 1.4200
 IR Inten    --     43.2338               151.3025                25.3596

                     70                     71                     72
                      A                      A                      A
 Frequencies --   1312.7685              1332.0731              1358.1700
 Red. masses --      1.3261                 1.1920                 1.3934
 Frc consts  --      1.3465                 1.2462                 1.5144
 IR Inten    --      3.5800                19.2268                30.3606

                     73                     74                     75
                      A                      A                      A
 Frequencies --   1361.2803              1377.6109              1384.0809
 Red. masses --      2.6238                 1.4583                 1.4583
 Frc consts  --      2.8646                 1.6307                 1.6459
 IR Inten    --     25.2095                 3.5285                26.2019

                     76                     77                     78
                      A                      A                      A
 Frequencies --   1394.1222              1410.8403              1414.2325
 Red. masses --      1.4334                 1.5433                 1.3292
 Frc consts  --      1.6414                 1.8099                 1.5664
 IR Inten    --      4.0701                52.6859                21.2511

                     79                     80                     81
                      A                      A                      A
 Frequencies --   1423.5431              1432.5628              1442.2671
 Red. masses --      1.2868                 1.3365                 1.2321
 Frc consts  --      1.5364                 1.6161                 1.5100
 IR Inten    --     15.1848                43.4143                 3.1924

                     82                     83                     84
                      A                      A                      A
 Frequencies --   1484.3970              1494.5211              1497.7897
 Red. masses --      1.7889                 1.9096                 1.1280
 Frc consts  --      2.3225                 2.5131                 1.4909
 IR Inten    --     13.9225                64.0920                 0.9734

                     85                     86                     87
                      A                      A                      A
 Frequencies --   1514.6216              1517.2789              1522.9151
 Red. masses --      1.0694                 1.0652                 1.0807
 Frc consts  --      1.4454                 1.4448                 1.4767
 IR Inten    --      6.9164                 4.4485                 6.1776

                     88                     89                     90
                      A                      A                      A
 Frequencies --   1524.6411              1527.1475              1534.3127
 Red. masses --      1.1136                 1.1020                 1.0576
 Frc consts  --      1.5251                 1.5143                 1.4668
 IR Inten    --     12.8546                 2.1547                 2.4141

                     91                     92                     93
                      A                      A                      A
 Frequencies --   1540.8222              1543.3127              1544.2532
 Red. masses --      1.0665                 1.0987                 1.1067
 Frc consts  --      1.4918                 1.5418                 1.5550
 IR Inten    --     11.4102                10.5843                 3.0195

                     94                     95                     96
                      A                      A                      A
 Frequencies --   1547.3884              1549.4046              1565.5762
 Red. masses --      1.0969                 1.7080                 1.8295
 Frc consts  --      1.5475                 2.4158                 2.6420
 IR Inten    --      5.5182                15.2704               105.2781

                     97                     98                     99
                      A                      A                      A
 Frequencies --   1648.4476              1670.5049              1748.8844
 Red. masses --      4.7311                 5.4914                 9.1624
 Frc consts  --      7.5746                 9.0287                16.5113
 IR Inten    --      6.1217               124.4565               262.8237

                    100                    101                    102
                      A                      A                      A
 Frequencies --   3011.5518              3021.0801              3037.5416
 Red. masses --      1.0481                 1.0548                 1.0808
 Frc consts  --      5.6005                 5.6722                 5.8756
 IR Inten    --     26.0267                68.9347                 5.8640

                    103                    104                    105
                      A                      A                      A
 Frequencies --   3043.1116              3044.4635              3052.6520
 Red. masses --      1.0423                 1.0675                 1.0717
 Frc consts  --      5.6870                 5.8296                 5.8841
 IR Inten    --     35.4765                18.6914                52.9200

                    106                    107                    108
                      A                      A                      A
 Frequencies --   3055.5252              3067.9879              3078.4006
 Red. masses --      1.0765                 1.0401                 1.1018
 Frc consts  --      5.9213                 5.7682                 6.1519
 IR Inten    --     35.4569                31.6350                47.3943

                    109                    110                    111
                      A                      A                      A
 Frequencies --   3083.4410              3101.5763              3119.7539
 Red. masses --      1.0957                 1.0959                 1.1009
 Frc consts  --      6.1381                 6.2114                 6.3130
 IR Inten    --     34.8817                16.1086                47.8045

                    112                    113                    114
                      A                      A                      A
 Frequencies --   3126.6967              3131.2595              3140.5441
 Red. masses --      1.0985                 1.0989                 1.1012
 Frc consts  --      6.3275                 6.3483                 6.3993
 IR Inten    --     24.9644                35.2277                25.5153

                    115                    116                    117
                      A                      A                      A
 Frequencies --   3167.0703              3173.5488              3175.7362
 Red. masses --      1.0872                 1.0920                 1.0997
 Frc consts  --      6.4251                 6.4796                 6.5346
 IR Inten    --     14.8902                 0.6963                 6.3983

                    118                    119                    120
                      A                      A                      A
 Frequencies --   3176.7223              3183.5295              3191.9038
 Red. masses --      1.0908                 1.0867                 1.0917
 Frc consts  --      6.4859                 6.4887                 6.5530
 IR Inten    --      2.8278                 1.2968                31.3636

                    121                    122                    123
                      A                      A                      A
 Frequencies --   3208.5077              3214.3283              3567.9582
 Red. masses --      1.0926                 1.0959                 1.0751
 Frc consts  --      6.6269                 6.6710                 8.0641
 IR Inten    --     24.0071                 9.7211                 9.9773

 - Thermochemistry -
 -------------------
 Temperature   298.150 Kelvin.  Pressure   1.00000 Atm.
 Atom     1 has atomic number  6 and mass  12.00000

 Molecular mass:   264.18378 amu.
 Principal axes and moments of inertia in atomic units:
                           1         2         3
     Eigenvalues --  2890.420588904.80672**********
           X            0.99997   0.00410   0.00604
           Y           -0.00425   0.99964   0.02643
           Z           -0.00593  -0.02646   0.99963
 This molecule is an asymmetric top.
 Rotational symmetry number  1.
 Warning -- assumption of classical behavior for rotation
           may cause significant error
 Rotational temperatures (Kelvin)      0.02997     0.00973     0.00849
 Rotational constants (GHZ):           0.62439     0.20267     0.17688
 Zero-point vibrational energy     995379.5 (Joules/Mol)
                                  237.90142 (Kcal/Mol)
 Warning -- explicit consideration of  31 degrees of freedom as
           vibrations may cause significant error
 Vibrational temperatures:     34.18    43.50    48.04    78.52    94.43
          (Kelvin)            116.09   136.97   139.34   163.75   189.38
                              238.09   257.28   271.50   301.29   307.97
                              330.03   361.19   381.48   424.68   516.76
                              541.15   578.47   604.44   617.75   644.75
                              688.53   719.12   748.29   766.24   810.05
                              884.44   913.13   944.94  1013.17  1027.90
                             1089.89  1100.57  1148.05  1199.07  1203.18
                             1210.67  1247.37  1283.50  1359.85  1373.22
                             1391.56  1414.53  1420.58  1439.91  1451.33
                             1455.02  1477.90  1520.66  1527.89  1577.90
                             1593.43  1627.57  1662.32  1680.45  1684.08
                             1707.57  1712.48  1716.58  1756.65  1764.33
                             1790.84  1817.20  1859.46  1873.04  1888.78
                             1916.56  1954.10  1958.58  1982.07  1991.38
                             2005.83  2029.88  2034.77  2048.16  2061.14
                             2075.10  2135.72  2150.28  2154.99  2179.20
                             2183.03  2191.14  2193.62  2197.22  2207.53
                             2216.90  2220.48  2221.84  2226.35  2229.25
                             2252.51  2371.75  2403.48  2516.25  4332.95
                             4346.66  4370.34  4378.36  4380.30  4392.09
                             4396.22  4414.15  4429.13  4436.38  4462.48
                             4488.63  4498.62  4505.18  4518.54  4556.71
                             4566.03  4569.18  4570.59  4580.39  4592.44
                             4616.33  4624.70  5133.50

 Zero-point correction=                           0.379120 (Hartree/Particle)
 Thermal correction to Energy=                    0.399578
 Thermal correction to Enthalpy=                  0.400522
 Thermal correction to Gibbs Free Energy=         0.328195
 Sum of electronic and zero-point Energies=           -845.692912
 Sum of electronic and thermal Energies=              -845.672454
 Sum of electronic and thermal Enthalpies=            -845.671510
 Sum of electronic and thermal Free Energies=         -845.743837

                     E (Thermal)             CV                S
                      KCal/Mol        Cal/Mol-Kelvin    Cal/Mol-Kelvin
 Total                  250.739             75.819            152.226
 Electronic               0.000              0.000              0.000
 Translational            0.889              2.981             42.614
 Rotational               0.889              2.981             33.929
 Vibrational            248.962             69.857             75.684
 Vibration     1          0.593              1.985              6.292
 Vibration     2          0.594              1.984              5.814
 Vibration     3          0.594              1.983              5.617
 Vibration     4          0.596              1.976              4.644
 Vibration     5          0.597              1.971              4.280
 Vibration     6          0.600              1.962              3.874
 Vibration     7          0.603              1.953              3.550
 Vibration     8          0.603              1.951              3.517
 Vibration     9          0.607              1.938              3.203
 Vibration    10          0.612              1.922              2.922
 Vibration    11          0.624              1.885              2.486
 Vibration    12          0.629              1.868              2.341
 Vibration    13          0.633              1.855              2.241
 Vibration    14          0.642              1.826              2.049
 Vibration    15          0.644              1.820              2.009
 Vibration    16          0.652              1.796              1.884
 Vibration    17          0.663              1.761              1.723
 Vibration    18          0.671              1.737              1.628
 Vibration    19          0.689              1.683              1.444
 Vibration    20          0.734              1.556              1.126
 Vibration    21          0.747              1.521              1.055
 Vibration    22          0.768              1.466              0.955
 Vibration    23          0.783              1.427              0.892
 Vibration    24          0.791              1.406              0.861
 Vibration    25          0.807              1.365              0.801
 Vibration    26          0.835              1.298              0.714
 Vibration    27          0.855              1.250              0.659
 Vibration    28          0.875              1.206              0.610
 Vibration    29          0.888              1.178              0.582
 Vibration    30          0.919              1.111              0.518
 Vibration    31          0.974              1.001              0.425

 Optimization completed.
    -- Stationary point found.
 Normal termination of Gaussian 16 at Sun Dec 13 13:52:29 2020.

 ----------------------------------------------------------------------
 # B3LYP/6-311++G(d,p) empiricaldispersion=gd3bj scf=xqc pop=npa geom=c
 heck
 ----------------------------------------------------------------------

 --------------------------------------
 CID_55000874_JID_9682_Energie_neutraal
 --------------------------------------
 Structure from the checkpoint file:  "JID_9682.chk"
 Charge =  0 Multiplicity = 1

 SCF Done:  E(RB3LYP) =  -846.312012303     A.U. after   16 cycles
 Normal termination of Gaussian 16 at Sun Dec 13 14:04:48 2020.

 ----------------------------------------------------------------------
 # B3LYP/6-311++G(d,p) empiricaldispersion=gd3bj scf=xqc pop=npa geom=c
 heck
 ----------------------------------------------------------------------

 ------------------------------------
 CID_55000874_JID_9682_Energie_kation
 ------------------------------------
 Structure from the checkpoint file:  "JID_9682.chk"
 Charge =  1 Multiplicity = 2

 SCF Done:  E(UB3LYP) =  -846.040340081     A.U. after   26 cycles
 Normal termination of Gaussian 16 at Sun Dec 13 14:33:11 2020.
 Gaussian 16:  ES64L-G16RevA.03 25-Dec-2016

 ----------------------------------------------------------------------
 # B3LYP/6-311++G(d,p) empiricaldispersion=gd3bj scf=xqc pop=npa geom=c
 heck
 ----------------------------------------------------------------------

 -----------------------------------
 CID_55000874_JID_9682_Energie_anion
 -----------------------------------
 Structure from the checkpoint file:  "JID_9682.chk"
 Charge = -1 Multiplicity = 2

                         Standard orientation:
 ---------------------------------------------------------------------
 Center     Atomic      Atomic             Coordinates (Angstroms)
 Number     Number       Type             X           Y           Z
 ---------------------------------------------------------------------
      1          6           0       -4.683018   -2.011125   -1.189424
      2          6           0       -3.288352   -1.737140   -0.621477
      3          6           0       -2.976363   -0.239447   -0.451859
      4          6           0       -3.905533    0.480359    0.531406
      5          7           0       -1.543528   -0.036891   -0.129628
      6          6           0       -0.701969    0.503657   -1.196988
      7          6           0       -0.700369    2.029511   -1.286766
      8          8           0       -0.060347    2.646681   -0.176195
      9          6           0       -0.935875    3.125131    0.832024
     10          6           0       -1.046128   -0.451700    1.075800
     11          8           0       -1.743262   -0.988734    1.936333
     12          6           0        0.441784   -0.205895    1.359878
     13          7           0        1.284658   -1.103540    0.579172
     14          6           0        2.599520   -0.766681    0.231960
     15          6           0        3.554685   -1.788924    0.091618
     16          6           0        4.850873   -1.500777   -0.323538
     17          6           0        5.232718   -0.186966   -0.601426
     18          6           0        4.288494    0.830365   -0.462457
     19          6           0        2.984235    0.555839   -0.054146
     20          1           0       -5.472901   -1.702791   -0.496590
     21          1           0       -4.817546   -3.080441   -1.384562
     22          1           0       -4.842191   -1.478653   -2.136133
     23          1           0       -3.165492   -2.228041    0.347803
     24          1           0       -2.530813   -2.161827   -1.293587
     25          1           0       -3.109012    0.237457   -1.430876
     26          1           0       -3.846997    0.027513    1.521852
     27          1           0       -3.629981    1.537094    0.612346
     28          1           0       -4.939334    0.432136    0.175285
     29          1           0        0.316986    0.138757   -1.077287
     30          1           0       -1.062514    0.099149   -2.151649
     31          1           0       -0.132844    2.320928   -2.179403
     32          1           0       -1.724768    2.414350   -1.399076
     33          1           0       -1.687249    3.809997    0.411439
     34          1           0       -1.455474    2.314177    1.356886
     35          1           0       -0.318561    3.675133    1.546936
     36          1           0        0.695994    0.823901    1.115635
     37          1           0        0.568085   -0.348637    2.440321
     38          1           0        1.187672   -2.069442    0.869275
     39          1           0        3.269811   -2.815734    0.311983
     40          1           0        5.568933   -2.310692   -0.421519
     41          1           0        6.245941    0.038438   -0.919459
     42          1           0        4.564056    1.859495   -0.677628
     43          1           0        2.270942    1.369926    0.022473
 ---------------------------------------------------------------------

 SCF Done:  E(UB3LYP) =  -846.300516016     A.U. after   33 cycles
 SCF Done:  E(UB3LYP) =  -846.300516016     a.u. after    1 cycles

 The electronic state is 2-A.
 Alpha  occ. eigenvalues --  -19.04539 -18.99779 -14.25261 -14.24475 -10.18130
 Alpha  occ. eigenvalues --  -10.13366 -10.13200 -10.12990 -10.12179 -10.12011
 Alpha  occ. eigenvalues --  -10.11587 -10.09227 -10.09152 -10.08744 -10.08417
 Alpha  occ. eigenvalues --  -10.08284 -10.07329 -10.07058 -10.06474  -0.95617
 Alpha  occ. eigenvalues --   -0.94878  -0.85755  -0.84626  -0.76245  -0.71029
 Alpha  occ. eigenvalues --   -0.67707  -0.66734  -0.66239  -0.63635  -0.61375
 Alpha  occ. eigenvalues --   -0.60179  -0.56248  -0.53626  -0.53071  -0.51302
 Alpha  occ. eigenvalues --   -0.50708  -0.45598  -0.44078  -0.42981  -0.41485
 Alpha  occ. eigenvalues --   -0.40923  -0.40123  -0.39134  -0.37638  -0.37542
 Alpha  occ. eigenvalues --   -0.36465  -0.35593  -0.35262  -0.34544  -0.34056
 Alpha  occ. eigenvalues --   -0.33825  -0.32875  -0.31615  -0.31246  -0.30396
 Alpha  occ. eigenvalues --   -0.30072  -0.29425  -0.29309  -0.28218  -0.27745
 Alpha  occ. eigenvalues --   -0.27230  -0.26655  -0.26019  -0.24470  -0.23999
 Alpha  occ. eigenvalues --   -0.23742  -0.21945  -0.19123  -0.17264  -0.16538
 Alpha  occ. eigenvalues --   -0.15059  -0.12434   0.03907
 Alpha virt. eigenvalues --    0.05332   0.06224   0.06672   0.06757   0.07049
 Alpha virt. eigenvalues --    0.07357   0.08067   0.08330   0.08822   0.08874
 Alpha virt. eigenvalues --    0.09267   0.09570   0.09810   0.10577   0.11038

  Beta  occ. eigenvalues --  -19.04532 -18.99767 -14.25266 -14.24466 -10.18117
  Beta  occ. eigenvalues --  -10.13365 -10.13171 -10.12969 -10.12177 -10.11995
  Beta  occ. eigenvalues --  -10.11571 -10.09218 -10.09147 -10.08732 -10.08412
  Beta  occ. eigenvalues --  -10.08276 -10.07321 -10.07031 -10.06455  -0.95602
  Beta  occ. eigenvalues --   -0.94857  -0.85742  -0.84616  -0.76229  -0.71002
  Beta  occ. eigenvalues --   -0.67677  -0.66713  -0.66220  -0.63601  -0.61350
  Beta  occ. eigenvalues --   -0.60146  -0.56206  -0.53571  -0.53037  -0.51270
  Beta  occ. eigenvalues --   -0.50674  -0.45573  -0.44047  -0.42959  -0.41457
  Beta  occ. eigenvalues --   -0.40886  -0.40092  -0.39105  -0.37614  -0.37508
  Beta  occ. eigenvalues --   -0.36438  -0.35574  -0.35244  -0.34519  -0.34032
  Beta  occ. eigenvalues --   -0.33802  -0.32839  -0.31589  -0.31218  -0.30365
  Beta  occ. eigenvalues --   -0.30043  -0.29407  -0.29280  -0.28188  -0.27715
  Beta  occ. eigenvalues --   -0.27197  -0.26621  -0.25999  -0.24438  -0.23966
  Beta  occ. eigenvalues --   -0.23707  -0.21929  -0.19097  -0.17254  -0.16521
  Beta  occ. eigenvalues --   -0.15041  -0.12423
  Beta virt. eigenvalues --    0.05697   0.06264   0.06634   0.06789   0.07059
  Beta virt. eigenvalues --    0.07615   0.07818   0.08111   0.08600   0.09053
  Beta virt. eigenvalues --    0.09180   0.09616   0.09932   0.09990   0.10802

 Mulliken charges and spin densities:
               1          2
     1  C    0.691074  -1.395250
     2  C   -0.627575   0.762120
     3  C   -0.168278  -0.158265
     4  C    0.469120  -0.953456
     5  N    0.437377  -0.029012
     6  C   -0.906595   0.817689
     7  C    1.023941  -1.611560
     8  O   -0.126633   0.039812
     9  C    0.128197  -0.485516
    10  C   -0.564345   0.413838
    11  O   -0.221032   0.007426
    12  C    0.009529  -0.682880
    13  N    0.127372  -0.031436
    14  C   -0.203406  -0.232382
    15  C   -1.883561   1.435866
    16  C    0.495134  -0.727341
    17  C    0.502450  -0.827689
    18  C   -0.709095   0.592792
    19  C    1.527809  -0.952831
    20  H    0.083066   0.056629
    21  H   -0.030034   0.168163
    22  H   -0.341483   0.490201
    23  H    0.095655   0.083050
    24  H    0.008714   0.132959
    25  H    0.082766   0.092069
    26  H    0.151998   0.049651
    27  H   -0.030681   0.140963
    28  H   -0.299757   0.451925
    29  H    0.298473  -0.141219
    30  H   -0.587942   0.770855
    31  H   -0.333941   0.540189
    32  H   -0.239707   0.410923
    33  H   -0.209180   0.359696
    34  H    0.201611  -0.000401
    35  H    0.012212   0.142738
    36  H    0.132389  -0.044378
    37  H    0.131082   0.093548
    38  H    0.263978   0.039866
    39  H   -0.392228   0.514690
    40  H   -0.228893   0.396593
    41  H   -0.059592   0.196520
    42  H   -0.166121   0.349284
    43  H    0.456134  -0.276439
 Sum of Mulliken charges =  -1.00000   1.00000

 Dipole moment (field-independent basis, Debye):
    X=              2.2341    Y=             -0.3285    Z=              3.9584  Tot=              4.5572
 Quadrupole moment (field-independent basis, Debye-Ang):
   XX=           -216.3952   YY=           -166.2957   ZZ=           -164.8250
   XY=              6.8875   XZ=             -7.0678   YZ=              5.2296

 Summary of Natural Population Analysis:

                                       Natural Population
                Natural  -----------------------------------------------
    Atom  No    Charge         Core      Valence    Rydberg      Total
 -----------------------------------------------------------------------
      C    1   -0.28656      0.99967     2.28206    0.00483     3.28656
      C    2   -0.19702      0.99961     2.18881    0.00860     3.19702
      C    3   -0.00188      0.99958     1.98825    0.01405     3.00188
      C    4   -0.29398      0.99963     2.28793    0.00641     3.29398
      N    5   -0.25849      0.99963     2.74562    0.01325     3.75849
      C    6   -0.10095      0.99958     2.08964    0.01173     3.10095
      C    7   -0.01309      0.99956     2.00031    0.01322     3.01309
      O    8   -0.30556      0.99989     3.29579    0.00987     4.30556
      C    9   -0.09860      0.99960     2.08979    0.00922     3.09860
      C   10    0.34470      0.99964     1.63261    0.02306     2.65530
      O   11   -0.32881      0.99988     3.32374    0.00519     4.32881
      C   12   -0.13008      0.99957     2.12095    0.00956     3.13008
      N   13   -0.31481      0.99968     2.80594    0.00919     3.81481
      C   14    0.08898      0.99948     1.90050    0.01103     2.91102
      C   15   -0.12386      0.99953     2.11427    0.01006     3.12386
      C   16   -0.09252      0.99957     2.08324    0.00971     3.09252
      C   17   -0.12566      0.99956     2.11559    0.01051     3.12566
      C   18   -0.09011      0.99957     2.08095    0.00959     3.09011
      C   19   -0.13407      0.99952     2.12682    0.00773     3.13407
      H   20    0.09618      0.00000     0.40293    0.00089     0.40382
      H   21    0.09893      0.00000     0.40038    0.00069     0.40107
      H   22    0.09856      0.00000     0.40016    0.00128     0.40144
      H   23    0.10729      0.00000     0.39148    0.00123     0.39271
      H   24    0.09733      0.00000     0.40145    0.00122     0.40267
      H   25    0.09667      0.00000     0.40031    0.00301     0.40333
      H   26    0.11176      0.00000     0.38730    0.00094     0.38824
      H   27    0.09968      0.00000     0.39920    0.00112     0.40032
      H   28    0.10118      0.00000     0.39803    0.00078     0.39882
      H   29    0.11135      0.00000     0.38589    0.00276     0.38865
      H   30    0.10280      0.00000     0.39553    0.00167     0.39720
      H   31    0.09314      0.00000     0.40516    0.00170     0.40686
      H   32    0.08475      0.00000     0.41280    0.00245     0.41525
      H   33    0.08310      0.00000     0.41572    0.00118     0.41690
      H   34    0.08235      0.00000     0.41632    0.00133     0.41765
      H   35    0.08896      0.00000     0.41013    0.00091     0.41104
      H   36    0.11342      0.00000     0.38413    0.00245     0.38658
      H   37    0.09872      0.00000     0.40013    0.00115     0.40128
      H   38    0.18509      0.00000     0.31243    0.00248     0.31491
      H   39    0.09974      0.00000     0.39905    0.00120     0.40026
      H   40    0.10066      0.00000     0.39832    0.00102     0.39934
      H   41    0.10016      0.00000     0.39897    0.00087     0.39984
      H   42    0.10037      0.00000     0.39877    0.00086     0.39963
      H   43    0.11016      0.00000     0.38774    0.00210     0.38984
 =======================================================================
   * Total *   -0.00000     18.99273    52.77515    0.23212    72.00000

 Normal termination of Gaussian 16 at Sun Dec 13 15:09:07 2020.
