 Gaussian 16, Revision A.03,

 -----------------------------------------------------------
 # opt freq B3LYP/6-31G(d) empiricaldispersion=gd3bj scf=xqc
 -----------------------------------------------------------

 -------------------------------
 CID_147198771_JID_2310_neutraal
 -------------------------------
 Symbolic Z-matrix:
 Charge =  0 Multiplicity = 1

 SCF Done:  E(RB3LYP) =  -572.029754446     A.U. after   15 cycles
 SCF Done:  E(RB3LYP) =  -572.036689568     A.U. after   12 cycles
 SCF Done:  E(RB3LYP) =  -572.037088934     A.U. after   12 cycles
 SCF Done:  E(RB3LYP) =  -572.037202407     A.U. after   12 cycles
 SCF Done:  E(RB3LYP) =  -572.037320596     A.U. after   12 cycles
 SCF Done:  E(RB3LYP) =  -572.037416635     A.U. after   12 cycles
 SCF Done:  E(RB3LYP) =  -572.037466721     A.U. after   12 cycles
 SCF Done:  E(RB3LYP) =  -572.037479617     A.U. after   10 cycles
 SCF Done:  E(RB3LYP) =  -572.037482076     A.U. after    9 cycles
 SCF Done:  E(RB3LYP) =  -572.037486295     A.U. after   10 cycles
 SCF Done:  E(RB3LYP) =  -572.037488530     A.U. after   10 cycles
 SCF Done:  E(RB3LYP) =  -572.037489167     A.U. after    9 cycles
 SCF Done:  E(RB3LYP) =  -572.037489474     A.U. after    8 cycles
 SCF Done:  E(RB3LYP) =  -572.037489586     A.U. after    8 cycles
 SCF Done:  E(RB3LYP) =  -572.037489619     A.U. after    7 cycles
 Optimization completed.
    -- Stationary point found.
 Normal termination of Gaussian 16 at Wed Dec  9 17:00:44 2020.

 --------------------------------------------------------------------
 #N Geom=AllCheck Guess=TCheck SCRF=Check GenChk RB3LYP/6-31G(d) Freq
 --------------------------------------------------------------------

 Structure from the checkpoint file:  "JID_2310.chk"
 -------------------------------
 CID_147198771_JID_2310_neutraal
 -------------------------------
 Charge =  0 Multiplicity = 1

 SCF Done:  E(RB3LYP) =  -572.037489619     A.U. after    1 cycles

  Exact polarizability: 115.463   3.729 111.029  -5.887   3.706  68.292
 Approx polarizability: 137.440  12.285 215.479  -8.742  15.196 101.281

                      1                      2                      3
                      A                      A                      A
 Frequencies --     29.8490                40.0770                62.0237
 Red. masses --      3.0602                 4.8378                 4.4569
 Frc consts  --      0.0016                 0.0046                 0.0101
 IR Inten    --      0.1741                 0.9270                 0.9584

                      4                      5                      6
                      A                      A                      A
 Frequencies --    109.3547               133.8012               199.2224
 Red. masses --      2.4016                 8.8927                 3.0265
 Frc consts  --      0.0169                 0.0938                 0.0708
 IR Inten    --      0.6657                11.5864                 0.0925

                      7                      8                      9
                      A                      A                      A
 Frequencies --    228.9101               251.6305               267.9226
 Red. masses --      1.0980                 1.1705                 3.9458
 Frc consts  --      0.0339                 0.0437                 0.1669
 IR Inten    --      0.0612                 0.6348                10.9356

                     10                     11                     12
                      A                      A                      A
 Frequencies --    291.2759               299.9118               381.0176
 Red. masses --      3.4078                 4.1947                 3.3080
 Frc consts  --      0.1703                 0.2223                 0.2829
 IR Inten    --      2.9516                 0.0919                 9.8164

                     13                     14                     15
                      A                      A                      A
 Frequencies --    399.1129               444.1500               471.9464
 Red. masses --      2.5825                 3.1050                 3.0228
 Frc consts  --      0.2424                 0.3609                 0.3967
 IR Inten    --      0.4452                 3.6474                 0.9549

                     16                     17                     18
                      A                      A                      A
 Frequencies --    574.7931               606.6272               629.1470
 Red. masses --      3.9520                 2.2191                 8.7426
 Frc consts  --      0.7693                 0.4811                 2.0389
 IR Inten    --      1.4511                 0.9800                 4.2574

                     19                     20                     21
                      A                      A                      A
 Frequencies --    697.6136               750.4603               768.6964
 Red. masses --      7.2825                 4.5058                 7.3854
 Frc consts  --      2.0881                 1.4951                 2.5712
 IR Inten    --     37.4703                23.1741                 2.4165

                     22                     23                     24
                      A                      A                      A
 Frequencies --    807.4620               826.2239               867.0293
 Red. masses --      1.7893                 2.0871                 2.1577
 Frc consts  --      0.6873                 0.8394                 0.9557
 IR Inten    --     25.0323                57.9040                19.3183

                     25                     26                     27
                      A                      A                      A
 Frequencies --    930.5249               944.4786               965.4581
 Red. masses --      1.4453                 1.1756                 1.2719
 Frc consts  --      0.7373                 0.6178                 0.6985
 IR Inten    --      7.2526                 2.1165                 0.0183

                     28                     29                     30
                      A                      A                      A
 Frequencies --    979.8594               991.6647              1044.3658
 Red. masses --      1.4080                 1.9106                 3.5870
 Frc consts  --      0.7965                 1.1070                 2.3051
 IR Inten    --      0.2734                 5.8981                 3.5891

                     31                     32                     33
                      A                      A                      A
 Frequencies --   1062.2994              1081.5356              1162.4427
 Red. masses --      1.7353                 2.1342                 3.0816
 Frc consts  --      1.1538                 1.4708                 2.4534
 IR Inten    --     11.9157                21.8885                36.8815

                     34                     35                     36
                      A                      A                      A
 Frequencies --   1167.3888              1178.2447              1207.9263
 Red. masses --      3.1785                 2.0834                 1.7509
 Frc consts  --      2.5521                 1.7041                 1.5052
 IR Inten    --     35.4065                 2.2201                11.1988

                     37                     38                     39
                      A                      A                      A
 Frequencies --   1225.3319              1304.8260              1337.5593
 Red. masses --      2.4576                 1.3849                 1.7560
 Frc consts  --      2.1741                 1.3892                 1.8509
 IR Inten    --     21.1246                 0.3456                 2.2043

                     40                     41                     42
                      A                      A                      A
 Frequencies --   1344.5728              1391.8530              1416.6645
 Red. masses --      1.2941                 1.3485                 1.5422
 Frc consts  --      1.3784                 1.5392                 1.8236
 IR Inten    --      3.6862                 4.2608                17.9710

                     43                     44                     45
                      A                      A                      A
 Frequencies --   1432.3814              1436.1435              1452.9522
 Red. masses --      1.3018                 4.5324                 1.2361
 Frc consts  --      1.5737                 5.5078                 1.5374
 IR Inten    --      4.9753               122.4972                 8.4759

                     46                     47                     48
                      A                      A                      A
 Frequencies --   1516.6147              1521.8159              1533.5399
 Red. masses --      1.0533                 1.0636                 1.0740
 Frc consts  --      1.4274                 1.4512                 1.4882
 IR Inten    --      0.8887                 5.5169                 2.7766

                     49                     50                     51
                      A                      A                      A
 Frequencies --   1536.7227              1544.8531              1570.2015
 Red. masses --      1.0725                 1.0607                 1.1633
 Frc consts  --      1.4922                 1.4915                 1.6899
 IR Inten    --      2.5869                18.4708                28.0678

                     52                     53                     54
                      A                      A                      A
 Frequencies --   1655.8792              1811.9796              1866.7844
 Red. masses --      6.7397                12.3619                11.9413
 Frc consts  --     10.8880                23.9133                24.5183
 IR Inten    --      1.6201               516.5840                25.0890

                     55                     56                     57
                      A                      A                      A
 Frequencies --   3000.1837              3040.3417              3042.9430
 Red. masses --      1.0692                 1.0359                 1.0531
 Frc consts  --      5.6704                 5.6419                 5.7452
 IR Inten    --     25.0395                29.5792                 6.0037

                     58                     59                     60
                      A                      A                      A
 Frequencies --   3048.3268              3097.6139              3105.2636
 Red. masses --      1.0663                 1.0948                 1.1015
 Frc consts  --      5.8379                 6.1892                 6.2580
 IR Inten    --     23.6545                 7.9218                17.1169

                     61                     62                     63
                      A                      A                      A
 Frequencies --   3110.2876              3113.6126              3118.6471
 Red. masses --      1.1010                 1.1016                 1.1019
 Frc consts  --      6.2754                 6.2920                 6.3143
 IR Inten    --     47.6843                37.2431                53.1504

                     64                     65                     66
                      A                      A                      A
 Frequencies --   3253.8253              3274.1297              3502.5059
 Red. masses --      1.0889                 1.1075                 1.0735
 Frc consts  --      6.7927                 6.9947                 7.7589
 IR Inten    --      0.4271                 0.7847                 3.8585

 - Thermochemistry -
 -------------------
 Temperature   298.150 Kelvin.  Pressure   1.00000 Atm.
 Atom     1 has atomic number  6 and mass  12.00000

 Molecular mass:   168.08988 amu.
 Principal axes and moments of inertia in atomic units:
                           1         2         3
     Eigenvalues --  1057.184483364.704363997.62917
           X            1.00000  -0.00193  -0.00015
           Y            0.00192   0.99953  -0.03058
           Z            0.00021   0.03058   0.99953
 This molecule is an asymmetric top.
 Rotational symmetry number  1.
 Warning -- assumption of classical behavior for rotation
           may cause significant error
 Rotational temperatures (Kelvin)      0.08193     0.02574     0.02167
 Rotational constants (GHZ):           1.70712     0.53637     0.45145
 Zero-point vibrational energy     523143.7 (Joules/Mol)
                                  125.03436 (Kcal/Mol)
 Warning -- explicit consideration of  17 degrees of freedom as
           vibrations may cause significant error
 Vibrational temperatures:     42.95    57.66    89.24   157.34   192.51
          (Kelvin)            286.64   329.35   362.04   385.48   419.08
                              431.51   548.20   574.23   639.03   679.03
                              827.00   872.80   905.20  1003.71  1079.75
                             1105.98  1161.76  1188.75  1247.46  1338.82
                             1358.89  1389.08  1409.80  1426.78  1502.61
                             1528.41  1556.09  1672.50  1679.61  1695.23
                             1737.94  1762.98  1877.35  1924.45  1934.54
                             2002.57  2038.26  2060.88  2066.29  2090.47
                             2182.07  2189.55  2206.42  2211.00  2222.70
                             2259.17  2382.44  2607.03  2685.89  4316.60
                             4374.37  4378.12  4385.86  4456.78  4467.78
                             4475.01  4479.79  4487.04  4681.53  4710.74
                             5039.32

 Zero-point correction=                           0.199255 (Hartree/Particle)
 Thermal correction to Energy=                    0.211511
 Thermal correction to Enthalpy=                  0.212455
 Thermal correction to Gibbs Free Energy=         0.159417
 Sum of electronic and zero-point Energies=           -571.838235
 Sum of electronic and thermal Energies=              -571.825979
 Sum of electronic and thermal Enthalpies=            -571.825035
 Sum of electronic and thermal Free Energies=         -571.878073

                     E (Thermal)             CV                S
                      KCal/Mol        Cal/Mol-Kelvin    Cal/Mol-Kelvin
 Total                  132.725             44.548            111.628
 Electronic               0.000              0.000              0.000
 Translational            0.889              2.981             41.266
 Rotational               0.889              2.981             31.031
 Vibrational            130.948             38.587             39.331
 Vibration     1          0.594              1.984              5.839
 Vibration     2          0.594              1.981              5.255
 Vibration     3          0.597              1.972              4.392
 Vibration     4          0.606              1.942              3.280
 Vibration     5          0.613              1.920              2.891
 Vibration     6          0.637              1.841              2.140
 Vibration     7          0.652              1.797              1.887
 Vibration     8          0.664              1.760              1.719
 Vibration     9          0.673              1.732              1.610
 Vibration    10          0.687              1.690              1.467
 Vibration    11          0.692              1.674              1.417
 Vibration    12          0.751              1.511              1.035
 Vibration    13          0.765              1.472              0.966
 Vibration    14          0.804              1.374              0.814
 Vibration    15          0.829              1.312              0.732
 Vibration    16          0.931              1.086              0.495
 Vibration    17          0.965              1.018              0.438

 Optimization completed.
    -- Stationary point found.
 Normal termination of Gaussian 16 at Wed Dec  9 17:05:54 2020.

 ----------------------------------------------------------------------
 # B3LYP/6-311++G(d,p) empiricaldispersion=gd3bj scf=xqc pop=npa geom=c
 heck
 ----------------------------------------------------------------------

 ---------------------------------------
 CID_147198771_JID_2310_Energie_neutraal
 ---------------------------------------
 Structure from the checkpoint file:  "JID_2310.chk"
 Charge =  0 Multiplicity = 1

 SCF Done:  E(RB3LYP) =  -572.206038552     A.U. after   15 cycles
 Normal termination of Gaussian 16 at Wed Dec  9 17:08:47 2020.

 ----------------------------------------------------------------------
 # B3LYP/6-311++G(d,p) empiricaldispersion=gd3bj scf=xqc pop=npa geom=c
 heck
 ----------------------------------------------------------------------

 -------------------------------------
 CID_147198771_JID_2310_Energie_kation
 -------------------------------------
 Structure from the checkpoint file:  "JID_2310.chk"
 Charge =  1 Multiplicity = 2

 SCF Done:  E(UB3LYP) =  -571.870125919     A.U. after   23 cycles
 Normal termination of Gaussian 16 at Wed Dec  9 17:14:46 2020.
 Gaussian 16:  ES64L-G16RevA.03 25-Dec-2016

 ----------------------------------------------------------------------
 # B3LYP/6-311++G(d,p) empiricaldispersion=gd3bj scf=xqc pop=npa geom=c
 heck
 ----------------------------------------------------------------------

 ------------------------------------
 CID_147198771_JID_2310_Energie_anion
 ------------------------------------
 Structure from the checkpoint file:  "JID_2310.chk"
 Charge = -1 Multiplicity = 2

                         Standard orientation:
 ---------------------------------------------------------------------
 Center     Atomic      Atomic             Coordinates (Angstroms)
 Number     Number       Type             X           Y           Z
 ---------------------------------------------------------------------
      1          6           0        3.166039    0.853051   -0.892223
      2          6           0        2.710845   -0.374154   -0.089862
      3          6           0        3.641403   -0.618690    1.104136
      4          6           0        1.267981   -0.234825    0.404676
      5          7           0        0.330392   -0.138749   -0.729985
      6          7           0       -0.991706   -0.020181   -0.290879
      7          6           0       -1.587951    1.177145    0.115595
      8          8           0       -1.040256    2.261486    0.118051
      9          6           0       -2.997309    0.820457    0.487830
     10          6           0       -3.165809   -0.494448    0.311302
     11          6           0       -1.882056   -1.097987   -0.195552
     12          8           0       -1.645803   -2.257625   -0.445417
     13          1           0        3.066797    1.769361   -0.296285
     14          1           0        2.589401    0.983061   -1.815184
     15          1           0        4.217774    0.755947   -1.183291
     16          1           0        2.744391   -1.252210   -0.748401
     17          1           0        3.630770    0.236587    1.791616
     18          1           0        3.341779   -1.508599    1.669391
     19          1           0        4.674527   -0.763491    0.769961
     20          1           0        0.984170   -1.129405    0.968350
     21          1           0        1.182780    0.633161    1.078521
     22          1           0        0.517785    0.711377   -1.259010
     23          1           0       -3.704735    1.562916    0.834046
     24          1           0       -4.046630   -1.100374    0.479852
 ---------------------------------------------------------------------

 SCF Done:  E(UB3LYP) =  -572.244390856     A.U. after   20 cycles

 The electronic state is 2-A.
 Alpha  occ. eigenvalues --  -18.92299 -18.91689 -14.20612 -14.20237 -10.08919
 Alpha  occ. eigenvalues --  -10.08761 -10.07591 -10.07280 -10.07101 -10.06682
 Alpha  occ. eigenvalues --   -9.99566  -9.99438  -0.89916  -0.86527  -0.83009
 Alpha  occ. eigenvalues --   -0.73086  -0.69218  -0.60557  -0.59486  -0.54836
 Alpha  occ. eigenvalues --   -0.48873  -0.46446  -0.43251  -0.41221  -0.38089
 Alpha  occ. eigenvalues --   -0.35294  -0.32777  -0.31809  -0.30715  -0.29918
 Alpha  occ. eigenvalues --   -0.29408  -0.28818  -0.27043  -0.26791  -0.25335
 Alpha  occ. eigenvalues --   -0.24189  -0.23405  -0.23301  -0.22946  -0.21980
 Alpha  occ. eigenvalues --   -0.14213  -0.12613  -0.11133  -0.09391  -0.08040
 Alpha  occ. eigenvalues --    0.03587
 Alpha virt. eigenvalues --    0.07004   0.09098   0.10068   0.10822   0.11196
 Alpha virt. eigenvalues --    0.12487   0.12530   0.12916   0.13571   0.14370
 Alpha virt. eigenvalues --    0.15362   0.16650   0.16976   0.18605   0.18989

  Beta  occ. eigenvalues --  -18.91826 -18.91197 -14.20613 -14.20342 -10.08691
  Beta  occ. eigenvalues --  -10.08575 -10.07591 -10.07285 -10.07101 -10.06682
  Beta  occ. eigenvalues --   -9.99277  -9.99111  -0.89520  -0.85692  -0.82604
  Beta  occ. eigenvalues --   -0.72883  -0.69023  -0.60141  -0.59472  -0.54696
  Beta  occ. eigenvalues --   -0.47811  -0.46438  -0.42858  -0.40888  -0.38043
  Beta  occ. eigenvalues --   -0.35268  -0.32671  -0.31627  -0.30285  -0.29846
  Beta  occ. eigenvalues --   -0.29049  -0.28586  -0.26683  -0.26071  -0.24912
  Beta  occ. eigenvalues --   -0.23884  -0.23258  -0.22953  -0.22724  -0.19587
  Beta  occ. eigenvalues --   -0.13837  -0.10681  -0.09857  -0.08618  -0.07580
  Beta virt. eigenvalues --    0.07003   0.09096   0.10063   0.10810   0.11175
  Beta virt. eigenvalues --    0.11241   0.12493   0.12541   0.12922   0.13565
  Beta virt. eigenvalues --    0.14372   0.15366   0.16673   0.16983   0.18692

 Mulliken charges and spin densities:
               1          2
     1  C   -0.569721  -0.000791
     2  C    0.356845   0.000491
     3  C   -0.593428  -0.000169
     4  C   -0.675817  -0.002089
     5  N    0.103319   0.002525
     6  N   -0.022412  -0.061053
     7  C   -0.100726   0.143823
     8  O   -0.433972   0.159279
     9  C   -0.177182   0.237765
    10  C   -0.100284   0.259108
    11  C   -0.058892   0.133528
    12  O   -0.444968   0.167670
    13  H    0.152074   0.000224
    14  H    0.126960  -0.000180
    15  H    0.125542  -0.000081
    16  H    0.160935  -0.000289
    17  H    0.131974  -0.000001
    18  H    0.130999   0.000059
    19  H    0.126332  -0.000078
    20  H    0.171562  -0.000878
    21  H    0.138909   0.000118
    22  H    0.237613  -0.000628
    23  H    0.106368  -0.017921
    24  H    0.107971  -0.020432
 Sum of Mulliken charges =  -1.00000   1.00000

 Dipole moment (field-independent basis, Debye):
    X=              7.6439    Y=              0.5852    Z=              0.6710  Tot=              7.6956
 Quadrupole moment (field-independent basis, Debye-Ang):
   XX=            -96.1946   YY=           -103.5436   ZZ=            -79.2242
   XY=             -2.6458   XZ=             -0.8180   YZ=             -4.8854

 Summary of Natural Population Analysis:

                                       Natural Population
                Natural  -----------------------------------------------
    Atom  No    Charge         Core      Valence    Rydberg      Total
 -----------------------------------------------------------------------
      C    1   -0.28772      0.99966     2.28294    0.00512     3.28772
      C    2   -0.11943      0.99962     2.11234    0.00747     3.11943
      C    3   -0.28282      0.99966     2.27847    0.00470     3.28282
      C    4   -0.08725      0.99960     2.07799    0.00965     3.08725
      N    5   -0.23448      0.99973     2.71899    0.01577     3.73448
      N    6   -0.21048      0.99958     2.69732    0.01357     3.71048
      C    7    0.35657      0.99967     1.62108    0.02267     2.64343
      O    8   -0.28098      0.99987     3.27399    0.00712     4.28098
      C    9   -0.08613      0.99950     2.07739    0.00924     3.08613
      C   10   -0.06822      0.99951     2.05959    0.00913     3.06822
      C   11    0.35370      0.99968     1.62362    0.02300     2.64630
      O   12   -0.26195      0.99987     3.25509    0.00700     4.26195
      H   13    0.09846      0.00000     0.40066    0.00087     0.40154
      H   14    0.10038      0.00000     0.39884    0.00078     0.39962
      H   15    0.09253      0.00000     0.40663    0.00084     0.40747
      H   16    0.09526      0.00000     0.40264    0.00210     0.40474
      H   17    0.09516      0.00000     0.40381    0.00104     0.40484
      H   18    0.09881      0.00000     0.40031    0.00088     0.40119
      H   19    0.09293      0.00000     0.40621    0.00086     0.40707
      H   20    0.09818      0.00000     0.40071    0.00110     0.40182
      H   21    0.08637      0.00000     0.41191    0.00172     0.41363
      H   22    0.17461      0.00000     0.32294    0.00245     0.32539
      H   23    0.08858      0.00000     0.41019    0.00123     0.41142
      H   24    0.08792      0.00000     0.41087    0.00121     0.41208
 =======================================================================
   * Total *   -0.00000     11.99595    32.85454    0.14951    45.00000

 Normal termination of Gaussian 16 at Wed Dec  9 17:19:37 2020.
