 Gaussian 16, Revision A.03,

 -----------------------------------------------------------
 # opt freq B3LYP/6-31G(d) empiricaldispersion=gd3bj scf=xqc
 -----------------------------------------------------------

 -----------------------------
 CID_123567410_JID_75_neutraal
 -----------------------------
 Symbolic Z-matrix:
 Charge =  0 Multiplicity = 1

 SCF Done:  E(RB3LYP) =  -425.384368573     A.U. after   14 cycles
 SCF Done:  E(RB3LYP) =  -425.388262018     A.U. after   12 cycles
 SCF Done:  E(RB3LYP) =  -425.389622971     A.U. after   12 cycles
 SCF Done:  E(RB3LYP) =  -425.390776333     A.U. after   12 cycles
 SCF Done:  E(RB3LYP) =  -425.390919889     A.U. after   11 cycles
 SCF Done:  E(RB3LYP) =  -425.390976905     A.U. after   10 cycles
 SCF Done:  E(RB3LYP) =  -425.390983287     A.U. after   10 cycles
 SCF Done:  E(RB3LYP) =  -425.390984455     A.U. after    8 cycles
 SCF Done:  E(RB3LYP) =  -425.390984766     A.U. after    8 cycles
 SCF Done:  E(RB3LYP) =  -425.390984884     A.U. after    7 cycles
 Optimization completed.
    -- Stationary point found.

 1\1\GINC-NODE313\FOpt\RB3LYP\6-31G(d)\C9H12O1\VSC10255\08-Dec-2020\0\\
 # opt freq B3LYP/6-31G(d) empiricaldispersion=gd3bj scf=xqc\\CID_12356
 7410_JID_75_neutraal\\0,1\C,1.0429889298,0.0481077876,0.032751086\C,0.
 8245248792,1.2721864206,-0.8255937665\C,0.9247753341,2.5201109859,-0.2
 764645419\C,0.8826680268,3.7815235786,-0.9810739823\C,0.1629599808,4.0
 45019618,-2.0956977959\C,-0.8136228026,3.021007175,-2.6256995993\C,-0.
 0190819431,1.836089717,-3.1047567624\C,0.655157894,1.038999774,-2.2515
 460266\C,0.3249236848,5.3212132599,-2.8735860397\O,0.7252957456,5.0620

 Normal termination of Gaussian 16 at Tue Dec  8 10:16:07 2020.

 --------------------------------------------------------------------
 #N Geom=AllCheck Guess=TCheck SCRF=Check GenChk RB3LYP/6-31G(d) Freq
 --------------------------------------------------------------------

 Structure from the checkpoint file:  "JID_75.chk"
 -----------------------------
 CID_123567410_JID_75_neutraal
 -----------------------------
 Charge =  0 Multiplicity = 1

 SCF Done:  E(RB3LYP) =  -425.390984884     A.U. after    1 cycles

  Exact polarizability: 130.081   1.011  98.643   8.848  -0.808  62.504
 Approx polarizability: 191.194   7.554 164.570  19.128  -0.906  94.373

                      1                      2                      3
                      A                      A                      A
 Frequencies --     65.6201                97.5422               133.8421
 Red. masses --      4.4952                 3.6875                 1.7541
 Frc consts  --      0.0114                 0.0207                 0.0185
 IR Inten    --      0.8757                 0.9441                 1.5986

                      4                      5                      6
                      A                      A                      A
 Frequencies --    162.3910               256.5557               298.2150
 Red. masses --      1.3217                 2.9204                 2.7013
 Frc consts  --      0.0205                 0.1133                 0.1415
 IR Inten    --      0.4118                 1.3735                16.4952

                      7                      8                      9
                      A                      A                      A
 Frequencies --    311.8118               342.4147               380.2183
 Red. masses --      2.1516                 3.2511                 2.5878
 Frc consts  --      0.1233                 0.2246                 0.2204
 IR Inten    --      6.7936                 1.1329                36.8892

                     10                     11                     12
                      A                      A                      A
 Frequencies --    390.9473               415.7920               452.2206
 Red. masses --      1.7850                 2.7469                 2.3369
 Frc consts  --      0.1607                 0.2798                 0.2816
 IR Inten    --     64.9267                 4.1276                52.0485

                     13                     14                     15
                      A                      A                      A
 Frequencies --    593.2125               611.7289               636.9129
 Red. masses --      3.7081                 2.8417                 2.5881
 Frc consts  --      0.7688                 0.6265                 0.6186
 IR Inten    --      6.8690                 8.4060                 3.4147

                     16                     17                     18
                      A                      A                      A
 Frequencies --    729.2671               763.3454               843.2568
 Red. masses --      3.8374                 1.6316                 1.4664
 Frc consts  --      1.2024                 0.5601                 0.6143
 IR Inten    --      0.5703                21.6983                33.9362

                     19                     20                     21
                      A                      A                      A
 Frequencies --    873.5352               900.0605               924.1458
 Red. masses --      2.5302                 2.3715                 1.7637
 Frc consts  --      1.1375                 1.1319                 0.8875
 IR Inten    --      4.5680                 2.1942                 4.2845

                     22                     23                     24
                      A                      A                      A
 Frequencies --    951.4688               974.2712              1002.0431
 Red. masses --      1.9265                 1.3495                 1.7569
 Frc consts  --      1.0276                 0.7547                 1.0394
 IR Inten    --      1.2348                 0.2013                 2.7942

                     25                     26                     27
                      A                      A                      A
 Frequencies --   1011.4314              1039.8130              1051.5606
 Red. masses --      1.9416                 1.8074                 4.1922
 Frc consts  --      1.1703                 1.1514                 2.7312
 IR Inten    --     37.6195                 3.3850                46.7039

                     28                     29                     30
                      A                      A                      A
 Frequencies --   1078.8234              1157.0817              1183.8865
 Red. masses --      1.5384                 1.9405                 2.2501
 Frc consts  --      1.0549                 1.5307                 1.8582
 IR Inten    --      4.8895                 3.3538                10.2299

                     31                     32                     33
                      A                      A                      A
 Frequencies --   1197.3339              1211.9480              1243.6859
 Red. masses --      1.7840                 1.0978                 1.3488
 Frc consts  --      1.5069                 0.9501                 1.2292
 IR Inten    --      0.8651                16.1804                 1.0169

                     34                     35                     36
                      A                      A                      A
 Frequencies --   1290.4106              1345.4142              1362.8868
 Red. masses --      1.2270                 1.2937                 1.5615
 Frc consts  --      1.2037                 1.3797                 1.7089
 IR Inten    --      0.6974                 3.7399                 1.9072

                     37                     38                     39
                      A                      A                      A
 Frequencies --   1383.8740              1412.8686              1435.4283
 Red. masses --      1.3273                 1.6460                 1.2492
 Frc consts  --      1.4977                 1.9359                 1.5165
 IR Inten    --      3.5344                 0.2921                84.1462

                     40                     41                     42
                      A                      A                      A
 Frequencies --   1442.4027              1461.7804              1499.5911
 Red. masses --      1.2524                 1.8559                 1.1083
 Frc consts  --      1.5352                 2.3366                 1.4684
 IR Inten    --      2.0851                 2.0701                 7.2352

                     43                     44                     45
                      A                      A                      A
 Frequencies --   1509.4742              1524.3680              1534.1187
 Red. masses --      1.0485                 1.0951                 1.0947
 Frc consts  --      1.4076                 1.4993                 1.5179
 IR Inten    --      6.4946                 6.4675                 0.4340

                     46                     47                     48
                      A                      A                      A
 Frequencies --   1607.3454              1699.6493              1701.2877
 Red. masses --      6.3481                 6.0747                 5.6822
 Frc consts  --      9.6631                10.3394                 9.6900
 IR Inten    --      3.0737                 7.8430                 1.0871

                     49                     50                     51
                      A                      A                      A
 Frequencies --   3008.7899              3022.1660              3035.3341
 Red. masses --      1.0660                 1.0687                 1.0382
 Frc consts  --      5.6860                 5.7509                 5.6355
 IR Inten    --     72.6435                27.8200                36.2971

                     52                     53                     54
                      A                      A                      A
 Frequencies --   3072.8440              3083.1346              3121.5891
 Red. masses --      1.0976                 1.1000                 1.0941
 Frc consts  --      6.1062                 6.1608                 6.2814
 IR Inten    --     37.1940                22.7898                15.1874

                     55                     56                     57
                      A                      A                      A
 Frequencies --   3126.7923              3138.8144              3145.4917
 Red. masses --      1.1000                 1.0861                 1.0856
 Frc consts  --      6.3361                 6.3044                 6.3283
 IR Inten    --     16.4004                19.7549                19.8056

                     58                     59                     60
                      A                      A                      A
 Frequencies --   3155.5312              3181.3306              3724.8971
 Red. masses --      1.0895                 1.0942                 1.0660
 Frc consts  --      6.3919                 6.5246                 8.7143
 IR Inten    --     38.3513                25.0489                 7.5018

 - Thermochemistry -
 -------------------
 Temperature   298.150 Kelvin.  Pressure   1.00000 Atm.
 Atom     1 has atomic number  6 and mass  12.00000

 Molecular mass:   136.08882 amu.
 Principal axes and moments of inertia in atomic units:
                           1         2         3
     Eigenvalues --   620.086482133.120942483.14625
           X            0.99997  -0.00398   0.00690
           Y            0.00394   0.99997   0.00594
           Z           -0.00692  -0.00591   0.99996
 This molecule is an asymmetric top.
 Rotational symmetry number  1.
 Warning -- assumption of classical behavior for rotation
           may cause significant error
 Rotational temperatures (Kelvin)      0.13968     0.04060     0.03488
 Rotational constants (GHZ):           2.91047     0.84606     0.72680
 Zero-point vibrational energy     498328.4 (Joules/Mol)
                                  119.10334 (Kcal/Mol)
 Warning -- explicit consideration of  14 degrees of freedom as
           vibrations may cause significant error
 Vibrational temperatures:     94.41   140.34   192.57   233.64   369.13
          (Kelvin)            429.06   448.63   492.66   547.05   562.49
                              598.23   650.64   853.50   880.14   916.38
                             1049.25  1098.28  1213.26  1256.82  1294.99
                             1329.64  1368.95  1401.76  1441.72  1455.22
                             1496.06  1512.96  1552.19  1664.78  1703.35
                             1722.70  1743.72  1789.39  1856.61  1935.75
                             1960.89  1991.09  2032.80  2065.26  2075.30
                             2103.18  2157.58  2171.80  2193.23  2207.25
                             2312.61  2445.42  2447.77  4328.98  4348.22
                             4367.17  4421.14  4435.94  4491.27  4498.76
                             4516.05  4525.66  4540.11  4577.23  5359.30

 Zero-point correction=                           0.189803 (Hartree/Particle)
 Thermal correction to Energy=                    0.199648
 Thermal correction to Enthalpy=                  0.200593
 Thermal correction to Gibbs Free Energy=         0.154866
 Sum of electronic and zero-point Energies=           -425.201182
 Sum of electronic and thermal Energies=              -425.191336
 Sum of electronic and thermal Enthalpies=            -425.190392
 Sum of electronic and thermal Free Energies=         -425.236119

                     E (Thermal)             CV                S
                      KCal/Mol        Cal/Mol-Kelvin    Cal/Mol-Kelvin
 Total                  125.281             37.600             96.240
 Electronic               0.000              0.000              0.000
 Translational            0.889              2.981             40.637
 Rotational               0.889              2.981             29.575
 Vibrational            123.504             31.639             26.028
 Vibration     1          0.597              1.971              4.281
 Vibration     2          0.603              1.951              3.503
 Vibration     3          0.613              1.920              2.890
 Vibration     4          0.622              1.889              2.522
 Vibration     5          0.666              1.752              1.685
 Vibration     6          0.691              1.677              1.427
 Vibration     7          0.700              1.651              1.353
 Vibration     8          0.722              1.591              1.201
 Vibration     9          0.750              1.512              1.038
 Vibration    10          0.759              1.490              0.997
 Vibration    11          0.779              1.436              0.906
 Vibration    12          0.811              1.356              0.789
 Vibration    13          0.951              1.046              0.461
 Vibration    14          0.971              1.007              0.430

                           ! Non-Optimized Parameters !

 1\1\GINC-NODE313\Freq\RB3LYP\6-31G(d)\C9H12O1\VSC10255\08-Dec-2020\0\\
 #N Geom=AllCheck Guess=TCheck SCRF=Check GenChk RB3LYP/6-31G(d) Freq\\
 CID_123567410_JID_75_neutraal\\0,1\C,1.0429889298,0.0481077876,0.03275
 1086\C,0.8245248792,1.2721864206,-0.8255937665\C,0.9247753341,2.520110
 9859,-0.2764645419\C,0.8826680268,3.7815235786,-0.9810739823\C,0.16295
 99808,4.045019618,-2.0956977959\C,-0.8136228026,3.021007175,-2.6256995
 993\C,-0.0190819431,1.836089717,-3.1047567624\C,0.655157894,1.03899977
 4,-2.2515460266\C,0.3249236848,5.3212132599,-2.8735860397\O,0.72529574

 Normal termination of Gaussian 16 at Tue Dec  8 10:19:59 2020.

 ----------------------------------------------------------------------
 # B3LYP/6-311++G(d,p) empiricaldispersion=gd3bj scf=xqc pop=npa geom=c
 heck
 ----------------------------------------------------------------------

 -------------------------------------
 CID_123567410_JID_75_Energie_neutraal
 -------------------------------------
 Structure from the checkpoint file:  "JID_75.chk"
 Charge =  0 Multiplicity = 1

 SCF Done:  E(RB3LYP) =  -425.518723726     A.U. after   15 cycles
 Normal termination of Gaussian 16 at Tue Dec  8 10:21:23 2020.

 ----------------------------------------------------------------------
 # B3LYP/6-311++G(d,p) empiricaldispersion=gd3bj scf=xqc pop=npa geom=c
 heck
 ----------------------------------------------------------------------

 -----------------------------------
 CID_123567410_JID_75_Energie_kation
 -----------------------------------
 Structure from the checkpoint file:  "JID_75.chk"
 Charge =  1 Multiplicity = 2

 SCF Done:  E(UB3LYP) =  -425.227154667     A.U. after   21 cycles
 Normal termination of Gaussian 16 at Tue Dec  8 10:23:55 2020.
 Gaussian 16:  ES64L-G16RevA.03 25-Dec-2016

 ----------------------------------
 CID_123567410_JID_75_Energie_anion
 ----------------------------------
 Structure from the checkpoint file:  "JID_75.chk"
 Charge = -1 Multiplicity = 2

                         Standard orientation:
 ---------------------------------------------------------------------
 Center     Atomic      Atomic             Coordinates (Angstroms)
 Number     Number       Type             X           Y           Z
 ---------------------------------------------------------------------
      1          6           0       -3.444793   -0.140828   -0.149331
      2          6           0       -1.935050   -0.101294   -0.104992
      3          6           0       -1.223929   -1.259630    0.041550
      4          6           0        0.211690   -1.409365   -0.035821
      5          6           0        1.127848   -0.491451    0.348734
      6          6           0        0.686404    0.766510    1.059986
      7          6           0       -0.109769    1.589038    0.083064
      8          6           0       -1.314894    1.187867   -0.369323
      9          6           0        2.594089   -0.648439    0.056321
     10          8           0        3.087324    0.438527   -0.731741
     11          1           0       -3.880299    0.466450    0.654671
     12          1           0       -3.826766   -1.161043   -0.048335
     13          1           0       -3.821981    0.272102   -1.094427
     14          1           0       -1.797158   -2.184882    0.092279
     15          1           0        0.570647   -2.348505   -0.458341
     16          1           0        0.052798    0.498189    1.917455
     17          1           0        1.551147    1.325302    1.426021
     18          1           0        0.308041    2.533155   -0.260398
     19          1           0       -1.887273    1.869484   -0.998737
     20          1           0        3.184331   -0.610569    0.980121
     21          1           0        2.788437   -1.618117   -0.427219
     22          1           0        2.509909    0.495769   -1.510282
 ---------------------------------------------------------------------

 SCF Done:  E(UB3LYP) =  -425.506755785     A.U. after   33 cycles
 SCF Done:  E(UB3LYP) =  -425.506756320     a.u. after    3 cycles

 The electronic state is 2-A.
 Alpha  occ. eigenvalues --  -18.98838 -10.07803 -10.04106 -10.02758 -10.02297
 Alpha  occ. eigenvalues --  -10.02124 -10.02031 -10.01784 -10.01645 -10.01446
 Alpha  occ. eigenvalues --   -0.88757  -0.69926  -0.64824  -0.62001  -0.57252
 Alpha  occ. eigenvalues --   -0.54144  -0.50107  -0.46043  -0.39656  -0.36560
 Alpha  occ. eigenvalues --   -0.36111  -0.34080  -0.31334  -0.30227  -0.29934
 Alpha  occ. eigenvalues --   -0.28917  -0.27607  -0.25982  -0.23987  -0.22593
 Alpha  occ. eigenvalues --   -0.21231  -0.20358  -0.19111  -0.16242  -0.14869
 Alpha  occ. eigenvalues --   -0.11128  -0.07560   0.05997
 Alpha virt. eigenvalues --    0.08527   0.09197   0.09767   0.10480   0.10910
 Alpha virt. eigenvalues --    0.11588   0.11835   0.12928   0.13085   0.13897
 Alpha virt. eigenvalues --    0.14562   0.15043   0.15733   0.17183   0.17936

  Beta  occ. eigenvalues --  -18.98780 -10.07799 -10.04128 -10.02777 -10.02183
  Beta  occ. eigenvalues --  -10.02013 -10.01742 -10.01658 -10.01471 -10.01341
  Beta  occ. eigenvalues --   -0.88607  -0.69538  -0.64426  -0.61643  -0.57049
  Beta  occ. eigenvalues --   -0.54069  -0.50000  -0.45498  -0.39385  -0.36429
  Beta  occ. eigenvalues --   -0.35869  -0.33851  -0.31097  -0.30030  -0.29757
  Beta  occ. eigenvalues --   -0.28707  -0.27487  -0.25778  -0.23854  -0.22418
  Beta  occ. eigenvalues --   -0.21048  -0.20198  -0.18932  -0.15602  -0.14613
  Beta  occ. eigenvalues --   -0.10252  -0.06286
  Beta virt. eigenvalues --    0.08398   0.09229   0.09822   0.10427   0.11081
  Beta virt. eigenvalues --    0.11235   0.11821   0.12204   0.13127   0.13171
  Beta virt. eigenvalues --    0.14171   0.14848   0.15345   0.15711   0.17179

 Mulliken charges and spin densities:
               1          2
     1  C   -0.585754  -0.057090
     2  C    1.135551   0.014460
     3  C   -0.301296  -0.204147
     4  C    0.051737  -0.837117
     5  C   -0.945723   2.128757
     6  C   -0.796540   0.262757
     7  C    0.000856   0.289613
     8  C   -0.597065  -0.263721
     9  C    1.636219  -2.326224
    10  O   -0.273318   0.063914
    11  H    0.105539   0.035785
    12  H    0.125561  -0.002657
    13  H    0.098451   0.013080
    14  H   -0.034355   0.118956
    15  H   -0.203651   0.323135
    16  H    0.031725   0.097726
    17  H   -0.019977   0.140470
    18  H   -0.022588   0.155027
    19  H    0.126017  -0.007154
    20  H   -0.177113   0.324299
    21  H   -0.470431   0.624578
    22  H    0.116152   0.105552
 Sum of Mulliken charges =  -1.00000   1.00000

 Dipole moment (field-independent basis, Debye):
    X=             -4.1622    Y=              1.3315    Z=             -0.5218  Tot=              4.4010
 Quadrupole moment (field-independent basis, Debye-Ang):
   XX=           -106.4743   YY=            -86.2500   ZZ=            -75.9141
   XY=              3.0582   XZ=              3.3066   YZ=             -1.4806

 Summary of Natural Population Analysis:

                                       Natural Population
                Natural  -----------------------------------------------
    Atom  No    Charge         Core      Valence    Rydberg      Total
 -----------------------------------------------------------------------
      C    1   -0.29019      0.99965     2.28547    0.00507     3.29019
      C    2    0.01694      0.99950     1.97374    0.00982     2.98306
      C    3   -0.10074      0.99950     2.09011    0.01113     3.10074
      C    4   -0.11887      0.99946     2.10867    0.01074     3.11887
      C    5    0.03711      0.99949     1.95200    0.01140     2.96289
      C    6   -0.23048      0.99958     2.22123    0.00967     3.23048
      C    7   -0.01148      0.99955     2.00163    0.01030     3.01148
      C    8   -0.14380      0.99950     2.13321    0.01109     3.14380
      C    9   -0.01993      0.99953     2.00629    0.01411     3.01993
      O   10   -0.37150      0.99990     3.36412    0.00747     4.37150
      H   11    0.09685      0.00000     0.40209    0.00106     0.40315
      H   12    0.09445      0.00000     0.40483    0.00072     0.40555
      H   13    0.09428      0.00000     0.40469    0.00104     0.40572
      H   14    0.08552      0.00000     0.41284    0.00164     0.41448
      H   15    0.09443      0.00000     0.40397    0.00160     0.40557
      H   16    0.10249      0.00000     0.39600    0.00151     0.39751
      H   17    0.10176      0.00000     0.39678    0.00146     0.39824
      H   18    0.08593      0.00000     0.41302    0.00105     0.41407
      H   19    0.09055      0.00000     0.40831    0.00114     0.40945
      H   20    0.08358      0.00000     0.41443    0.00199     0.41642
      H   21    0.07773      0.00000     0.41979    0.00248     0.42227
      H   22    0.22536      0.00000     0.27047    0.00416     0.27464
 =======================================================================
   * Total *    0.00000      9.99565    26.88370    0.12065    37.00000

 Normal termination of Gaussian 16 at Tue Dec  8 10:34:44 2020.
