 Gaussian 16, Revision A.03,

 -----------------------------------------------------------
 # opt freq B3LYP/6-31G(d) empiricaldispersion=gd3bj scf=xqc
 -----------------------------------------------------------

 -------------------------------
 CID_119054985_JID_1645_neutraal
 -------------------------------
 Symbolic Z-matrix:
 Charge =  0 Multiplicity = 1

 SCF Done:  E(RB3LYP) =  -484.357450664     A.U. after   13 cycles
 SCF Done:  E(RB3LYP) =  -484.363260596     A.U. after   11 cycles
 SCF Done:  E(RB3LYP) =  -484.363867277     A.U. after   10 cycles
 SCF Done:  E(RB3LYP) =  -484.364444630     A.U. after   12 cycles
 SCF Done:  E(RB3LYP) =  -484.364828455     A.U. after   10 cycles
 SCF Done:  E(RB3LYP) =  -484.365055834     A.U. after   10 cycles
 SCF Done:  E(RB3LYP) =  -484.365275532     A.U. after   10 cycles
 SCF Done:  E(RB3LYP) =  -484.365425311     A.U. after   10 cycles
 SCF Done:  E(RB3LYP) =  -484.365491594     A.U. after   10 cycles
 SCF Done:  E(RB3LYP) =  -484.365569858     A.U. after   10 cycles
 SCF Done:  E(RB3LYP) =  -484.370602830     A.U. after   10 cycles
 SCF Done:  E(RB3LYP) =  -484.370622306     A.U. after   10 cycles
 SCF Done:  E(RB3LYP) =  -484.370650233     A.U. after    9 cycles
 SCF Done:  E(RB3LYP) =  -484.370652404     A.U. after    8 cycles
 SCF Done:  E(RB3LYP) =  -484.370652576     A.U. after    6 cycles
 SCF Done:  E(RB3LYP) =  -484.370652604     A.U. after    6 cycles
 Optimization completed.
    -- Stationary point found.
 Normal termination of Gaussian 16 at Tue Dec  8 20:47:39 2020.

 --------------------------------------------------------------------
 #N Geom=AllCheck Guess=TCheck SCRF=Check GenChk RB3LYP/6-31G(d) Freq
 --------------------------------------------------------------------

 Structure from the checkpoint file:  "JID_1645.chk"
 -------------------------------
 CID_119054985_JID_1645_neutraal
 -------------------------------
 Charge =  0 Multiplicity = 1

 SCF Done:  E(RB3LYP) =  -484.370652604     A.U. after    1 cycles

  Exact polarizability: 129.877   0.246  98.510  -0.093   0.254  88.067
 Approx polarizability: 141.792   1.685 140.062   0.835   0.065 134.499

                      1                      2                      3
                      A                      A                      A
 Frequencies --     29.2876                50.2652                73.2496
 Red. masses --      3.4035                 3.1973                 2.6124
 Frc consts  --      0.0017                 0.0048                 0.0083
 IR Inten    --      0.2438                 0.0919                 0.2490

                      4                      5                      6
                      A                      A                      A
 Frequencies --     82.1753               103.8843               145.2799
 Red. masses --      2.7583                 2.9597                 2.3586
 Frc consts  --      0.0110                 0.0188                 0.0293
 IR Inten    --      0.4218                 3.4159                 0.6185

                      7                      8                      9
                      A                      A                      A
 Frequencies --    203.4606               240.2241               255.5036
 Red. masses --      3.0547                 1.6352                 1.0829
 Frc consts  --      0.0745                 0.0556                 0.0417
 IR Inten    --      2.8465                 0.5703                 0.1794

                     10                     11                     12
                      A                      A                      A
 Frequencies --    273.6424               298.3547               315.3133
 Red. masses --      1.5768                 2.8117                 2.5681
 Frc consts  --      0.0696                 0.1475                 0.1504
 IR Inten    --      1.7020                 2.6776                 4.7783

                     13                     14                     15
                      A                      A                      A
 Frequencies --    344.4426               356.3549               432.0616
 Red. masses --      2.2642                 2.1955                 1.5745
 Frc consts  --      0.1583                 0.1643                 0.1732
 IR Inten    --      1.6807                 0.3227                 0.2621

                     16                     17                     18
                      A                      A                      A
 Frequencies --    466.8928               591.0554               691.9519
 Red. masses --      3.2368                 2.6992                 2.7994
 Frc consts  --      0.4157                 0.5556                 0.7897
 IR Inten    --      0.9220                 1.5507                 8.0790

                     19                     20                     21
                      A                      A                      A
 Frequencies --    805.0962               821.5224               826.0541
 Red. masses --      2.1277                 1.6307                 1.4410
 Frc consts  --      0.8126                 0.6484                 0.5794
 IR Inten    --      1.5592                71.8596                 4.5501

                     22                     23                     24
                      A                      A                      A
 Frequencies --    863.6564               883.6022               914.4790
 Red. masses --      1.8968                 2.0205                 2.1135
 Frc consts  --      0.8336                 0.9294                 1.0414
 IR Inten    --     13.7950                 1.7531                 1.0112

                     25                     26                     27
                      A                      A                      A
 Frequencies --    920.8608               938.9719               950.8432
 Red. masses --      1.6374                 1.8539                 1.6474
 Frc consts  --      0.8181                 0.9630                 0.8775
 IR Inten    --     21.5801                 2.4271                 1.0362

                     28                     29                     30
                      A                      A                      A
 Frequencies --   1002.9278              1030.3097              1042.3509
 Red. masses --      1.1786                 2.0877                 1.7555
 Frc consts  --      0.6985                 1.3057                 1.1237
 IR Inten    --      4.3398                 3.0072                 2.5606

                     31                     32                     33
                      A                      A                      A
 Frequencies --   1053.2990              1089.5834              1115.7516
 Red. masses --      1.9275                 2.2520                 1.5475
 Frc consts  --      1.2599                 1.5752                 1.1350
 IR Inten    --      2.6682                 8.8097                17.5163

                     34                     35                     36
                      A                      A                      A
 Frequencies --   1130.0006              1149.1362              1154.7805
 Red. masses --      2.4814                 3.5211                 1.2401
 Frc consts  --      1.8668                 2.7395                 0.9743
 IR Inten    --      6.3560               170.9909                 2.6290

                     37                     38                     39
                      A                      A                      A
 Frequencies --   1174.0056              1182.8203              1201.0422
 Red. masses --      3.5613                 1.6699                 2.1458
 Frc consts  --      2.8920                 1.3765                 1.8237
 IR Inten    --     46.6825                34.8417                 4.3687

                     40                     41                     42
                      A                      A                      A
 Frequencies --   1219.3239              1247.0051              1254.2087
 Red. masses --      1.9068                 1.5071                 1.4718
 Frc consts  --      1.6703                 1.3808                 1.3641
 IR Inten    --      1.8130                 0.3851                 1.5728

                     43                     44                     45
                      A                      A                      A
 Frequencies --   1272.8382              1282.7536              1291.7613
 Red. masses --      1.1711                 1.3150                 1.4536
 Frc consts  --      1.1179                 1.2749                 1.4291
 IR Inten    --     12.5839                 0.8211                 1.3753

                     46                     47                     48
                      A                      A                      A
 Frequencies --   1299.3402              1320.0189              1328.8586
 Red. masses --      1.3744                 1.2737                 1.3024
 Frc consts  --      1.3671                 1.3076                 1.3550
 IR Inten    --      2.0491                 3.3540                 8.0792

                     49                     50                     51
                      A                      A                      A
 Frequencies --   1377.3090              1388.9928              1402.7374
 Red. masses --      1.4082                 1.3880                 1.3086
 Frc consts  --      1.5739                 1.5778                 1.5171
 IR Inten    --      9.0382                 0.4183                31.4335

                     52                     53                     54
                      A                      A                      A
 Frequencies --   1425.7316              1440.3958              1449.5279
 Red. masses --      1.3869                 1.2681                 1.4223
 Frc consts  --      1.6610                 1.5502                 1.7607
 IR Inten    --     33.9457                 3.9684                 2.5149

                     55                     56                     57
                      A                      A                      A
 Frequencies --   1484.1299              1502.2574              1509.3786
 Red. masses --      1.1802                 1.0865                 1.2231
 Frc consts  --      1.5317                 1.4447                 1.6417
 IR Inten    --      5.0746                 1.9510                35.3389

                     58                     59                     60
                      A                      A                      A
 Frequencies --   1514.5212              1518.7434              1524.4145
 Red. masses --      1.0890                 1.0676                 1.0818
 Frc consts  --      1.4717                 1.4509                 1.4811
 IR Inten    --      0.8751                 4.4034                 4.0167

                     61                     62                     63
                      A                      A                      A
 Frequencies --   1528.4803              1530.0785              1536.8973
 Red. masses --      1.0514                 1.0760                 1.0906
 Frc consts  --      1.4472                 1.4841                 1.5177
 IR Inten    --      1.1150                 4.0206                17.9041

                     64                     65                     66
                      A                      A                      A
 Frequencies --   1542.3788              1547.3103              2933.6521
 Red. masses --      1.0941                 1.0562                 1.0724
 Frc consts  --      1.5336                 1.4898                 5.4378
 IR Inten    --      6.6304                 9.7300                42.5338

                     67                     68                     69
                      A                      A                      A
 Frequencies --   2947.0211              2974.2630              3005.3769
 Red. masses --      1.0623                 1.0697                 1.0571
 Frc consts  --      5.4357                 5.5755                 5.6254
 IR Inten    --    133.9759                42.1129                35.6746

                     70                     71                     72
                      A                      A                      A
 Frequencies --   3037.2644              3048.7093              3051.7197
 Red. masses --      1.0355                 1.1051                 1.0661
 Frc consts  --      5.6280                 6.0518                 5.8498
 IR Inten    --     31.0095                51.9306                26.0613

                     73                     74                     75
                      A                      A                      A
 Frequencies --   3054.5081              3055.6298              3066.4579
 Red. masses --      1.0688                 1.0819                 1.0749
 Frc consts  --      5.8751                 5.9515                 5.9550
 IR Inten    --     20.7962                72.1382                25.7590

                     76                     77                     78
                      A                      A                      A
 Frequencies --   3066.7471              3069.9154              3081.3848
 Red. masses --      1.0737                 1.0856                 1.0941
 Frc consts  --      5.9497                 6.0280                 6.1207
 IR Inten    --     56.0525                13.0402                29.4878

                     79                     80                     81
                      A                      A                      A
 Frequencies --   3102.6411              3104.2207              3107.6541
 Red. masses --      1.1027                 1.1061                 1.1042
 Frc consts  --      6.2541                 6.2797                 6.2827
 IR Inten    --     42.7573                 2.8605                45.7889

                     82                     83                     84
                      A                      A                      A
 Frequencies --   3111.8488              3116.2317              3504.6985
 Red. masses --      1.1045                 1.1013                 1.0734
 Frc consts  --      6.3019                 6.3011                 7.7679
 IR Inten    --     84.7043                36.7793                 2.7172

 - Thermochemistry -
 -------------------
 Temperature   298.150 Kelvin.  Pressure   1.00000 Atm.
 Atom     1 has atomic number  6 and mass  12.00000

 Molecular mass:   157.14666 amu.
 Principal axes and moments of inertia in atomic units:
                           1         2         3
     Eigenvalues --   492.616865022.306065274.58985
           X            1.00000  -0.00014   0.00006
           Y            0.00014   0.99973   0.02339
           Z           -0.00006  -0.02339   0.99973
 This molecule is an asymmetric top.
 Rotational symmetry number  1.
 Warning -- assumption of classical behavior for rotation
           may cause significant error
 Rotational temperatures (Kelvin)      0.17582     0.01725     0.01642
 Rotational constants (GHZ):           3.66358     0.35935     0.34216
 Zero-point vibrational energy     726036.5 (Joules/Mol)
                                  173.52690 (Kcal/Mol)
 Warning -- explicit consideration of  17 degrees of freedom as
           vibrations may cause significant error
 Vibrational temperatures:     42.14    72.32   105.39   118.23   149.47
          (Kelvin)            209.03   292.73   345.63   367.61   393.71
                              429.27   453.67   495.58   512.72   621.64
                              671.75   850.40   995.56  1158.35  1181.99
                             1188.51  1242.61  1271.31  1315.73  1324.91
                             1350.97  1368.05  1442.99  1482.39  1499.71
                             1515.46  1567.67  1605.32  1625.82  1653.35
                             1661.47  1689.13  1701.81  1728.03  1754.34
                             1794.16  1804.53  1831.33  1845.60  1858.56
                             1869.46  1899.21  1911.93  1981.64  1998.45
                             2018.23  2051.31  2072.41  2085.55  2135.33
                             2161.41  2171.66  2179.06  2185.13  2193.29
                             2199.14  2201.44  2211.25  2219.14  2226.23
                             4220.87  4240.11  4279.30  4324.07  4369.95
                             4386.41  4390.74  4394.76  4396.37  4411.95
                             4412.37  4416.92  4433.43  4464.01  4466.28
                             4471.22  4477.26  4483.56  5042.48

 Zero-point correction=                           0.276533 (Hartree/Particle)
 Thermal correction to Energy=                    0.289388
 Thermal correction to Enthalpy=                  0.290332
 Thermal correction to Gibbs Free Energy=         0.236184
 Sum of electronic and zero-point Energies=           -484.094120
 Sum of electronic and thermal Energies=              -484.081265
 Sum of electronic and thermal Enthalpies=            -484.080320
 Sum of electronic and thermal Free Energies=         -484.134469

                     E (Thermal)             CV                S
                      KCal/Mol        Cal/Mol-Kelvin    Cal/Mol-Kelvin
 Total                  181.594             46.775            113.965
 Electronic               0.000              0.000              0.000
 Translational            0.889              2.981             41.065
 Rotational               0.889              2.981             30.946
 Vibrational            179.816             40.813             41.953
 Vibration     1          0.593              1.984              5.877
 Vibration     2          0.595              1.977              4.807
 Vibration     3          0.599              1.967              4.064
 Vibration     4          0.600              1.961              3.838
 Vibration     5          0.605              1.946              3.380
 Vibration     6          0.617              1.908              2.733
 Vibration     7          0.639              1.835              2.102
 Vibration     8          0.657              1.779              1.801
 Vibration     9          0.666              1.753              1.692
 Vibration    10          0.676              1.722              1.573
 Vibration    11          0.691              1.677              1.426
 Vibration    12          0.703              1.644              1.334
 Vibration    13          0.723              1.587              1.191
 Vibration    14          0.732              1.562              1.138
 Vibration    15          0.793              1.400              0.852
 Vibration    16          0.824              1.323              0.746
 Vibration    17          0.948              1.051              0.465

 Optimization completed.
    -- Stationary point found.
 Normal termination of Gaussian 16 at Tue Dec  8 20:54:24 2020.

 ----------------------------------------------------------------------
 # B3LYP/6-311++G(d,p) empiricaldispersion=gd3bj scf=xqc pop=npa geom=c
 heck
 ----------------------------------------------------------------------

 ---------------------------------------
 CID_119054985_JID_1645_Energie_neutraal
 ---------------------------------------
 Structure from the checkpoint file:  "JID_1645.chk"
 Charge =  0 Multiplicity = 1

 SCF Done:  E(RB3LYP) =  -484.512641169     A.U. after   13 cycles
 Normal termination of Gaussian 16 at Tue Dec  8 20:57:54 2020.

 ----------------------------------------------------------------------
 # B3LYP/6-311++G(d,p) empiricaldispersion=gd3bj scf=xqc pop=npa geom=c
 heck
 ----------------------------------------------------------------------

 -------------------------------------
 CID_119054985_JID_1645_Energie_kation
 -------------------------------------
 Structure from the checkpoint file:  "JID_1645.chk"
 Charge =  1 Multiplicity = 2

 SCF Done:  E(UB3LYP) =  -484.208624616     A.U. after   20 cycles
 Normal termination of Gaussian 16 at Tue Dec  8 21:04:36 2020.
 Gaussian 16:  ES64L-G16RevA.03 25-Dec-2016

 ----------------------------------------------------------------------
 # B3LYP/6-311++G(d,p) empiricaldispersion=gd3bj scf=xqc pop=npa geom=c
 heck
 ----------------------------------------------------------------------

 ------------------------------------
 CID_119054985_JID_1645_Energie_anion
 ------------------------------------
 Structure from the checkpoint file:  "JID_1645.chk"
 Charge = -1 Multiplicity = 2

                         Standard orientation:
 ---------------------------------------------------------------------
 Center     Atomic      Atomic             Coordinates (Angstroms)
 Number     Number       Type             X           Y           Z
 ---------------------------------------------------------------------
      1          6           0       -4.326131    0.868021    0.538182
      2          6           0       -3.415236    0.234090   -0.508248
      3          6           0       -2.847081   -1.153367   -0.091179
      4          6           0       -1.515401   -0.465912    0.318832
      5          6           0       -1.960564    0.783297   -0.494717
      6          6           0       -0.237215   -1.201815   -0.055070
      7          8           0        0.953420   -0.608216    0.437071
      8          6           0        1.317351    0.611979   -0.195732
      9          6           0        2.761632    0.901472    0.173159
     10          7           0        3.629437   -0.145903   -0.345103
     11          6           0        5.008247   -0.012906    0.100909
     12          1           0       -5.276565    0.326407    0.615014
     13          1           0       -3.857354    0.859447    1.530243
     14          1           0       -4.550365    1.911428    0.285973
     15          1           0       -3.908789    0.255032   -1.486504
     16          1           0       -3.389250   -1.702005    0.686582
     17          1           0       -2.709013   -1.817851   -0.952496
     18          1           0       -1.492366   -0.251523    1.392968
     19          1           0       -1.512344    0.795571   -1.494652
     20          1           0       -1.808167    1.765171   -0.033576
     21          1           0       -0.258531   -2.208270    0.379490
     22          1           0       -0.180007   -1.311937   -1.152380
     23          1           0        1.225889    0.511922   -1.288401
     24          1           0        0.667883    1.436230    0.132051
     25          1           0        3.056318    1.862787   -0.269334
     26          1           0        2.830627    1.017994    1.272715
     27          1           0        3.248379   -1.035082   -0.027637
     28          1           0        5.126879    0.048337    1.199825
     29          1           0        5.595032   -0.863796   -0.260482
     30          1           0        5.444716    0.898038   -0.327065
 ---------------------------------------------------------------------

 SCF Done:  E(UB3LYP) =  -484.495316776     A.U. after   30 cycles

 The electronic state is 2-A.
 Alpha  occ. eigenvalues --  -19.03172 -14.20211 -10.12069 -10.11999 -10.09730
 Alpha  occ. eigenvalues --  -10.09323 -10.07593 -10.07381 -10.06819 -10.06583
 Alpha  occ. eigenvalues --  -10.05834  -0.94424  -0.81072  -0.75474  -0.66800
 Alpha  occ. eigenvalues --   -0.63280  -0.58798  -0.56393  -0.55910  -0.51458
 Alpha  occ. eigenvalues --   -0.49123  -0.43582  -0.41263  -0.40065  -0.39520
 Alpha  occ. eigenvalues --   -0.37374  -0.35992  -0.35613  -0.33750  -0.32166
 Alpha  occ. eigenvalues --   -0.31422  -0.29617  -0.28713  -0.28434  -0.27414
 Alpha  occ. eigenvalues --   -0.26929  -0.26519  -0.24208  -0.23182  -0.21830
 Alpha  occ. eigenvalues --   -0.20455  -0.20031  -0.16476  -0.13564   0.04450
 Alpha virt. eigenvalues --    0.05747   0.07291   0.07446   0.07853   0.08581
 Alpha virt. eigenvalues --    0.08951   0.10016   0.10143   0.10418   0.10586
 Alpha virt. eigenvalues --    0.10721   0.12362   0.12612   0.12857   0.13517

  Beta  occ. eigenvalues --  -19.03165 -14.20202 -10.12061 -10.11991 -10.09714
  Beta  occ. eigenvalues --  -10.09293 -10.07588 -10.07367 -10.06800 -10.06566
  Beta  occ. eigenvalues --  -10.05797  -0.94411  -0.81055  -0.75451  -0.66778
  Beta  occ. eigenvalues --   -0.63242  -0.58751  -0.56346  -0.55855  -0.51410
  Beta  occ. eigenvalues --   -0.49080  -0.43519  -0.41237  -0.40043  -0.39484
  Beta  occ. eigenvalues --   -0.37334  -0.35951  -0.35587  -0.33719  -0.32132
  Beta  occ. eigenvalues --   -0.31386  -0.29587  -0.28686  -0.28405  -0.27380
  Beta  occ. eigenvalues --   -0.26890  -0.26483  -0.24174  -0.23158  -0.21790
  Beta  occ. eigenvalues --   -0.20421  -0.20002  -0.16461  -0.13535
  Beta virt. eigenvalues --    0.06395   0.06835   0.07822   0.07986   0.08326
  Beta virt. eigenvalues --    0.09137   0.09397   0.10416   0.10653   0.10835
  Beta virt. eigenvalues --    0.10986   0.11192   0.12687   0.12939   0.13097

 Mulliken charges and spin densities:
               1          2
     1  C    1.882657  -2.584113
     2  C   -2.440304   2.827240
     3  C    0.747009  -1.407152
     4  C   -0.490831   1.017768
     5  C    1.128131  -1.655066
     6  C    0.522301  -1.225319
     7  O   -0.136793   0.020915
     8  C   -0.309362   0.258674
     9  C    0.379393  -1.013603
    10  N   -0.288876   0.187665
    11  C    0.595377  -0.924821
    12  H   -0.340564   0.480679
    13  H   -0.346853   0.494593
    14  H   -0.237416   0.376212
    15  H   -0.711897   0.921577
    16  H   -0.218527   0.361421
    17  H   -0.187217   0.319550
    18  H    0.182884   0.020744
    19  H   -0.146618   0.302539
    20  H   -0.129737   0.267694
    21  H   -0.009614   0.163427
    22  H    0.089793   0.064399
    23  H    0.113967   0.037481
    24  H   -0.053268   0.202875
    25  H   -0.140229   0.318660
    26  H    0.013835   0.110456
    27  H    0.201017   0.026041
    28  H   -0.170000   0.279852
    29  H   -0.242952   0.366104
    30  H   -0.255308   0.383506
 Sum of Mulliken charges =  -1.00000   1.00000

 Dipole moment (field-independent basis, Debye):
    X=              2.5207    Y=             -1.9192    Z=              0.7377  Tot=              3.2529
 Quadrupole moment (field-independent basis, Debye-Ang):
   XX=           -191.4739   YY=           -106.7435   ZZ=           -104.6382
   XY=              1.0443   XZ=             -1.0983   YZ=             -0.2803

 Summary of Natural Population Analysis:

                                       Natural Population
                Natural  -----------------------------------------------
    Atom  No    Charge         Core      Valence    Rydberg      Total
 -----------------------------------------------------------------------
      C    1   -0.28386      0.99965     2.27786    0.00636     3.28386
      C    2   -0.11000      0.99962     2.09885    0.01154     3.11000
      C    3   -0.18484      0.99962     2.17597    0.00926     3.18484
      C    4   -0.12657      0.99960     2.11745    0.00953     3.12657
      C    5   -0.18768      0.99961     2.17862    0.00944     3.18768
      C    6   -0.00101      0.99953     1.99026    0.01121     3.00101
      O    7   -0.30621      0.99988     3.29691    0.00942     4.30621
      C    8   -0.01477      0.99957     2.00248    0.01272     3.01477
      C    9   -0.09489      0.99963     2.08230    0.01296     3.09489
      N   10   -0.33961      0.99974     2.82827    0.01160     3.83961
      C   11   -0.17545      0.99967     2.16893    0.00684     3.17545
      H   12    0.10019      0.00000     0.39833    0.00148     0.39981
      H   13    0.09484      0.00000     0.40375    0.00141     0.40516
      H   14    0.10039      0.00000     0.39822    0.00138     0.39961
      H   15    0.09499      0.00000     0.40323    0.00178     0.40501
      H   16    0.09795      0.00000     0.40099    0.00106     0.40205
      H   17    0.09782      0.00000     0.40080    0.00138     0.40218
      H   18    0.09962      0.00000     0.39893    0.00145     0.40038
      H   19    0.09850      0.00000     0.39993    0.00157     0.40150
      H   20    0.09858      0.00000     0.40017    0.00125     0.40142
      H   21    0.08916      0.00000     0.40940    0.00144     0.41084
      H   22    0.07685      0.00000     0.42153    0.00162     0.42315
      H   23    0.08212      0.00000     0.41604    0.00184     0.41788
      H   24    0.08458      0.00000     0.41384    0.00158     0.41542
      H   25    0.09360      0.00000     0.40507    0.00133     0.40640
      H   26    0.08053      0.00000     0.41783    0.00165     0.41947
      H   27    0.17493      0.00000     0.32092    0.00415     0.32507
      H   28    0.07696      0.00000     0.42080    0.00224     0.42304
      H   29    0.09325      0.00000     0.40552    0.00123     0.40675
      H   30    0.09007      0.00000     0.40811    0.00183     0.40993
 =======================================================================
   * Total *   -0.00000     10.99613    32.86132    0.14255    44.00000

 Normal termination of Gaussian 16 at Tue Dec  8 21:14:30 2020.
