 Gaussian 16, Revision A.03,

 -----------------------------------------------------------
 # opt freq B3LYP/6-31G(d) empiricaldispersion=gd3bj scf=xqc
 -----------------------------------------------------------

 -------------------------------
 CID_124089431_JID_9781_neutraal
 -------------------------------
 Symbolic Z-matrix:
 Charge =  0 Multiplicity = 1

 SCF Done:  E(RB3LYP) =  -992.295197847     A.U. after   15 cycles
 SCF Done:  E(RB3LYP) =  -992.306737674     A.U. after   13 cycles
 SCF Done:  E(RB3LYP) =  -992.308176697     A.U. after   13 cycles
 SCF Done:  E(RB3LYP) =  -992.309058478     A.U. after   13 cycles
 SCF Done:  E(RB3LYP) =  -992.309205890     A.U. after   12 cycles
 SCF Done:  E(RB3LYP) =  -992.308184912     A.U. after   13 cycles
 SCF Done:  E(RB3LYP) =  -992.308595545     A.U. after   13 cycles
 SCF Done:  E(RB3LYP) =  -992.309691034     A.U. after   10 cycles
 SCF Done:  E(RB3LYP) =  -992.309797508     A.U. after   12 cycles
 SCF Done:  E(RB3LYP) =  -992.309882343     A.U. after   12 cycles
 SCF Done:  E(RB3LYP) =  -992.310076247     A.U. after    9 cycles
 SCF Done:  E(RB3LYP) =  -992.310077257     A.U. after    8 cycles
 SCF Done:  E(RB3LYP) =  -992.310077576     A.U. after    8 cycles
 SCF Done:  E(RB3LYP) =  -992.310077627     A.U. after    7 cycles
 Optimization completed.
    -- Stationary point found.
 Normal termination of Gaussian 16 at Thu Dec 17 20:22:58 2020.

 --------------------------------------------------------------------
 #N Geom=AllCheck Guess=TCheck SCRF=Check GenChk RB3LYP/6-31G(d) Freq
 --------------------------------------------------------------------

 Structure from the checkpoint file:  "JID_9781.chk"
 -------------------------------
 CID_124089431_JID_9781_neutraal
 -------------------------------
 Charge =  0 Multiplicity = 1

 SCF Done:  E(RB3LYP) =  -992.310077627     A.U. after    1 cycles

  Exact polarizability: 170.216  -7.564 132.547   0.812  14.808 116.234
 Approx polarizability: 236.908 -16.541 214.383  -3.726  42.745 188.173

                      1                      2                      3
                      A                      A                      A
 Frequencies --     30.7291                46.5594                60.8673
 Red. masses --      4.3618                 5.8552                 5.0920
 Frc consts  --      0.0024                 0.0075                 0.0111
 IR Inten    --      0.5243                 1.3033                 2.1594

                      4                      5                      6
                      A                      A                      A
 Frequencies --     82.2543                94.7071               100.4391
 Red. masses --      2.6464                 1.7419                 1.9163
 Frc consts  --      0.0105                 0.0092                 0.0114
 IR Inten    --      2.1790                 0.2497                 0.0187

                      7                      8                      9
                      A                      A                      A
 Frequencies --    102.2313               125.0575               157.1979
 Red. masses --      2.3943                 4.7313                 3.2578
 Frc consts  --      0.0147                 0.0436                 0.0474
 IR Inten    --      0.2844                 1.8237                 0.2864

                     10                     11                     12
                      A                      A                      A
 Frequencies --    189.0913               199.4644               206.3484
 Red. masses --      3.9090                 4.6121                 2.9554
 Frc consts  --      0.0823                 0.1081                 0.0741
 IR Inten    --      2.9827                 0.5809                 2.5873

                     13                     14                     15
                      A                      A                      A
 Frequencies --    218.7516               251.0143               273.4341
 Red. masses --      3.3605                 7.0299                 3.5896
 Frc consts  --      0.0947                 0.2610                 0.1581
 IR Inten    --      2.5005                 2.5422                 1.4083

                     16                     17                     18
                      A                      A                      A
 Frequencies --    291.9725               318.2360               331.0502
 Red. masses --      6.0240                 6.1203                 7.3752
 Frc consts  --      0.3026                 0.3652                 0.4762
 IR Inten    --     14.0659                 6.5431                 3.0835

                     19                     20                     21
                      A                      A                      A
 Frequencies --    368.0323               378.0940               388.8732
 Red. masses --      5.5164                 7.3987                 5.6606
 Frc consts  --      0.4402                 0.6232                 0.5043
 IR Inten    --      0.8042                 6.2363                 0.8969

                     22                     23                     24
                      A                      A                      A
 Frequencies --    410.1696               415.1752               447.5150
 Red. masses --      7.5858                 3.0989                 4.2882
 Frc consts  --      0.7519                 0.3147                 0.5060
 IR Inten    --      0.9113                 0.1675                 3.7070

                     25                     26                     27
                      A                      A                      A
 Frequencies --    531.3104               556.5883               571.1646
 Red. masses --      3.3059                 2.6891                 2.1710
 Frc consts  --      0.5498                 0.4908                 0.4173
 IR Inten    --      8.2476                21.8184                 0.4618

                     28                     29                     30
                      A                      A                      A
 Frequencies --    591.9612               624.8167               632.2495
 Red. masses --      1.9887                 1.6527                 2.9153
 Frc consts  --      0.4106                 0.3801                 0.6866
 IR Inten    --     86.2086                24.8918                30.1461

                     31                     32                     33
                      A                      A                      A
 Frequencies --    638.4494               660.9491               683.7592
 Red. masses --      4.0855                 3.3938                 3.5991
 Frc consts  --      0.9812                 0.8735                 0.9914
 IR Inten    --      9.4091               157.5587               112.7825

                     34                     35                     36
                      A                      A                      A
 Frequencies --    708.7778               715.2059               736.0413
 Red. masses --      1.7562                 3.1940                 3.1938
 Frc consts  --      0.5198                 0.9626                 1.0194
 IR Inten    --     31.1177               100.1069                22.9653

                     37                     38                     39
                      A                      A                      A
 Frequencies --    748.5607               785.5892               858.0348
 Red. masses --      4.1903                 2.0760                 1.2513
 Frc consts  --      1.3834                 0.7549                 0.5428
 IR Inten    --     10.4504                43.9083                 0.0901

                     40                     41                     42
                      A                      A                      A
 Frequencies --    899.7184               933.9161               961.8709
 Red. masses --      6.3647                 1.5191                 4.5724
 Frc consts  --      3.0356                 0.7806                 2.4925
 IR Inten    --     29.3698                19.2620                43.6605

                     43                     44                     45
                      A                      A                      A
 Frequencies --    972.5848               993.9058              1014.7163
 Red. masses --      1.3700                 1.2490                 8.2225
 Frc consts  --      0.7635                 0.7269                 4.9882
 IR Inten    --      1.2338                 0.2750               140.5966

                     46                     47                     48
                      A                      A                      A
 Frequencies --   1024.9625              1033.6474              1055.1893
 Red. masses --      6.2414                 6.4409                 6.8411
 Frc consts  --      3.8632                 4.0545                 4.4878
 IR Inten    --      0.0482                 3.1951                24.4984

                     49                     50                     51
                      A                      A                      A
 Frequencies --   1068.5826              1103.4069              1119.7827
 Red. masses --      2.2620                 7.6308                 1.8942
 Frc consts  --      1.5218                 5.4738                 1.3994
 IR Inten    --      7.9277               142.4375                34.9136

                     52                     53                     54
                      A                      A                      A
 Frequencies --   1153.1272              1170.6852              1186.5084
 Red. masses --      4.0306                 3.2594                 1.4424
 Frc consts  --      3.1577                 2.6319                 1.1964
 IR Inten    --     44.4070               212.1645                42.6844

                     55                     56                     57
                      A                      A                      A
 Frequencies --   1195.2720              1195.8763              1206.2522
 Red. masses --      1.1023                 1.2642                 2.4567
 Frc consts  --      0.9278                 1.0653                 2.1061
 IR Inten    --      1.9509                 1.7021               289.2826

                     58                     59                     60
                      A                      A                      A
 Frequencies --   1215.6491              1218.4022              1225.5498
 Red. masses --      1.8478                 2.3826                 1.1709
 Frc consts  --      1.6089                 2.0839                 1.0362
 IR Inten    --     67.5074                56.0493                 3.2202

                     61                     62                     63
                      A                      A                      A
 Frequencies --   1238.5272              1256.2822              1356.0340
 Red. masses --      1.6915                 2.1676                 3.5765
 Frc consts  --      1.5287                 2.0156                 3.8748
 IR Inten    --     57.1158                42.7168                 3.0744

                     64                     65                     66
                      A                      A                      A
 Frequencies --   1374.1097              1385.5278              1391.1869
 Red. masses --      1.6111                 2.4820                 2.5292
 Frc consts  --      1.7923                 2.8073                 2.8840
 IR Inten    --      0.7703                42.0884                79.8189

                     67                     68                     69
                      A                      A                      A
 Frequencies --   1465.0240              1495.5261              1498.4031
 Red. masses --      1.4374                 1.1913                 1.7882
 Frc consts  --      1.8177                 1.5699                 2.3655
 IR Inten    --    117.8795                 8.0551                11.0797

                     70                     71                     72
                      A                      A                      A
 Frequencies --   1501.3747              1520.2356              1521.2972
 Red. masses --      1.2699                 1.0592                 1.0490
 Frc consts  --      1.6865                 1.4423                 1.4304
 IR Inten    --     23.8875                 0.2611                 6.4409

                     73                     74                     75
                      A                      A                      A
 Frequencies --   1539.2027              1541.8637              1549.1014
 Red. masses --      1.0504                 1.0586                 2.1622
 Frc consts  --      1.4662                 1.4828                 3.0571
 IR Inten    --      4.1522                 5.7868                 4.9390

                     76                     77                     78
                      A                      A                      A
 Frequencies --   1646.7260              1668.4972              1818.0506
 Red. masses --      5.5711                 5.5135                 9.6447
 Frc consts  --      8.9009                 9.0433                18.7824
 IR Inten    --      2.3621                 0.2411               172.7990

                     79                     80                     81
                      A                      A                      A
 Frequencies --   1837.2721              3060.3408              3067.2421
 Red. masses --     10.4179                 1.0292                 1.0301
 Frc consts  --     20.7194                 5.6794                 5.7099
 IR Inten    --    255.0339                44.5617                47.2793

                     82                     83                     84
                      A                      A                      A
 Frequencies --   3134.5175              3143.2691              3147.7247
 Red. masses --      1.1054                 1.1060                 1.1069
 Frc consts  --      6.3990                 6.4385                 6.4620
 IR Inten    --     26.0102                18.8847                25.1692

                     85                     86                     87
                      A                      A                      A
 Frequencies --   3163.7824              3181.8957              3193.6857
 Red. masses --      1.1060                 1.0853                 1.0903
 Frc consts  --      6.5227                 6.4743                 6.5521
 IR Inten    --     16.6256                 0.2888                23.1238

                     88                     89                     90
                      A                      A                      A
 Frequencies --   3206.1674              3230.0253              3293.8947
 Red. masses --      1.0960                 1.0925                 1.0906
 Frc consts  --      6.6380                 6.7158                 6.9715
 IR Inten    --     35.3549                 5.0623                 1.6528

                     91                     92                     93
                      A                      A                      A
 Frequencies --   3584.9400              3674.7019              3675.7389
 Red. masses --      1.0648                 1.0640                 1.0640
 Frc consts  --      8.0628                 8.4650                 8.4697
 IR Inten    --    174.8522                74.0099                59.4268

 - Thermochemistry -
 -------------------
 Temperature   298.150 Kelvin.  Pressure   1.00000 Atm.
 Atom     1 has atomic number  6 and mass  12.00000

 Molecular mass:   270.07395 amu.
 Principal axes and moments of inertia in atomic units:
                           1         2         3
     Eigenvalues --  2865.984455634.906726111.75787
           X            0.99993   0.00779   0.00836
           Y           -0.00798   0.99970   0.02311
           Z           -0.00818  -0.02318   0.99970
 This molecule is an asymmetric top.
 Rotational symmetry number  1.
 Warning -- assumption of classical behavior for rotation
           may cause significant error
 Rotational temperatures (Kelvin)      0.03022     0.01537     0.01417
 Rotational constants (GHZ):           0.62971     0.32028     0.29529
 Zero-point vibrational energy     674948.0 (Joules/Mol)
                                  161.31645 (Kcal/Mol)
 Warning -- explicit consideration of  28 degrees of freedom as
           vibrations may cause significant error
 Vibrational temperatures:     44.21    66.99    87.57   118.35   136.26
          (Kelvin)            144.51   147.09   179.93   226.17   272.06
                              286.98   296.89   314.73   361.15   393.41
                              420.08   457.87   476.31   529.52   543.99
                              559.50   590.14   597.34   643.87   764.44
                              800.81   821.78   851.70   898.97   909.67
                              918.59   950.96   983.78  1019.77  1029.02
                             1059.00  1077.01  1130.29  1234.52  1294.49
                             1343.70  1383.92  1399.33  1430.01  1459.95
                             1474.69  1487.19  1518.18  1537.45  1587.56
                             1611.12  1659.09  1684.35  1707.12  1719.73
                             1720.60  1735.53  1749.05  1753.01  1763.29
                             1781.96  1807.51  1951.03  1977.04  1993.47
                             2001.61  2107.84  2151.73  2155.87  2160.14
                             2187.28  2188.81  2214.57  2218.40  2228.81
                             2369.27  2400.60  2615.77  2643.42  4403.15
                             4413.08  4509.87  4522.46  4528.87  4551.98
                             4578.04  4595.00  4612.96  4647.29  4739.18
                             5157.93  5287.08  5288.57

 Zero-point correction=                           0.257074 (Hartree/Particle)
 Thermal correction to Energy=                    0.275615
 Thermal correction to Enthalpy=                  0.276559
 Thermal correction to Gibbs Free Energy=         0.210338
 Sum of electronic and zero-point Energies=           -992.053004
 Sum of electronic and thermal Energies=              -992.034462
 Sum of electronic and thermal Enthalpies=            -992.033518
 Sum of electronic and thermal Free Energies=         -992.099739

                     E (Thermal)             CV                S
                      KCal/Mol        Cal/Mol-Kelvin    Cal/Mol-Kelvin
 Total                  172.951             69.399            139.374
 Electronic               0.000              0.000              0.000
 Translational            0.889              2.981             42.680
 Rotational               0.889              2.981             32.956
 Vibrational            171.174             63.438             63.738
 Vibration     1          0.594              1.984              5.782
 Vibration     2          0.595              1.979              4.958
 Vibration     3          0.597              1.973              4.429
 Vibration     4          0.600              1.961              3.836
 Vibration     5          0.603              1.953              3.560
 Vibration     6          0.604              1.949              3.446
 Vibration     7          0.604              1.947              3.411
 Vibration     8          0.610              1.928              3.021
 Vibration     9          0.621              1.895              2.583
 Vibration    10          0.633              1.855              2.237
 Vibration    11          0.638              1.841              2.138
 Vibration    12          0.641              1.831              2.076
 Vibration    13          0.647              1.813              1.969
 Vibration    14          0.663              1.761              1.723
 Vibration    15          0.676              1.722              1.574
 Vibration    16          0.687              1.689              1.463
 Vibration    17          0.705              1.639              1.319
 Vibration    18          0.713              1.613              1.255
 Vibration    19          0.741              1.538              1.088
 Vibration    20          0.748              1.517              1.047
 Vibration    21          0.757              1.494              1.004
 Vibration    22          0.774              1.448              0.926
 Vibration    23          0.779              1.437              0.909
 Vibration    24          0.807              1.366              0.803
 Vibration    25          0.886              1.181              0.584
 Vibration    26          0.912              1.125              0.531
 Vibration    27          0.927              1.094              0.502
 Vibration    28          0.949              1.049              0.464

                           ! Non-Optimized Parameters !
 Normal termination of Gaussian 16 at Thu Dec 17 20:42:04 2020.

 ----------------------------------------------------------------------
 # B3LYP/6-311++G(d,p) empiricaldispersion=gd3bj scf=xqc pop=npa geom=c
 heck
 ----------------------------------------------------------------------

 ---------------------------------------
 CID_124089431_JID_9781_Energie_neutraal
 ---------------------------------------
 Structure from the checkpoint file:  "JID_9781.chk"
 Charge =  0 Multiplicity = 1

 SCF Done:  E(RB3LYP) =  -992.615920538     A.U. after   15 cycles
 Normal termination of Gaussian 16 at Thu Dec 17 20:49:15 2020.

 ----------------------------------------------------------------------
 # B3LYP/6-311++G(d,p) empiricaldispersion=gd3bj scf=xqc pop=npa geom=c
 heck
 ----------------------------------------------------------------------

 -------------------------------------
 CID_124089431_JID_9781_Energie_kation
 -------------------------------------
 Structure from the checkpoint file:  "JID_9781.chk"
 Charge =  1 Multiplicity = 2

 SCF Done:  E(UB3LYP) =  -992.297217819     A.U. after   33 cycles
 SCF Done:  E(UB3LYP) =  -992.297217819     a.u. after    2 cycles
 Normal termination of Gaussian 16 at Thu Dec 17 21:43:01 2020.
 Gaussian 16:  ES64L-G16RevA.03 25-Dec-2016

 ----------------------------------------------------------------------
 # B3LYP/6-311++G(d,p) empiricaldispersion=gd3bj scf=xqc pop=npa geom=c
 heck
 ----------------------------------------------------------------------

 ------------------------------------
 CID_124089431_JID_9781_Energie_anion
 ------------------------------------
 Structure from the checkpoint file:  "JID_9781.chk"
 Charge = -1 Multiplicity = 2

                         Standard orientation:
 ---------------------------------------------------------------------
 Center     Atomic      Atomic             Coordinates (Angstroms)
 Number     Number       Type             X           Y           Z
 ---------------------------------------------------------------------
      1          6           0       -0.254384   -2.136201    1.589940
      2          8           0        0.076874   -1.979127    0.209747
      3          6           0       -0.109705   -0.704331   -0.401815
      4          6           0       -1.526711   -0.186184   -0.169016
      5          6           0       -1.883131    0.963596    0.538315
      6          6           0       -3.230060    1.304704    0.686635
      7          6           0       -4.229772    0.501675    0.143581
      8          6           0       -3.877980   -0.653178   -0.559198
      9          6           0       -2.538032   -0.992691   -0.714068
     10          6           0        1.101882    0.230695    0.069962
     11          6           0        2.352574   -0.668624   -0.098650
     12          8           0        2.661618   -1.236403   -1.125835
     13          8           0        3.058850   -0.806474    1.036301
     14          6           0        1.155220    1.472987   -0.846169
     15          8           0        0.540542    2.489091   -0.616126
     16          8           0        1.952117    1.324812   -1.918120
     17          8           0        0.886159    0.582300    1.407229
     18          6           0        1.704787    1.606858    1.979195
     19          8           0        0.019225   -0.907540   -1.773053
     20          1           0       -0.290422   -3.215111    1.759510
     21          1           0       -1.232754   -1.700599    1.816861
     22          1           0        0.499972   -1.683737    2.239225
     23          1           0       -1.121870    1.598944    0.962575
     24          1           0       -3.491665    2.206364    1.233449
     25          1           0       -5.275456    0.771061    0.264955
     26          1           0       -4.647919   -1.287984   -0.988997
     27          1           0       -2.256024   -1.885060   -1.261113
     28          1           0        3.782070   -1.426827    0.821526
     29          1           0        1.853900    2.144359   -2.439866
     30          1           0        2.765335    1.439405    1.767863
     31          1           0        1.399396    2.593023    1.620538
     32          1           0        1.543920    1.538078    3.056567
     33          1           0        0.920301   -1.261013   -1.926535
 ---------------------------------------------------------------------

 SCF Done:  E(UB3LYP) =  -992.607914652     A.U. after   33 cycles
 SCF Done:  E(UB3LYP) =  -992.607914653     a.u. after    1 cycles

 The electronic state is 2-A.
 Alpha  occ. eigenvalues --  -19.06657 -19.06354 -19.03501 -19.02725 -19.01975
 Alpha  occ. eigenvalues --  -19.01421 -19.00456 -10.20420 -10.19253 -10.19136
 Alpha  occ. eigenvalues --  -10.15922 -10.10736 -10.10664 -10.08017 -10.07906
 Alpha  occ. eigenvalues --  -10.07801 -10.07526 -10.07275 -10.07057  -1.01726
 Alpha  occ. eigenvalues --   -1.00514  -0.97401  -0.94985  -0.92020  -0.91322
 Alpha  occ. eigenvalues --   -0.90203  -0.75915  -0.68681  -0.65989  -0.64826
 Alpha  occ. eigenvalues --   -0.60555  -0.58473  -0.55283  -0.54140  -0.51346
 Alpha  occ. eigenvalues --   -0.49378  -0.47166  -0.44795  -0.42354  -0.41228
 Alpha  occ. eigenvalues --   -0.41057  -0.40109  -0.38937  -0.38249  -0.37572
 Alpha  occ. eigenvalues --   -0.35190  -0.34936  -0.34227  -0.34100  -0.33050
 Alpha  occ. eigenvalues --   -0.32691  -0.32301  -0.31880  -0.31762  -0.30792
 Alpha  occ. eigenvalues --   -0.29420  -0.27333  -0.26820  -0.25701  -0.24702
 Alpha  occ. eigenvalues --   -0.23579  -0.22710  -0.22377  -0.22297  -0.20459
 Alpha  occ. eigenvalues --   -0.19658  -0.18640  -0.16362  -0.15896  -0.15570
 Alpha  occ. eigenvalues --   -0.15291   0.04682
 Alpha virt. eigenvalues --    0.06691   0.06936   0.07441   0.07981   0.08094
 Alpha virt. eigenvalues --    0.08644   0.08732   0.09072   0.09905   0.10241
 Alpha virt. eigenvalues --    0.11222   0.11858   0.12376   0.12914   0.13828

  Beta  occ. eigenvalues --  -19.06585 -19.06305 -19.03477 -19.02696 -19.01962
  Beta  occ. eigenvalues --  -19.01385 -19.00343 -10.20322 -10.19210 -10.18922
  Beta  occ. eigenvalues --  -10.15938 -10.10734 -10.10641 -10.07967 -10.07916
  Beta  occ. eigenvalues --  -10.07748 -10.07507 -10.07242 -10.07062  -1.01576
  Beta  occ. eigenvalues --   -1.00329  -0.97341  -0.94924  -0.91918  -0.91143
  Beta  occ. eigenvalues --   -0.90154  -0.75847  -0.68550  -0.65869  -0.64779
  Beta  occ. eigenvalues --   -0.60513  -0.58338  -0.55097  -0.53936  -0.51294
  Beta  occ. eigenvalues --   -0.49260  -0.47101  -0.44685  -0.42296  -0.41154
  Beta  occ. eigenvalues --   -0.40885  -0.40035  -0.38815  -0.38083  -0.37501
  Beta  occ. eigenvalues --   -0.35071  -0.34822  -0.34090  -0.33929  -0.32877
  Beta  occ. eigenvalues --   -0.32596  -0.32231  -0.31828  -0.31606  -0.30692
  Beta  occ. eigenvalues --   -0.29316  -0.27280  -0.26668  -0.25656  -0.24665
  Beta  occ. eigenvalues --   -0.23499  -0.22594  -0.22208  -0.21884  -0.20408
  Beta  occ. eigenvalues --   -0.19576  -0.18553  -0.16278  -0.15731  -0.15451
  Beta  occ. eigenvalues --   -0.15059
  Beta virt. eigenvalues --    0.06600   0.07582   0.07823   0.08079   0.08221
  Beta virt. eigenvalues --    0.08710   0.09020   0.09256   0.09444   0.10190
  Beta virt. eigenvalues --    0.10843   0.11499   0.11917   0.12487   0.13165

 Mulliken charges and spin densities:
               1          2
     1  C   -0.214585  -0.076246
     2  O    0.009437   0.011631
     3  C    0.384353  -0.083172
     4  C    0.346310   0.115233
     5  C   -0.229526   0.081886
     6  C   -0.468846  -0.029283
     7  C   -0.329513  -0.026106
     8  C   -0.442851  -0.039188
     9  C    0.070198   0.042604
    10  C   -0.037329  -0.731172
    11  C    0.314199  -0.254229
    12  O   -0.175730   0.020096
    13  O   -0.073617  -0.006301
    14  C   -0.798174   0.509980
    15  O   -0.224676   0.038560
    16  O   -0.139660   0.062670
    17  O    0.006903   0.019802
    18  C    0.625965  -0.839966
    19  O   -0.105371   0.023569
    20  H    0.105185   0.039061
    21  H    0.108213   0.032591
    22  H    0.196675   0.001365
    23  H    0.283208  -0.087267
    24  H    0.081970   0.077453
    25  H    0.108431   0.013888
    26  H    0.135499   0.011786
    27  H    0.189147   0.007479
    28  H   -0.646536   0.939257
    29  H    0.008693   0.263497
    30  H   -0.364857   0.537207
    31  H   -0.020455   0.184547
    32  H   -0.042051   0.182236
    33  H    0.339390  -0.043471
 Sum of Mulliken charges =  -1.00000   1.00000

 Dipole moment (field-independent basis, Debye):
    X=             -7.6715    Y=             -0.3449    Z=             -0.4561  Tot=              7.6928
 Quadrupole moment (field-independent basis, Debye-Ang):
   XX=           -172.6950   YY=           -140.6975   ZZ=           -136.7186
   XY=              6.7299   XZ=             -8.8483   YZ=             -0.3525

 Summary of Natural Population Analysis:

                                       Natural Population
                Natural  -----------------------------------------------
    Atom  No    Charge         Core      Valence    Rydberg      Total
 -----------------------------------------------------------------------
      C    1   -0.10276      0.99959     2.09510    0.00807     3.10276
      O    2   -0.30772      0.99986     3.29885    0.00901     4.30772
      C    3    0.30560      0.99949     1.67298    0.02193     2.69440
      C    4   -0.03127      0.99945     2.01964    0.01218     3.03127
      C    5   -0.08916      0.99951     2.08139    0.00826     3.08916
      C    6   -0.10322      0.99957     2.09388    0.00977     3.10322
      C    7   -0.09800      0.99957     2.08837    0.01006     3.09800
      C    8   -0.11152      0.99957     2.10337    0.00858     3.11152
      C    9   -0.08264      0.99952     2.07397    0.00916     3.08264
      C   10    0.04646      0.99940     1.93349    0.02064     2.95354
      C   11    0.42131      0.99967     1.55097    0.02804     2.57869
      O   12   -0.31309      0.99986     3.30671    0.00653     4.31309
      O   13   -0.33614      0.99987     3.32726    0.00901     4.33614
      C   14    0.42483      0.99967     1.54893    0.02658     2.57517
      O   15   -0.30016      0.99987     3.29412    0.00618     4.30016
      O   16   -0.33414      0.99987     3.32774    0.00653     4.33414
      O   17   -0.30229      0.99987     3.29059    0.01183     4.30229
      C   18   -0.10482      0.99958     2.09628    0.00896     3.10482
      O   19   -0.37109      0.99987     3.36555    0.00567     4.37109
      H   20    0.08478      0.00000     0.41430    0.00092     0.41522
      H   21    0.08664      0.00000     0.41221    0.00115     0.41336
      H   22    0.09206      0.00000     0.40653    0.00141     0.40794
      H   23    0.11898      0.00000     0.37916    0.00186     0.38102
      H   24    0.09783      0.00000     0.40138    0.00079     0.40217
      H   25    0.09513      0.00000     0.40403    0.00084     0.40487
      H   26    0.09583      0.00000     0.40325    0.00093     0.40417
      H   27    0.10898      0.00000     0.38977    0.00125     0.39102
      H   28    0.24869      0.00000     0.22591    0.02540     0.25131
      H   29    0.23938      0.00000     0.25711    0.00351     0.26062
      H   30    0.09224      0.00000     0.40557    0.00219     0.40776
      H   31    0.09143      0.00000     0.40722    0.00135     0.40857
      H   32    0.08991      0.00000     0.40923    0.00086     0.41009
      H   33    0.24796      0.00000     0.24906    0.00298     0.25204
 =======================================================================
   * Total *    0.00000     18.99367    51.73389    0.27244    71.00000

 Normal termination of Gaussian 16 at Thu Dec 17 22:06:23 2020.
