 Gaussian 16, Revision A.03,

 -----------------------------------------------------------
 # opt freq B3LYP/6-31G(d) empiricaldispersion=gd3bj scf=xqc
 -----------------------------------------------------------

 -------------------------------
 CID_131847153_JID_1581_neutraal
 -------------------------------
 Symbolic Z-matrix:
 Charge =  0 Multiplicity = 1

 SCF Done:  E(RB3LYP) =  -511.615532085     A.U. after   14 cycles
 SCF Done:  E(RB3LYP) =  -511.619895510     A.U. after   12 cycles
 SCF Done:  E(RB3LYP) =  -511.621036472     A.U. after   12 cycles
 SCF Done:  E(RB3LYP) =  -511.622128919     A.U. after   12 cycles
 SCF Done:  E(RB3LYP) =  -511.622764845     A.U. after   12 cycles
 SCF Done:  E(RB3LYP) =  -511.623004113     A.U. after   12 cycles
 SCF Done:  E(RB3LYP) =  -511.623059807     A.U. after   12 cycles
 SCF Done:  E(RB3LYP) =  -511.623100069     A.U. after   11 cycles
 SCF Done:  E(RB3LYP) =  -511.623127349     A.U. after   11 cycles
 SCF Done:  E(RB3LYP) =  -511.623143746     A.U. after   11 cycles
 SCF Done:  E(RB3LYP) =  -511.623154470     A.U. after   11 cycles
 SCF Done:  E(RB3LYP) =  -511.623158914     A.U. after   10 cycles
 SCF Done:  E(RB3LYP) =  -511.623159779     A.U. after    8 cycles
 SCF Done:  E(RB3LYP) =  -511.623159823     A.U. after    8 cycles
 SCF Done:  E(RB3LYP) =  -511.623159849     A.U. after    8 cycles
 Optimization completed.
    -- Stationary point found.
 Normal termination of Gaussian 16 at Tue Dec  8 21:30:18 2020.

 --------------------------------------------------------------------
 #N Geom=AllCheck Guess=TCheck SCRF=Check GenChk RB3LYP/6-31G(d) Freq
 --------------------------------------------------------------------

 Structure from the checkpoint file:  "JID_1581.chk"
 -------------------------------
 CID_131847153_JID_1581_neutraal
 -------------------------------
 Charge =  0 Multiplicity = 1

 SCF Done:  E(RB3LYP) =  -511.623159849     A.U. after    1 cycles

  Exact polarizability: 159.445   0.477 106.909  -0.268  -0.002  40.726
 Approx polarizability: 262.584   0.058 174.599   1.410  -0.518  62.132

                      1                      2                      3
                      A                      A                      A
 Frequencies --     26.3213               103.4618               184.7194
 Red. masses --      4.3192                 4.4199                 1.8537
 Frc consts  --      0.0018                 0.0279                 0.0373
 IR Inten    --      0.8891                 2.8153                 1.3034

                      4                      5                      6
                      A                      A                      A
 Frequencies --    196.0169               212.9794               271.8524
 Red. masses --      5.5418                 1.3905                 5.2080
 Frc consts  --      0.1255                 0.0372                 0.2268
 IR Inten    --      0.3797                 0.5689                 1.7324

                      7                      8                      9
                      A                      A                      A
 Frequencies --    280.0354               322.9244               398.7846
 Red. masses --      4.9430                 2.8662                 1.2149
 Frc consts  --      0.2284                 0.1761                 0.1138
 IR Inten    --      1.7634                 3.3561               136.3702

                     10                     11                     12
                      A                      A                      A
 Frequencies --    424.5195               435.7555               449.1845
 Red. masses --      1.2703                 4.3900                 2.5443
 Frc consts  --      0.1349                 0.4911                 0.3025
 IR Inten    --     88.2122                 4.8659                55.2473

                     13                     14                     15
                      A                      A                      A
 Frequencies --    494.3561               524.2995               551.2871
 Red. masses --      2.7638                 1.4880                 5.3702
 Frc consts  --      0.3980                 0.2410                 0.9616
 IR Inten    --     75.3378               178.9031                 1.9577

                     16                     17                     18
                      A                      A                      A
 Frequencies --    570.1744               651.1502               702.0727
 Red. masses --      3.6429                 3.7135                 5.0366
 Frc consts  --      0.6978                 0.9277                 1.4627
 IR Inten    --     78.2312                 9.7305                 3.3737

                     19                     20                     21
                      A                      A                      A
 Frequencies --    769.3379               776.3594               855.5823
 Red. masses --      4.1475                 5.1323                 1.5202
 Frc consts  --      1.4463                 1.8226                 0.6557
 IR Inten    --     10.4958                 7.2230                19.1896

                     22                     23                     24
                      A                      A                      A
 Frequencies --    858.1816               917.5681               952.1864
 Red. masses --      5.4068                 1.2694                 6.8545
 Frc consts  --      2.3461                 0.6297                 3.6616
 IR Inten    --     22.8873                 6.5686               195.1398

                     25                     26                     27
                      A                      A                      A
 Frequencies --    972.9212               984.4862              1038.7630
 Red. masses --      1.4439                 3.6758                 1.5169
 Frc consts  --      0.8053                 2.0990                 0.9644
 IR Inten    --      5.1702                 3.3683                 5.2143

                     28                     29                     30
                      A                      A                      A
 Frequencies --   1073.3070              1100.8131              1160.7612
 Red. masses --      1.5471                 1.4808                 3.8551
 Frc consts  --      1.0501                 1.0572                 3.0604
 IR Inten    --      3.1095                 4.1330                23.6458

                     31                     32                     33
                      A                      A                      A
 Frequencies --   1242.3440              1326.2656              1335.5113
 Red. masses --      1.8279                 3.2772                 3.9122
 Frc consts  --      1.6622                 3.3964                 4.1112
 IR Inten    --     10.5592               103.1948                 7.2236

                     34                     35                     36
                      A                      A                      A
 Frequencies --   1381.5056              1387.9037              1432.1283
 Red. masses --      1.7243                 1.2694                 1.3590
 Frc consts  --      1.9390                 1.4407                 1.6423
 IR Inten    --      9.4056                84.3306                 5.0605

                     37                     38                     39
                      A                      A                      A
 Frequencies --   1442.1589              1469.9687              1518.1172
 Red. masses --      1.2563                 3.7178                 1.0441
 Frc consts  --      1.5395                 4.7331                 1.4177
 IR Inten    --      9.1280                59.7268                 6.8559

                     40                     41                     42
                      A                      A                      A
 Frequencies --   1524.4636              1544.2764              1600.6770
 Red. masses --      1.2739                 2.0676                 5.8484
 Frc consts  --      1.7443                 2.9051                 8.8287
 IR Inten    --     14.7311                73.8132                34.5315

                     43                     44                     45
                      A                      A                      A
 Frequencies --   1653.6526              1675.7822              1717.0144
 Red. masses --      2.1777                 1.9779                 5.8038
 Frc consts  --      3.5086                 3.2725                10.0811
 IR Inten    --     54.3830               488.9597                 6.2329

                     46                     47                     48
                      A                      A                      A
 Frequencies --   3051.2876              3106.5792              3134.3888
 Red. masses --      1.0376                 1.1007                 1.1011
 Frc consts  --      5.6918                 6.2590                 6.3738
 IR Inten    --     15.3150                13.3385                17.2399

                     49                     50                     51
                      A                      A                      A
 Frequencies --   3182.8237              3194.4122              3266.9608
 Red. masses --      1.0907                 1.0861                 1.0910
 Frc consts  --      6.5102                 6.5300                 6.8609
 IR Inten    --     22.5637                15.3371                 0.7525

                     52                     53                     54
                      A                      A                      A
 Frequencies --   3574.8578              3689.7893              3758.3931
 Red. masses --      1.0465                 1.1010                 1.0678
 Frc consts  --      7.8797                 8.8317                 8.8865
 IR Inten    --     53.6677                23.3544                90.4811

 - Thermochemistry -
 -------------------
 Temperature   298.150 Kelvin.  Pressure   1.00000 Atm.
 Atom     1 has atomic number  6 and mass  12.00000

 Molecular mass:   151.07456 amu.
 Principal axes and moments of inertia in atomic units:
                           1         2         3
     Eigenvalues --   931.961342332.840343252.34516
           X            0.99999   0.00258  -0.00279
           Y           -0.00257   1.00000   0.00155
           Z            0.00279  -0.00154   0.99999
 This molecule is an asymmetric top.
 Rotational symmetry number  1.
 Warning -- assumption of classical behavior for rotation
           may cause significant error
 Rotational temperatures (Kelvin)      0.09294     0.03713     0.02663
 Rotational constants (GHZ):           1.93650     0.77362     0.55490
 Zero-point vibrational energy     421512.7 (Joules/Mol)
                                  100.74396 (Kcal/Mol)
 Warning -- explicit consideration of  16 degrees of freedom as
           vibrations may cause significant error
 Vibrational temperatures:     37.87   148.86   265.77   282.02   306.43
          (Kelvin)            391.13   402.91   464.62   573.76   610.79
                              626.96   646.28   711.27   754.35   793.18
                              820.35   936.86  1010.13  1106.91  1117.01
                             1230.99  1234.73  1320.18  1369.98  1399.82
                             1416.46  1494.55  1544.25  1583.82  1670.08
                             1787.46  1908.20  1921.50  1987.68  1996.88
                             2060.51  2074.95  2114.96  2184.23  2193.36
                             2221.87  2303.02  2379.24  2411.08  2470.40
                             4390.12  4469.67  4509.69  4579.37  4596.05
                             4700.43  5143.42  5308.78  5407.49

 Zero-point correction=                           0.160546 (Hartree/Particle)
 Thermal correction to Energy=                    0.170833
 Thermal correction to Enthalpy=                  0.171778
 Thermal correction to Gibbs Free Energy=         0.124342
 Sum of electronic and zero-point Energies=           -511.462614
 Sum of electronic and thermal Energies=              -511.452326
 Sum of electronic and thermal Enthalpies=            -511.451382
 Sum of electronic and thermal Free Energies=         -511.498818

                     E (Thermal)             CV                S
                      KCal/Mol        Cal/Mol-Kelvin    Cal/Mol-Kelvin
 Total                  107.200             39.264             99.837
 Electronic               0.000              0.000              0.000
 Translational            0.889              2.981             40.948
 Rotational               0.889              2.981             30.337
 Vibrational            105.422             33.302             28.552
 Vibration     1          0.593              1.985              6.089
 Vibration     2          0.605              1.946              3.388
 Vibration     3          0.631              1.861              2.280
 Vibration     4          0.636              1.845              2.170
 Vibration     5          0.644              1.821              2.018
 Vibration     6          0.675              1.725              1.584
 Vibration     7          0.680              1.711              1.533
 Vibration     8          0.708              1.630              1.295
 Vibration     9          0.765              1.473              0.967
 Vibration    10          0.787              1.417              0.877
 Vibration    11          0.796              1.392              0.840
 Vibration    12          0.808              1.363              0.798
 Vibration    13          0.850              1.263              0.672
 Vibration    14          0.879              1.196              0.600
 Vibration    15          0.907              1.137              0.542
 Vibration    16          0.926              1.096              0.504

 Optimization completed.
    -- Stationary point found.
 Normal termination of Gaussian 16 at Tue Dec  8 21:35:42 2020.

 ----------------------------------------------------------------------
 # B3LYP/6-311++G(d,p) empiricaldispersion=gd3bj scf=xqc pop=npa geom=c
 heck
 ----------------------------------------------------------------------

 ---------------------------------------
 CID_131847153_JID_1581_Energie_neutraal
 ---------------------------------------
 Structure from the checkpoint file:  "JID_1581.chk"
 Charge =  0 Multiplicity = 1

 SCF Done:  E(RB3LYP) =  -511.778227021     A.U. after   15 cycles
 Normal termination of Gaussian 16 at Tue Dec  8 21:46:13 2020.

 ----------------------------------------------------------------------
 # B3LYP/6-311++G(d,p) empiricaldispersion=gd3bj scf=xqc pop=npa geom=c
 heck
 ----------------------------------------------------------------------

 -------------------------------------
 CID_131847153_JID_1581_Energie_kation
 -------------------------------------
 Structure from the checkpoint file:  "JID_1581.chk"
 Charge =  1 Multiplicity = 2

 SCF Done:  E(UB3LYP) =  -511.491549962     A.U. after   20 cycles
 Normal termination of Gaussian 16 at Tue Dec  8 21:51:42 2020.
 Gaussian 16:  ES64L-G16RevA.03 25-Dec-2016

 ----------------------------------------------------------------------
 # B3LYP/6-311++G(d,p) empiricaldispersion=gd3bj scf=xqc pop=npa geom=c
 heck
 ----------------------------------------------------------------------

 ------------------------------------
 CID_131847153_JID_1581_Energie_anion
 ------------------------------------
 Structure from the checkpoint file:  "JID_1581.chk"
 Charge = -1 Multiplicity = 2

                         Standard orientation:
 ---------------------------------------------------------------------
 Center     Atomic      Atomic             Coordinates (Angstroms)
 Number     Number       Type             X           Y           Z
 ---------------------------------------------------------------------
      1          6           0        0.096051    2.681678   -0.007438
      2          6           0        0.428248    1.209206    0.000487
      3          6           0        1.756550    0.818064    0.001002
      4          6           0        2.082109   -0.551889    0.006852
      5          7           0        1.146997   -1.513141    0.010207
      6          6           0       -0.132340   -1.135343    0.014866
      7          6           0       -0.577134    0.200738    0.008919
      8          6           0       -1.982810    0.600185    0.010148
      9          7           0       -3.093627   -0.051542   -0.001144
     10          8           0       -2.931091   -1.447675   -0.020987
     11          7           0        3.391281   -0.977260    0.054316
     12          1           0        1.009379    3.282661   -0.016497
     13          1           0       -0.495801    2.957729   -0.887806
     14          1           0       -0.484439    2.968924    0.876962
     15          1           0        2.546335    1.564683    0.003906
     16          1           0       -0.856942   -1.938056    0.019208
     17          1           0       -2.176450    1.669589    0.023675
     18          1           0       -3.850252   -1.755403   -0.026282
     19          1           0        4.101800   -0.356015   -0.305454
     20          1           0        3.518494   -1.954933   -0.172486
 ---------------------------------------------------------------------

 SCF Done:  E(UB3LYP) =  -511.770865514     A.U. after   33 cycles
 SCF Done:  E(UB3LYP) =  -511.770865514     a.u. after    1 cycles

 The electronic state is 2-A.
 Alpha  occ. eigenvalues --  -19.03665 -14.21138 -14.18955 -14.16679 -10.09997
 Alpha  occ. eigenvalues --  -10.06511 -10.06443 -10.06425 -10.05815 -10.04305
 Alpha  occ. eigenvalues --  -10.04092  -0.95378  -0.83111  -0.75968  -0.73016
 Alpha  occ. eigenvalues --   -0.68995  -0.61422  -0.59076  -0.52065  -0.47873
 Alpha  occ. eigenvalues --   -0.45771  -0.40563  -0.39179  -0.37954  -0.34801
 Alpha  occ. eigenvalues --   -0.34119  -0.31571  -0.29672  -0.29043  -0.28625
 Alpha  occ. eigenvalues --   -0.28360  -0.27406  -0.25732  -0.24738  -0.19871
 Alpha  occ. eigenvalues --   -0.15617  -0.14507  -0.13957  -0.13079  -0.08480
 Alpha  occ. eigenvalues --    0.05119
 Alpha virt. eigenvalues --    0.07353   0.08115   0.08734   0.10056   0.10355
 Alpha virt. eigenvalues --    0.11377   0.12393   0.12613   0.13555   0.14867
 Alpha virt. eigenvalues --    0.16231   0.16448   0.17024   0.17611   0.18567

  Beta  occ. eigenvalues --  -19.03607 -14.20755 -14.18855 -14.16752 -10.09740
  Beta  occ. eigenvalues --  -10.06385 -10.06380 -10.06309 -10.05813 -10.04268
  Beta  occ. eigenvalues --  -10.04147  -0.95115  -0.82924  -0.75824  -0.72664
  Beta  occ. eigenvalues --   -0.68807  -0.61156  -0.59038  -0.51716  -0.47630
  Beta  occ. eigenvalues --   -0.45603  -0.40431  -0.39051  -0.37729  -0.34630
  Beta  occ. eigenvalues --   -0.34021  -0.31313  -0.29539  -0.28953  -0.28265
  Beta  occ. eigenvalues --   -0.27821  -0.26782  -0.25637  -0.24638  -0.19255
  Beta  occ. eigenvalues --   -0.15179  -0.14120  -0.13386  -0.13099  -0.07604
  Beta virt. eigenvalues --    0.07958   0.08734   0.09085   0.09637   0.10528
  Beta virt. eigenvalues --    0.10670   0.11867   0.12470   0.12696   0.14124
  Beta virt. eigenvalues --    0.14825   0.16386   0.16590   0.17261   0.17696

 Mulliken charges and spin densities:
               1          2
     1  C    0.226322  -0.938722
     2  C   -0.370026   0.816623
     3  C    0.807670  -0.509692
     4  C    0.592970  -0.926471
     5  N   -0.064256  -0.110722
     6  C   -0.147259   0.155872
     7  C   -0.417841   0.517718
     8  C   -0.585762  -0.322041
     9  N   -0.283822   0.166007
    10  O   -0.116718   0.008218
    11  N   -0.408010   0.132836
    12  H   -0.122983   0.266720
    13  H    0.159889  -0.016673
    14  H   -0.021817   0.172645
    15  H   -0.460607   0.608333
    16  H    0.200590   0.022871
    17  H    0.218938  -0.013574
    18  H    0.259242   0.000131
    19  H   -0.509892   0.762447
    20  H    0.043374   0.207473
 Sum of Mulliken charges =  -1.00000   1.00000

 Dipole moment (field-independent basis, Debye):
    X=             -5.9137    Y=              0.0696    Z=              0.3118  Tot=              5.9223
 Quadrupole moment (field-independent basis, Debye-Ang):
   XX=           -126.3708   YY=            -86.3220   ZZ=            -80.0932
   XY=              2.8192   XZ=              3.9907   YZ=             -0.5397

 Summary of Natural Population Analysis:

                                       Natural Population
                Natural  -----------------------------------------------
    Atom  No    Charge         Core      Valence    Rydberg      Total
 -----------------------------------------------------------------------
      C    1   -0.30015      0.99963     2.29481    0.00571     3.30015
      C    2    0.04400      0.99951     1.94829    0.00821     2.95600
      C    3   -0.16436      0.99947     2.15505    0.00984     3.16436
      C    4    0.23982      0.99955     1.74505    0.01558     2.76018
      N    5   -0.28270      0.99968     2.77277    0.01025     3.78270
      C    6    0.07415      0.99956     1.91285    0.01344     2.92585
      C    7   -0.10120      0.99945     2.09304    0.00871     3.10120
      C    8    0.01943      0.99963     1.96263    0.01831     2.98057
      N    9   -0.05129      0.99965     2.53433    0.01730     3.55129
      O   10   -0.29444      0.99990     3.28659    0.00796     4.29444
      N   11   -0.38877      0.99971     2.87844    0.01062     3.88877
      H   12    0.10192      0.00000     0.39726    0.00082     0.39808
      H   13    0.10260      0.00000     0.39645    0.00095     0.39740
      H   14    0.10520      0.00000     0.39371    0.00109     0.39480
      H   15    0.10001      0.00000     0.39868    0.00132     0.39999
      H   16    0.09993      0.00000     0.39878    0.00129     0.40007
      H   17    0.08940      0.00000     0.40811    0.00249     0.41060
      H   18    0.22652      0.00000     0.27043    0.00306     0.27348
      H   19    0.19111      0.00000     0.29690    0.01199     0.30889
      H   20    0.18882      0.00000     0.30845    0.00272     0.31118
 =======================================================================
   * Total *    0.00000     10.99574    28.85260    0.15166    40.00000

 Normal termination of Gaussian 16 at Tue Dec  8 21:57:20 2020.
