 Gaussian 16, Revision A.03,

 -----------------------------------------------------------
 # opt freq B3LYP/6-31G(d) empiricaldispersion=gd3bj scf=xqc
 -----------------------------------------------------------

 -------------------------------
 CID_115098506_JID_3467_neutraal
 -------------------------------
 Symbolic Z-matrix:
 Charge =  0 Multiplicity = 1

 SCF Done:  E(RB3LYP) =  -558.216148021     A.U. after   14 cycles
 SCF Done:  E(RB3LYP) =  -558.220400703     A.U. after   11 cycles
 SCF Done:  E(RB3LYP) =  -558.220810536     A.U. after   10 cycles
 SCF Done:  E(RB3LYP) =  -558.220913052     A.U. after   10 cycles
 SCF Done:  E(RB3LYP) =  -558.220966203     A.U. after   11 cycles
 SCF Done:  E(RB3LYP) =  -558.220989927     A.U. after   11 cycles
 SCF Done:  E(RB3LYP) =  -558.220992197     A.U. after    9 cycles
 SCF Done:  E(RB3LYP) =  -558.220992486     A.U. after    7 cycles
 SCF Done:  E(RB3LYP) =  -558.220992896     A.U. after    7 cycles
 SCF Done:  E(RB3LYP) =  -558.220993702     A.U. after    8 cycles
 SCF Done:  E(RB3LYP) =  -558.221002392     A.U. after    9 cycles
 SCF Done:  E(RB3LYP) =  -558.221004909     A.U. after    8 cycles
 SCF Done:  E(RB3LYP) =  -558.221005463     A.U. after    9 cycles
 SCF Done:  E(RB3LYP) =  -558.221005523     A.U. after    7 cycles
 SCF Done:  E(RB3LYP) =  -558.221005532     A.U. after    6 cycles
 Optimization completed on the basis of negligible forces.
    -- Stationary point found.
 Normal termination of Gaussian 16 at Wed Dec  9 23:26:32 2020.

 --------------------------------------------------------------------
 #N Geom=AllCheck Guess=TCheck SCRF=Check GenChk RB3LYP/6-31G(d) Freq
 --------------------------------------------------------------------

 Structure from the checkpoint file:  "JID_3467.chk"
 -------------------------------
 CID_115098506_JID_3467_neutraal
 -------------------------------
 Charge =  0 Multiplicity = 1

 SCF Done:  E(RB3LYP) =  -558.221005532     A.U. after    1 cycles

  Exact polarizability: 167.316  -1.426 120.819   8.401   2.550  77.080
 Approx polarizability: 216.096  -1.718 196.338  20.019   8.829 122.124

                      1                      2                      3
                      A                      A                      A
 Frequencies --     25.0920                53.3894               108.8435
 Red. masses --      1.0233                 3.7614                 3.1546
 Frc consts  --      0.0004                 0.0063                 0.0220
 IR Inten    --      0.1567                 2.0920                 0.2356

                      4                      5                      6
                      A                      A                      A
 Frequencies --    171.6556               190.3273               215.4740
 Red. masses --      2.5459                 2.6113                 1.1288
 Frc consts  --      0.0442                 0.0557                 0.0309
 IR Inten    --      0.5422                 2.4898                 0.0455

                      7                      8                      9
                      A                      A                      A
 Frequencies --    237.8102               280.4975               294.1052
 Red. masses --      3.1023                 3.3607                 3.3153
 Frc consts  --      0.1034                 0.1558                 0.1690
 IR Inten    --      2.9526                 4.5991                 5.3238

                     10                     11                     12
                      A                      A                      A
 Frequencies --    303.8878               360.7618               394.2391
 Red. masses --      2.6566                 3.5377                 3.2333
 Frc consts  --      0.1445                 0.2713                 0.2961
 IR Inten    --      3.4592                 3.3696                 2.8141

                     13                     14                     15
                      A                      A                      A
 Frequencies --    413.7626               453.2724               463.3275
 Red. masses --      2.1349                 4.3619                 3.0343
 Frc consts  --      0.2153                 0.5280                 0.3838
 IR Inten    --      0.2667                 3.6248                 2.9930

                     16                     17                     18
                      A                      A                      A
 Frequencies --    545.3213               568.2021               600.4415
 Red. masses --      4.9154                 3.5206                 3.1514
 Frc consts  --      0.8612                 0.6697                 0.6694
 IR Inten    --      4.9234                 2.4164                 3.9823

                     19                     20                     21
                      A                      A                      A
 Frequencies --    632.0600               717.4513               731.3758
 Red. masses --      3.4733                 2.7151                 4.9175
 Frc consts  --      0.8175                 0.8234                 1.5498
 IR Inten    --      6.4066                70.2653                 2.9349

                     22                     23                     24
                      A                      A                      A
 Frequencies --    758.4150               801.2632               840.1524
 Red. masses --      4.1878                 2.0578                 1.3541
 Frc consts  --      1.4192                 0.7784                 0.5631
 IR Inten    --      7.9943                24.6658                13.5140

                     25                     26                     27
                      A                      A                      A
 Frequencies --    855.7179               896.9652               926.7623
 Red. masses --      2.1892                 1.3907                 2.2666
 Frc consts  --      0.9445                 0.6592                 1.1470
 IR Inten    --      7.0489                 3.8249                 3.9974

                     28                     29                     30
                      A                      A                      A
 Frequencies --    937.3558               960.3123               972.2372
 Red. masses --      1.7827                 1.3294                 1.9674
 Frc consts  --      0.9229                 0.7223                 1.0957
 IR Inten    --     13.9942                 1.0263                 3.3063

                     31                     32                     33
                      A                      A                      A
 Frequencies --    975.0382              1030.0362              1064.9719
 Red. masses --      1.5934                 1.5711                 3.4937
 Frc consts  --      0.8925                 0.9821                 2.3346
 IR Inten    --      3.1931                12.4467                76.7202

                     34                     35                     36
                      A                      A                      A
 Frequencies --   1074.1941              1082.6205              1122.4937
 Red. masses --      1.5814                 2.9844                 2.5252
 Frc consts  --      1.0751                 2.0609                 1.8746
 IR Inten    --     12.8682                 1.0775                24.0224

                     37                     38                     39
                      A                      A                      A
 Frequencies --   1150.9163              1174.7480              1182.5106
 Red. masses --      1.7636                 1.9961                 2.3084
 Frc consts  --      1.3764                 1.6230                 1.9018
 IR Inten    --     19.4634                36.6774                14.5854

                     40                     41                     42
                      A                      A                      A
 Frequencies --   1190.2741              1236.0389              1275.9082
 Red. masses --      1.9587                 1.7304                 1.3552
 Frc consts  --      1.6350                 1.5576                 1.2998
 IR Inten    --      3.0474                12.8055                11.8895

                     43                     44                     45
                      A                      A                      A
 Frequencies --   1302.2567              1310.1300              1326.7270
 Red. masses --      1.5757                 2.8545                 1.3639
 Frc consts  --      1.5744                 2.8867                 1.4145
 IR Inten    --      0.7372               114.9126                 0.9334

                     46                     47                     48
                      A                      A                      A
 Frequencies --   1335.8521              1343.6142              1383.7419
 Red. masses --      6.7159                 1.2640                 1.3063
 Frc consts  --      7.0611                 1.3445                 1.4737
 IR Inten    --      4.5399                32.7484                 5.3910

                     49                     50                     51
                      A                      A                      A
 Frequencies --   1410.4340              1431.5134              1442.0685
 Red. masses --      1.3743                 1.4016                 1.2409
 Frc consts  --      1.6108                 1.6923                 1.5204
 IR Inten    --      0.1488                17.2092                 0.9432

                     52                     53                     54
                      A                      A                      A
 Frequencies --   1442.9173              1465.2008              1484.8796
 Red. masses --      1.3504                 2.3905                 1.2367
 Frc consts  --      1.6565                 3.0237                 1.6065
 IR Inten    --     30.6903                 7.9752                 8.7195

                     55                     56                     57
                      A                      A                      A
 Frequencies --   1509.2989              1517.6928              1521.3674
 Red. masses --      1.1128                 1.0533                 1.1276
 Frc consts  --      1.4935                 1.4295                 1.5377
 IR Inten    --      2.2499                 7.2642                11.2498

                     58                     59                     60
                      A                      A                      A
 Frequencies --   1526.6575              1529.1151              1532.8219
 Red. masses --      1.1433                 1.0516                 1.0717
 Frc consts  --      1.5700                 1.4487                 1.4836
 IR Inten    --     11.2133                 9.6581                 7.1852

                     61                     62                     63
                      A                      A                      A
 Frequencies --   1550.9387              1626.7422              1671.9107
 Red. masses --      2.9291                 5.8158                 6.5479
 Frc consts  --      4.1512                 9.0678                10.7840
 IR Inten    --     90.9264                 7.3625                15.8799

                     64                     65                     66
                      A                      A                      A
 Frequencies --   3014.5303              3024.4521              3034.3501
 Red. masses --      1.0768                 1.0708                 1.0581
 Frc consts  --      5.7653                 5.7707                 5.7400
 IR Inten    --      5.9797                42.6448                39.4367

                     67                     68                     69
                      A                      A                      A
 Frequencies --   3042.3504              3044.7425              3079.5858
 Red. masses --      1.0400                 1.0397                 1.1042
 Frc consts  --      5.6718                 5.6786                 6.1700
 IR Inten    --     36.9988                56.8270                29.0514

                     70                     71                     72
                      A                      A                      A
 Frequencies --   3097.3488              3098.5479              3108.1579
 Red. masses --      1.1002                 1.0965                 1.1009
 Frc consts  --      6.2190                 6.2024                 6.2661
 IR Inten    --     23.9578                22.0185                63.7689

                     73                     74                     75
                      A                      A                      A
 Frequencies --   3117.8933              3126.6214              3184.0823
 Red. masses --      1.1024                 1.1024                 1.0884
 Frc consts  --      6.3143                 6.3493                 6.5016
 IR Inten    --     30.1295                17.4819                16.1517

                     76                     77                     78
                      A                      A                      A
 Frequencies --   3195.3880              3211.2880              3474.2702
 Red. masses --      1.0906                 1.0935                 1.0727
 Frc consts  --      6.5609                 6.6440                 7.6286
 IR Inten    --      9.9183                11.4819                 0.6234

 - Thermochemistry -
 -------------------
 Temperature   298.150 Kelvin.  Pressure   1.00000 Atm.
 Atom     1 has atomic number  6 and mass  12.00000

 Molecular mass:   177.11536 amu.
 Principal axes and moments of inertia in atomic units:
                           1         2         3
     Eigenvalues --   967.711883684.187754338.53143
           X            0.99999  -0.00441  -0.00255
           Y            0.00438   0.99991  -0.01252
           Z            0.00261   0.01251   0.99992
 This molecule is an asymmetric top.
 Rotational symmetry number  1.
 Warning -- assumption of classical behavior for rotation
           may cause significant error
 Rotational temperatures (Kelvin)      0.08950     0.02351     0.01996
 Rotational constants (GHZ):           1.86496     0.48986     0.41598
 Zero-point vibrational energy     638744.4 (Joules/Mol)
                                  152.66357 (Kcal/Mol)
 Warning -- explicit consideration of  18 degrees of freedom as
           vibrations may cause significant error
 Vibrational temperatures:     36.10    76.82   156.60   246.97   273.84
          (Kelvin)            310.02   342.16   403.57   423.15   437.23
                              519.06   567.22   595.31   652.16   666.62
                              784.60   817.52   863.90   909.39  1032.25
                             1052.29  1091.19  1152.84  1208.79  1231.19
                             1290.53  1333.40  1348.65  1381.68  1398.83
                             1402.86  1481.99  1532.26  1545.53  1557.65
                             1615.02  1655.91  1690.20  1701.37  1712.54
                             1778.38  1835.75  1873.66  1884.98  1908.86
                             1921.99  1933.16  1990.90  2029.30  2059.63
                             2074.81  2076.04  2108.10  2136.41  2171.54
                             2183.62  2188.91  2196.52  2200.06  2205.39
                             2231.45  2340.52  2405.51  4337.24  4351.51
                             4365.75  4377.26  4380.71  4430.84  4456.39
                             4458.12  4471.95  4485.95  4498.51  4581.18
                             4597.45  4620.33  4998.70

 Zero-point correction=                           0.243285 (Hartree/Particle)
 Thermal correction to Energy=                    0.255364
 Thermal correction to Enthalpy=                  0.256309
 Thermal correction to Gibbs Free Energy=         0.204533
 Sum of electronic and zero-point Energies=           -557.977721
 Sum of electronic and thermal Energies=              -557.965641
 Sum of electronic and thermal Enthalpies=            -557.964697
 Sum of electronic and thermal Free Energies=         -558.016472

                     E (Thermal)             CV                S
                      KCal/Mol        Cal/Mol-Kelvin    Cal/Mol-Kelvin
 Total                  160.244             47.062            108.971
 Electronic               0.000              0.000              0.000
 Translational            0.889              2.981             41.422
 Rotational               0.889              2.981             31.115
 Vibrational            158.466             41.101             36.434
 Vibration     1          0.593              1.985              6.184
 Vibration     2          0.596              1.976              4.688
 Vibration     3          0.606              1.942              3.289
 Vibration     4          0.626              1.877              2.417
 Vibration     5          0.634              1.853              2.225
 Vibration     6          0.645              1.817              1.997
 Vibration     7          0.656              1.783              1.819
 Vibration     8          0.680              1.710              1.531
 Vibration     9          0.689              1.685              1.450
 Vibration    10          0.695              1.666              1.395
 Vibration    11          0.735              1.553              1.119
 Vibration    12          0.761              1.482              0.984
 Vibration    13          0.777              1.440              0.913
 Vibration    14          0.812              1.354              0.786
 Vibration    15          0.821              1.331              0.756
 Vibration    16          0.900              1.150              0.554
 Vibration    17          0.924              1.100              0.508
 Vibration    18          0.959              1.031              0.449

 Optimization completed on the basis of negligible forces.
    -- Stationary point found.
 Normal termination of Gaussian 16 at Wed Dec  9 23:34:10 2020.

 ----------------------------------------------------------------------
 # B3LYP/6-311++G(d,p) empiricaldispersion=gd3bj scf=xqc pop=npa geom=c
 heck
 ----------------------------------------------------------------------

 ---------------------------------------
 CID_115098506_JID_3467_Energie_neutraal
 ---------------------------------------
 Structure from the checkpoint file:  "JID_3467.chk"
 Charge =  0 Multiplicity = 1

 SCF Done:  E(RB3LYP) =  -558.372800703     A.U. after   15 cycles
 Normal termination of Gaussian 16 at Wed Dec  9 23:37:46 2020.

 ----------------------------------------------------------------------
 # B3LYP/6-311++G(d,p) empiricaldispersion=gd3bj scf=xqc pop=npa geom=c
 heck
 ----------------------------------------------------------------------

 -------------------------------------
 CID_115098506_JID_3467_Energie_kation
 -------------------------------------
 Structure from the checkpoint file:  "JID_3467.chk"
 Charge =  1 Multiplicity = 2

 SCF Done:  E(UB3LYP) =  -558.073489760     A.U. after   25 cycles
 Normal termination of Gaussian 16 at Wed Dec  9 23:46:18 2020.
 Gaussian 16:  ES64L-G16RevA.03 25-Dec-2016

 ----------------------------------------------------------------------
 # B3LYP/6-311++G(d,p) empiricaldispersion=gd3bj scf=xqc pop=npa geom=c
 heck
 ----------------------------------------------------------------------

 ------------------------------------
 CID_115098506_JID_3467_Energie_anion
 ------------------------------------
 Structure from the checkpoint file:  "JID_3467.chk"
 Charge = -1 Multiplicity = 2

                         Standard orientation:
 ---------------------------------------------------------------------
 Center     Atomic      Atomic             Coordinates (Angstroms)
 Number     Number       Type             X           Y           Z
 ---------------------------------------------------------------------
      1          6           0       -3.956607   -0.494820    0.759703
      2          6           0       -2.716251   -0.215960   -0.097882
      3          6           0       -2.119664    1.160318    0.243395
      4          7           0       -0.975292    1.595779   -0.560921
      5          6           0        0.268550    0.932505   -0.294631
      6          6           0        0.442484   -0.457131   -0.428132
      7          6           0        1.687688   -1.042610   -0.206240
      8          6           0        2.794634   -0.268652    0.158679
      9          6           0        2.619694    1.112063    0.302756
     10          6           0        1.374468    1.698064    0.079402
     11          6           0        4.131508   -0.919003    0.420841
     12          8           0       -0.590665   -1.274765   -0.828439
     13          6           0       -1.707061   -1.352197    0.066203
     14          1           0       -4.705568    0.294612    0.633931
     15          1           0       -3.696703   -0.538291    1.825013
     16          1           0       -4.424871   -1.448381    0.490738
     17          1           0       -3.013752   -0.200233   -1.157252
     18          1           0       -2.906979    1.918185    0.136816
     19          1           0       -1.805704    1.176736    1.295091
     20          1           0       -1.206360    1.505393   -1.549705
     21          1           0        1.776355   -2.118378   -0.330392
     22          1           0        3.465427    1.733565    0.585551
     23          1           0        1.234391    2.770310    0.175943
     24          1           0        4.946385   -0.190332    0.365588
     25          1           0        4.163843   -1.373011    1.419985
     26          1           0        4.337950   -1.715385   -0.302518
     27          1           0       -1.342343   -1.392925    1.103162
     28          1           0       -2.186369   -2.309652   -0.162560
 ---------------------------------------------------------------------

 SCF Done:  E(UB3LYP) =  -558.355769757     A.U. after   33 cycles
 SCF Done:  E(UB3LYP) =  -558.355769758     a.u. after    1 cycles

 The electronic state is 2-A.
 Alpha  occ. eigenvalues --  -19.04389 -14.20852 -10.13126 -10.12441 -10.10434
 Alpha  occ. eigenvalues --  -10.09700 -10.08913 -10.07769 -10.07615 -10.07375
 Alpha  occ. eigenvalues --  -10.07322 -10.07249 -10.06304  -0.96158  -0.82097
 Alpha  occ. eigenvalues --   -0.75770  -0.70760  -0.66470  -0.64981  -0.59637
 Alpha  occ. eigenvalues --   -0.58699  -0.56013  -0.51509  -0.48758  -0.47589
 Alpha  occ. eigenvalues --   -0.43719  -0.39935  -0.39695  -0.37761  -0.36452
 Alpha  occ. eigenvalues --   -0.35807  -0.34040  -0.33026  -0.32546  -0.30519
 Alpha  occ. eigenvalues --   -0.29971  -0.28906  -0.28552  -0.27727  -0.27497
 Alpha  occ. eigenvalues --   -0.25751  -0.25504  -0.24097  -0.23220  -0.18612
 Alpha  occ. eigenvalues --   -0.15285  -0.14150  -0.13866   0.04515
 Alpha virt. eigenvalues --    0.05815   0.07121   0.07581   0.08170   0.08369
 Alpha virt. eigenvalues --    0.08536   0.08775   0.09924   0.10402   0.10652
 Alpha virt. eigenvalues --    0.10812   0.11430   0.12705   0.12847   0.13070

  Beta  occ. eigenvalues --  -19.04385 -14.20847 -10.13128 -10.12424 -10.10433
  Beta  occ. eigenvalues --  -10.09682 -10.08906 -10.07757 -10.07596 -10.07363
  Beta  occ. eigenvalues --  -10.07301 -10.07212 -10.06253  -0.96149  -0.82081
  Beta  occ. eigenvalues --   -0.75745  -0.70727  -0.66433  -0.64948  -0.59591
  Beta  occ. eigenvalues --   -0.58641  -0.55947  -0.51466  -0.48709  -0.47542
  Beta  occ. eigenvalues --   -0.43692  -0.39911  -0.39660  -0.37734  -0.36409
  Beta  occ. eigenvalues --   -0.35767  -0.34008  -0.32999  -0.32499  -0.30475
  Beta  occ. eigenvalues --   -0.29928  -0.28856  -0.28508  -0.27690  -0.27457
  Beta  occ. eigenvalues --   -0.25712  -0.25467  -0.24052  -0.23182  -0.18592
  Beta  occ. eigenvalues --   -0.15201  -0.14130  -0.13842
  Beta virt. eigenvalues --    0.06616   0.07059   0.07487   0.07918   0.08483
  Beta virt. eigenvalues --    0.08700   0.09141   0.09212   0.10297   0.10863
  Beta virt. eigenvalues --    0.11149   0.11244   0.11656   0.12792   0.13255

 Mulliken charges and spin densities:
               1          2
     1  C    1.782339  -2.461695
     2  C   -2.042051   2.692584
     3  C    0.889761  -1.543020
     4  N   -0.130343   0.149388
     5  C    0.350439  -0.496516
     6  C   -0.870406   0.529883
     7  C   -0.903723   0.758359
     8  C   -1.080172   1.745393
     9  C   -0.162388  -0.523320
    10  C    0.326167  -0.301853
    11  C    2.773342  -3.334786
    12  O   -0.110844   0.021125
    13  C    0.649067  -1.209384
    14  H   -0.591258   0.738961
    15  H   -0.195982   0.328614
    16  H   -0.533787   0.676940
    17  H   -0.172327   0.349286
    18  H   -0.043367   0.242993
    19  H    0.052403   0.100908
    20  H    0.094560   0.176564
    21  H   -0.048112   0.222633
    22  H   -0.300406   0.440403
    23  H    0.046535   0.123490
    24  H   -0.498614   0.648205
    25  H    0.013082   0.148924
    26  H   -0.302259   0.447528
    27  H    0.037195   0.103816
    28  H   -0.028854   0.224577
 Sum of Mulliken charges =  -1.00000   1.00000

 Dipole moment (field-independent basis, Debye):
    X=              1.9922    Y=              0.9879    Z=             -0.3545  Tot=              2.2518
 Quadrupole moment (field-independent basis, Debye-Ang):
   XX=           -190.8403   YY=           -115.8975   ZZ=           -106.3870
   XY=             -0.2201   XZ=              2.2156   YZ=             -0.8615

 Summary of Natural Population Analysis:

                                       Natural Population
                Natural  -----------------------------------------------
    Atom  No    Charge         Core      Valence    Rydberg      Total
 -----------------------------------------------------------------------
      C    1   -0.28636      0.99965     2.28022    0.00649     3.28636
      C    2   -0.13487      0.99960     2.12452    0.01076     3.13487
      C    3   -0.08383      0.99959     2.07205    0.01220     3.08383
      N    4   -0.34235      0.99973     2.83073    0.01190     3.84235
      C    5    0.04771      0.99940     1.94195    0.01094     2.95229
      C    6    0.15187      0.99931     1.83607    0.01275     2.84813
      C    7   -0.11545      0.99947     2.10666    0.00932     3.11545
      C    8   -0.01074      0.99953     2.00222    0.00899     3.01074
      C    9   -0.11053      0.99951     2.10124    0.00978     3.11053
      C   10   -0.08885      0.99952     2.07999    0.00934     3.08885
      C   11   -0.29328      0.99964     2.28769    0.00596     3.29328
      O   12   -0.29100      0.99986     3.28190    0.00923     4.29100
      C   13   -0.00520      0.99952     1.99298    0.01270     3.00520
      H   14    0.10508      0.00000     0.39272    0.00220     0.39492
      H   15    0.09706      0.00000     0.40163    0.00131     0.40294
      H   16    0.10349      0.00000     0.39447    0.00204     0.39651
      H   17    0.09512      0.00000     0.40264    0.00224     0.40488
      H   18    0.09687      0.00000     0.40186    0.00127     0.40313
      H   19    0.09200      0.00000     0.40670    0.00130     0.40800
      H   20    0.17718      0.00000     0.32009    0.00273     0.32282
      H   21    0.10394      0.00000     0.39452    0.00154     0.39606
      H   22    0.10002      0.00000     0.39902    0.00096     0.39998
      H   23    0.10437      0.00000     0.39443    0.00120     0.39563
      H   24    0.10399      0.00000     0.39441    0.00160     0.39601
      H   25    0.10420      0.00000     0.39484    0.00096     0.39580
      H   26    0.10436      0.00000     0.39421    0.00143     0.39564
      H   27    0.08201      0.00000     0.41656    0.00142     0.41799
      H   28    0.09319      0.00000     0.40534    0.00148     0.40681
 =======================================================================
   * Total *   -0.00000     12.99432    34.85166    0.15402    48.00000

 Normal termination of Gaussian 16 at Wed Dec  9 23:57:49 2020.
