 Gaussian 16, Revision A.03,

 -----------------------------------------------------------
 # opt freq B3LYP/6-31G(d) empiricaldispersion=gd3bj scf=xqc
 -----------------------------------------------------------

 ------------------------------
 CID_83626806_JID_6984_neutraal
 ------------------------------
 Symbolic Z-matrix:
 Charge =  0 Multiplicity = 1

 SCF Done:  E(RB3LYP) =  -692.219132647     A.U. after   15 cycles
 SCF Done:  E(RB3LYP) =  -692.223861599     A.U. after   13 cycles
 SCF Done:  E(RB3LYP) =  -692.221296579     A.U. after   14 cycles
 SCF Done:  E(RB3LYP) =  -692.223371308     A.U. after   12 cycles
 SCF Done:  E(RB3LYP) =  -692.224996970     A.U. after    9 cycles
 SCF Done:  E(RB3LYP) =  -692.225354761     A.U. after   14 cycles
 SCF Done:  E(RB3LYP) =  -692.226257214     A.U. after   12 cycles
 SCF Done:  E(RB3LYP) =  -692.226366592     A.U. after   12 cycles
 SCF Done:  E(RB3LYP) =  -692.226409922     A.U. after   12 cycles
 SCF Done:  E(RB3LYP) =  -692.226470420     A.U. after   10 cycles
 SCF Done:  E(RB3LYP) =  -692.231175334     A.U. after    7 cycles
 SCF Done:  E(RB3LYP) =  -692.231176115     A.U. after    8 cycles
 SCF Done:  E(RB3LYP) =  -692.231176192     A.U. after    8 cycles
 SCF Done:  E(RB3LYP) =  -692.231176087     A.U. after    8 cycles
 SCF Done:  E(RB3LYP) =  -692.231176076     A.U. after    7 cycles
 Optimization completed.
    -- Stationary point found.
 Normal termination of Gaussian 16 at Fri Dec 11 01:40:55 2020.

 --------------------------------------------------------------------
 #N Geom=AllCheck Guess=TCheck SCRF=Check GenChk RB3LYP/6-31G(d) Freq
 --------------------------------------------------------------------

 Structure from the checkpoint file:  "JID_6984.chk"
 ------------------------------
 CID_83626806_JID_6984_neutraal
 ------------------------------
 Charge =  0 Multiplicity = 1

 SCF Done:  E(RB3LYP) =  -692.231176076     A.U. after    1 cycles

  Exact polarizability: 165.357 -18.041 140.197 -10.809  -3.837 137.912
 Approx polarizability: 215.624 -30.671 216.875 -19.984  -6.661 224.660

                      1                      2                      3
                      A                      A                      A
 Frequencies --     13.9450                46.0210                46.8133
 Red. masses --      4.2362                 4.9840                 5.8348
 Frc consts  --      0.0005                 0.0062                 0.0075
 IR Inten    --      0.1577                 0.1955                 1.8913

                      4                      5                      6
                      A                      A                      A
 Frequencies --     69.4249                89.5293               116.2936
 Red. masses --      1.4061                 4.4006                 3.3894
 Frc consts  --      0.0040                 0.0208                 0.0270
 IR Inten    --     10.6760                 0.2047                 0.3214

                      7                      8                      9
                      A                      A                      A
 Frequencies --    154.9737               196.5535               211.8597
 Red. masses --      4.1140                 2.8758                 1.2180
 Frc consts  --      0.0582                 0.0655                 0.0322
 IR Inten    --      0.2353                 2.1160                 2.7610

                     10                     11                     12
                      A                      A                      A
 Frequencies --    213.0648               227.3139               244.5562
 Red. masses --      1.4590                 2.3802                 1.1861
 Frc consts  --      0.0390                 0.0725                 0.0418
 IR Inten    --     43.3273                 0.9606                 0.4063

                     13                     14                     15
                      A                      A                      A
 Frequencies --    285.7828               294.9189               308.3667
 Red. masses --      2.4929                 3.3864                 3.5190
 Frc consts  --      0.1200                 0.1735                 0.1972
 IR Inten    --      2.1977                13.0987                11.6399

                     16                     17                     18
                      A                      A                      A
 Frequencies --    329.7804               351.2782               360.2990
 Red. masses --      1.8561                 1.6370                 2.9142
 Frc consts  --      0.1189                 0.1190                 0.2229
 IR Inten    --      0.0439                 0.6390                 1.0117

                     19                     20                     21
                      A                      A                      A
 Frequencies --    395.3471               447.7133               475.3627
 Red. masses --      2.3901                 2.7637                 3.0976
 Frc consts  --      0.2201                 0.3264                 0.4124
 IR Inten    --      4.4182                 0.2950                 9.2619

                     22                     23                     24
                      A                      A                      A
 Frequencies --    481.3216               514.6828               545.7833
 Red. masses --      2.7480                 1.6347                 3.0579
 Frc consts  --      0.3751                 0.2551                 0.5367
 IR Inten    --      0.9241                19.7275                 0.7335

                     25                     26                     27
                      A                      A                      A
 Frequencies --    554.0188               577.8399               601.9786
 Red. masses --      3.5647                 3.6504                 3.8323
 Frc consts  --      0.6447                 0.7181                 0.8182
 IR Inten    --      5.1026                 2.5448                 6.6715

                     28                     29                     30
                      A                      A                      A
 Frequencies --    641.3085               656.5515               704.0466
 Red. masses --      1.5456                 3.9383                 4.3702
 Frc consts  --      0.3745                 1.0002                 1.2763
 IR Inten    --     49.8619                 6.0343                 1.2875

                     31                     32                     33
                      A                      A                      A
 Frequencies --    745.3281               779.1166               813.0015
 Red. masses --      2.0696                 1.6449                 4.3692
 Frc consts  --      0.6774                 0.5883                 1.7015
 IR Inten    --     13.3954                18.4637                 0.3324

                     34                     35                     36
                      A                      A                      A
 Frequencies --    819.2567               878.8722               882.9262
 Red. masses --      3.9806                 2.5165                 1.3284
 Frc consts  --      1.5741                 1.1453                 0.6101
 IR Inten    --     46.1141                 0.8231                 0.0363

                     37                     38                     39
                      A                      A                      A
 Frequencies --    935.8635               945.5982               952.9072
 Red. masses --      1.6235                 1.6964                 1.4928
 Frc consts  --      0.8378                 0.8937                 0.7986
 IR Inten    --      1.3179                 7.3413                 5.2338

                     40                     41                     42
                      A                      A                      A
 Frequencies --    959.0092               987.7713               992.6564
 Red. masses --      1.4958                 1.2693                 1.8900
 Frc consts  --      0.8106                 0.7297                 1.0973
 IR Inten    --      1.3638                 0.5142               233.1845

                     43                     44                     45
                      A                      A                      A
 Frequencies --    997.1400              1026.4905              1053.0618
 Red. masses --      1.5385                 1.5116                 1.3843
 Frc consts  --      0.9013                 0.9384                 0.9044
 IR Inten    --      3.8671                 1.3711                 2.6639

                     46                     47                     48
                      A                      A                      A
 Frequencies --   1076.2724              1092.0240              1113.6522
 Red. masses --      1.5100                 2.8170                 2.7449
 Frc consts  --      1.0305                 1.9792                 2.0058
 IR Inten    --      3.3581                12.5185                 3.1336

                     49                     50                     51
                      A                      A                      A
 Frequencies --   1142.0902              1167.1926              1173.9604
 Red. masses --      2.4237                 2.3960                 2.2038
 Frc consts  --      1.8627                 1.9232                 1.7895
 IR Inten    --      8.3424                 9.7491                 6.7513

                     52                     53                     54
                      A                      A                      A
 Frequencies --   1188.5820              1195.7012              1204.4477
 Red. masses --      1.2130                 2.1277                 1.2288
 Frc consts  --      1.0097                 1.7923                 1.0503
 IR Inten    --      0.9643                24.5346                 2.0458

                     55                     56                     57
                      A                      A                      A
 Frequencies --   1229.9651              1240.4428              1253.1890
 Red. masses --      2.2936                 1.9297                 2.2665
 Frc consts  --      2.0443                 1.7494                 2.0972
 IR Inten    --      0.9434                 0.7007                37.3986

                     58                     59                     60
                      A                      A                      A
 Frequencies --   1318.0937              1320.5508              1338.2102
 Red. masses --      1.6911                 1.8925                 1.5593
 Frc consts  --      1.7310                 1.9444                 1.6452
 IR Inten    --    168.5239                10.3612                 1.4639

                     61                     62                     63
                      A                      A                      A
 Frequencies --   1341.0093              1392.2226              1417.2495
 Red. masses --      3.7060                 1.2850                 1.2222
 Frc consts  --      3.9266                 1.4675                 1.4464
 IR Inten    --      2.6923                 0.7466                 3.8243

                     64                     65                     66
                      A                      A                      A
 Frequencies --   1423.0601              1428.7061              1446.0508
 Red. masses --      1.6069                 1.4386                 1.2291
 Frc consts  --      1.9173                 1.7302                 1.5143
 IR Inten    --     24.6674                19.5011                10.4963

                     67                     68                     69
                      A                      A                      A
 Frequencies --   1454.2441              1486.3013              1489.8913
 Red. masses --      1.2555                 1.4089                 1.8434
 Frc consts  --      1.5644                 1.8338                 2.4109
 IR Inten    --      4.1074                30.8629                 9.8132

                     70                     71                     72
                      A                      A                      A
 Frequencies --   1501.8913              1512.6615              1517.8675
 Red. masses --      1.3307                 1.1480                 1.0596
 Frc consts  --      1.7685                 1.5477                 1.4383
 IR Inten    --     58.0994                 6.7808                 2.0570

                     73                     74                     75
                      A                      A                      A
 Frequencies --   1525.2115              1534.1139              1539.9253
 Red. masses --      1.2224                 1.0629                 1.2243
 Frc consts  --      1.6755                 1.4739                 1.7106
 IR Inten    --     12.5278                 8.2310                 4.1506

                     76                     77                     78
                      A                      A                      A
 Frequencies --   1543.2319              1547.9656              1569.5532
 Red. masses --      1.3597                 1.0695                 1.0859
 Frc consts  --      1.9079                 1.5100                 1.5761
 IR Inten    --     28.2239                 5.3545                 5.5167

                     79                     80                     81
                      A                      A                      A
 Frequencies --   1633.9280              1665.6507              1718.5853
 Red. masses --      5.2114                 5.3994                 1.0843
 Frc consts  --      8.1973                 8.8261                 1.8868
 IR Inten    --      0.3291                 0.7018                14.9839

                     82                     83                     84
                      A                      A                      A
 Frequencies --   1785.4026              3039.1186              3052.0375
 Red. masses --      8.3425                 1.0602                 1.0394
 Frc consts  --     15.6682                 5.7697                 5.7045
 IR Inten    --    387.7066                28.7855                17.7222

                     85                     86                     87
                      A                      A                      A
 Frequencies --   3056.2201              3060.3859              3075.5649
 Red. masses --      1.0439                 1.0370                 1.0695
 Frc consts  --      5.7447                 5.7224                 5.9606
 IR Inten    --     16.2779                18.9977                22.7510

                     88                     89                     90
                      A                      A                      A
 Frequencies --   3077.0347              3106.4371              3116.7394
 Red. masses --      1.0915                 1.1022                 1.0966
 Frc consts  --      6.0887                 6.2664                 6.2761
 IR Inten    --     39.8353                21.2996                 5.0939

                     91                     92                     93
                      A                      A                      A
 Frequencies --   3118.9149              3125.1253              3138.8195
 Red. masses --      1.0983                 1.1001                 1.1023
 Frc consts  --      6.2947                 6.3302                 6.3985
 IR Inten    --     11.1360                67.0401                22.4249

                     94                     95                     96
                      A                      A                      A
 Frequencies --   3140.6056              3151.8492              3179.8891
 Red. masses --      1.1031                 1.0974                 1.0867
 Frc consts  --      6.4107                 6.4230                 6.4743
 IR Inten    --     30.4266                17.8554                 8.1295

                     97                     98                     99
                      A                      A                      A
 Frequencies --   3192.8023              3209.3785              3247.1596
 Red. masses --      1.0893                 1.0965                 1.0897
 Frc consts  --      6.5425                 6.6544                 6.7697
 IR Inten    --     15.7000                29.4181                10.1740

                    100                    101                    102
                      A                      A                      A
 Frequencies --   3462.4900              3534.1616              3569.9556
 Red. masses --      1.0511                 1.0895                 1.0755
 Frc consts  --      7.4248                 8.0177                 8.0756
 IR Inten    --      0.2791                 0.2448                34.2646

 - Thermochemistry -
 -------------------
 Temperature   298.150 Kelvin.  Pressure   1.00000 Atm.
 Atom     1 has atomic number  6 and mass  12.00000

 Molecular mass:   220.15756 amu.
 Principal axes and moments of inertia in atomic units:
                           1         2         3
     Eigenvalues --  2170.567255976.738236473.60842
           X            0.99997  -0.00714  -0.00194
           Y            0.00705   0.99903  -0.04357
           Z            0.00225   0.04355   0.99905
 This molecule is an asymmetric top.
 Rotational symmetry number  1.
 Warning -- assumption of classical behavior for rotation
           may cause significant error
 Rotational temperatures (Kelvin)      0.03990     0.01449     0.01338
 Rotational constants (GHZ):           0.83146     0.30196     0.27878
 Zero-point vibrational energy     832059.7 (Joules/Mol)
                                  198.86704 (Kcal/Mol)
 Warning -- explicit consideration of  27 degrees of freedom as
           vibrations may cause significant error
 Vibrational temperatures:     20.06    66.21    67.35    99.89   128.81
          (Kelvin)            167.32   222.97   282.80   304.82   306.55
                              327.05   351.86   411.18   424.32   443.67
                              474.48   505.41   518.39   568.82   644.16
                              683.94   692.51   740.51   785.26   797.11
                              831.38   866.11   922.70   944.63  1012.97
                             1072.36  1120.98  1169.73  1178.73  1264.50
                             1270.33  1346.50  1360.50  1371.02  1379.80
                             1421.18  1428.21  1434.66  1476.89  1515.12
                             1548.52  1571.18  1602.30  1643.21  1679.33
                             1689.07  1710.10  1720.35  1732.93  1769.65
                             1784.72  1803.06  1896.44  1899.98  1925.39
                             1929.41  2003.10  2039.11  2047.47  2055.59
                             2080.54  2092.33  2138.46  2143.62  2160.89
                             2176.38  2183.87  2194.44  2207.25  2215.61
                             2220.37  2227.18  2258.24  2350.86  2396.50
                             2472.66  2568.80  4372.61  4391.20  4397.22
                             4403.21  4425.05  4427.17  4469.47  4484.29
                             4487.42  4496.36  4516.06  4518.63  4534.81
                             4575.15  4593.73  4617.58  4671.94  4981.75
                             5084.87  5136.37

 Zero-point correction=                           0.316915 (Hartree/Particle)
 Thermal correction to Energy=                    0.333799
 Thermal correction to Enthalpy=                  0.334743
 Thermal correction to Gibbs Free Energy=         0.271369
 Sum of electronic and zero-point Energies=           -691.914261
 Sum of electronic and thermal Energies=              -691.897378
 Sum of electronic and thermal Enthalpies=            -691.896433
 Sum of electronic and thermal Free Energies=         -691.959807

                     E (Thermal)             CV                S
                      KCal/Mol        Cal/Mol-Kelvin    Cal/Mol-Kelvin
 Total                  209.462             64.287            133.382
 Electronic               0.000              0.000              0.000
 Translational            0.889              2.981             42.070
 Rotational               0.889              2.981             32.796
 Vibrational            207.684             58.325             58.516
 Vibration     1          0.593              1.986              7.350
 Vibration     2          0.595              1.979              4.981
 Vibration     3          0.595              1.979              4.948
 Vibration     4          0.598              1.969              4.170
 Vibration     5          0.602              1.957              3.670
 Vibration     6          0.608              1.936              3.161
 Vibration     7          0.620              1.897              2.610
 Vibration     8          0.636              1.845              2.165
 Vibration     9          0.643              1.823              2.028
 Vibration    10          0.644              1.821              2.017
 Vibration    11          0.651              1.799              1.900
 Vibration    12          0.660              1.772              1.769
 Vibration    13          0.684              1.700              1.499
 Vibration    14          0.689              1.683              1.446
 Vibration    15          0.698              1.658              1.371
 Vibration    16          0.713              1.616              1.261
 Vibration    17          0.728              1.573              1.160
 Vibration    18          0.735              1.554              1.121
 Vibration    19          0.762              1.480              0.980
 Vibration    20          0.807              1.366              0.803
 Vibration    21          0.832              1.305              0.723
 Vibration    22          0.838              1.291              0.707
 Vibration    23          0.870              1.217              0.622
 Vibration    24          0.901              1.149              0.553
 Vibration    25          0.909              1.131              0.536
 Vibration    26          0.934              1.079              0.489
 Vibration    27          0.960              1.028              0.446

 Optimization completed.
    -- Stationary point found.
 Normal termination of Gaussian 16 at Fri Dec 11 01:53:41 2020.

 ----------------------------------------------------------------------
 # B3LYP/6-311++G(d,p) empiricaldispersion=gd3bj scf=xqc pop=npa geom=c
 heck
 ----------------------------------------------------------------------

 --------------------------------------
 CID_83626806_JID_6984_Energie_neutraal
 --------------------------------------
 Structure from the checkpoint file:  "JID_6984.chk"
 Charge =  0 Multiplicity = 1

 SCF Done:  E(RB3LYP) =  -692.432634716     A.U. after   15 cycles
 Normal termination of Gaussian 16 at Fri Dec 11 01:59:12 2020.

 ----------------------------------------------------------------------
 # B3LYP/6-311++G(d,p) empiricaldispersion=gd3bj scf=xqc pop=npa geom=c
 heck
 ----------------------------------------------------------------------

 ------------------------------------
 CID_83626806_JID_6984_Energie_kation
 ------------------------------------
 Structure from the checkpoint file:  "JID_6984.chk"
 Charge =  1 Multiplicity = 2

 SCF Done:  E(UB3LYP) =  -692.123454505     A.U. after   32 cycles
 Normal termination of Gaussian 16 at Fri Dec 11 02:14:59 2020.
 Gaussian 16:  ES64L-G16RevA.03 25-Dec-2016

 ----------------------------------------------------------------------
 # B3LYP/6-311++G(d,p) empiricaldispersion=gd3bj scf=xqc pop=npa geom=c
 heck
 ----------------------------------------------------------------------

 -----------------------------------
 CID_83626806_JID_6984_Energie_anion
 -----------------------------------
 Structure from the checkpoint file:  "JID_6984.chk"
 Charge = -1 Multiplicity = 2

                         Standard orientation:
 ---------------------------------------------------------------------
 Center     Atomic      Atomic             Coordinates (Angstroms)
 Number     Number       Type             X           Y           Z
 ---------------------------------------------------------------------
      1          6           0        1.163523   -0.659875    2.266557
      2          6           0        1.869129   -0.580074    0.927268
      3          6           0        2.889565   -1.518177    0.715882
      4          6           0        3.597975   -1.598437   -0.478897
      5          6           0        3.280682   -0.717090   -1.504949
      6          6           0        2.271010    0.223906   -1.313583
      7          6           0        1.547239    0.331014   -0.114903
      8          6           0        0.478027    1.442273    0.015376
      9          6           0        0.982201    2.539602    0.977453
     10          6           0        0.171602    2.121023   -1.336154
     11          6           0       -0.871164    0.893171    0.548410
     12          7           0       -1.283623   -0.294608   -0.181758
     13          6           0       -2.551443   -0.778645   -0.334470
     14          8           0       -2.771542   -1.855837   -0.877787
     15          6           0       -3.701883    0.097259    0.189473
     16          7           0       -5.020332   -0.492644    0.016666
     17          1           0        0.168098   -1.109179    2.169649
     18          1           0        1.735799   -1.294455    2.949065
     19          1           0        1.040468    0.310513    2.752778
     20          1           0        3.127403   -2.208848    1.520835
     21          1           0        4.381082   -2.340944   -0.601961
     22          1           0        3.808488   -0.754645   -2.453561
     23          1           0        2.046943    0.892024   -2.134213
     24          1           0        1.887131    3.003874    0.573301
     25          1           0        0.223131    3.322322    1.097447
     26          1           0        1.223607    2.150534    1.969302
     27          1           0       -0.196344    1.404194   -2.076185
     28          1           0       -0.604126    2.879704   -1.187764
     29          1           0        1.046622    2.632606   -1.746649
     30          1           0       -0.815356    0.699170    1.624196
     31          1           0       -1.623624    1.675196    0.414364
     32          1           0       -0.551121   -0.925547   -0.488867
     33          1           0       -3.541142    0.314096    1.253651
     34          1           0       -3.674683    1.068355   -0.323047
     35          1           0       -5.020853   -1.396929    0.488756
     36          1           0       -5.120294   -0.740290   -0.967932
 ---------------------------------------------------------------------

 SCF Done:  E(UB3LYP) =  -692.422655812     A.U. after   33 cycles
 SCF Done:  E(UB3LYP) =  -692.422655812     a.u. after    1 cycles

 The electronic state is 2-A.
 Alpha  occ. eigenvalues --  -18.99826 -14.24409 -14.20939 -10.17972 -10.11779
 Alpha  occ. eigenvalues --  -10.11484 -10.11020 -10.09987 -10.09817 -10.08635
 Alpha  occ. eigenvalues --  -10.08508 -10.08409 -10.08392 -10.07713 -10.07046
 Alpha  occ. eigenvalues --  -10.06897  -0.94849  -0.83708  -0.80047  -0.77692
 Alpha  occ. eigenvalues --   -0.72773  -0.68630  -0.65214  -0.61737  -0.60425
 Alpha  occ. eigenvalues --   -0.59839  -0.59588  -0.52979  -0.50201  -0.48764
 Alpha  occ. eigenvalues --   -0.46816  -0.42470  -0.41678  -0.40765  -0.39948
 Alpha  occ. eigenvalues --   -0.38279  -0.37356  -0.35876  -0.35341  -0.34531
 Alpha  occ. eigenvalues --   -0.33743  -0.33119  -0.32299  -0.31839  -0.30511
 Alpha  occ. eigenvalues --   -0.30233  -0.29483  -0.29142  -0.28197  -0.27315
 Alpha  occ. eigenvalues --   -0.27134  -0.26213  -0.25631  -0.23996  -0.23575
 Alpha  occ. eigenvalues --   -0.17945  -0.16659  -0.16488  -0.16137  -0.15771
 Alpha  occ. eigenvalues --    0.03921
 Alpha virt. eigenvalues --    0.05874   0.06378   0.06766   0.07086   0.07442
 Alpha virt. eigenvalues --    0.07802   0.08091   0.08813   0.09437   0.10083
 Alpha virt. eigenvalues --    0.10500   0.10632   0.10929   0.11045   0.12106

  Beta  occ. eigenvalues --  -18.99821 -14.24406 -14.20932 -10.17972 -10.11760
  Beta  occ. eigenvalues --  -10.11460 -10.11018 -10.09981 -10.09813 -10.08625
  Beta  occ. eigenvalues --  -10.08495 -10.08397 -10.08385 -10.07680 -10.07009
  Beta  occ. eigenvalues --  -10.06864  -0.94840  -0.83697  -0.80032  -0.77675
  Beta  occ. eigenvalues --   -0.72752  -0.68599  -0.65191  -0.61696  -0.60376
  Beta  occ. eigenvalues --   -0.59778  -0.59536  -0.52942  -0.50162  -0.48738
  Beta  occ. eigenvalues --   -0.46769  -0.42437  -0.41659  -0.40729  -0.39926
  Beta  occ. eigenvalues --   -0.38251  -0.37332  -0.35836  -0.35310  -0.34498
  Beta  occ. eigenvalues --   -0.33707  -0.33089  -0.32262  -0.31819  -0.30478
  Beta  occ. eigenvalues --   -0.30198  -0.29444  -0.29111  -0.28162  -0.27288
  Beta  occ. eigenvalues --   -0.27110  -0.26182  -0.25599  -0.23966  -0.23547
  Beta  occ. eigenvalues --   -0.17934  -0.16645  -0.16474  -0.16127  -0.15742
  Beta virt. eigenvalues --    0.05998   0.06610   0.06900   0.07185   0.07202
  Beta virt. eigenvalues --    0.07639   0.08444   0.08737   0.09164   0.09791
  Beta virt. eigenvalues --    0.10476   0.10602   0.11084   0.11186   0.11387

 Mulliken charges and spin densities:
               1          2
     1  C    2.053066  -2.702631
     2  C   -1.634130   2.000917
     3  C    0.954353  -1.069221
     4  C    0.293562  -0.661210
     5  C    1.149379  -1.511249
     6  C   -0.383464   0.153544
     7  C   -1.336790   1.741728
     8  C   -1.264393   1.356513
     9  C    0.698978  -1.347123
    10  C    0.262628  -0.785973
    11  C    0.394455  -0.886801
    12  N   -0.218980   0.125456
    13  C   -0.148761   0.259035
    14  O   -0.328082  -0.007359
    15  C    0.334920  -0.803308
    16  N   -0.426475   0.089979
    17  H    0.194845   0.003984
    18  H   -0.501625   0.662000
    19  H   -0.133979   0.282850
    20  H   -0.163586   0.315153
    21  H   -0.224782   0.379699
    22  H   -0.274872   0.445583
    23  H    0.038594   0.115931
    24  H   -0.067959   0.233923
    25  H   -0.376488   0.534349
    26  H   -0.170962   0.291601
    27  H    0.017700   0.150352
    28  H   -0.348049   0.526032
    29  H   -0.212786   0.362031
    30  H    0.077482   0.110711
    31  H    0.454377  -0.245084
    32  H    0.347759  -0.049987
    33  H   -0.233529   0.420186
    34  H   -0.207498   0.397772
    35  H    0.193150   0.054351
    36  H    0.191944   0.056271
 Sum of Mulliken charges =  -1.00000   1.00000

 Dipole moment (field-independent basis, Debye):
    X=              0.4559    Y=             -1.9280    Z=             -1.3412  Tot=              2.3925
 Quadrupole moment (field-independent basis, Debye-Ang):
   XX=           -173.6952   YY=           -152.2985   ZZ=           -144.4176
   XY=              4.2482   XZ=             -0.4694   YZ=             -2.5862

 Summary of Natural Population Analysis:

                                       Natural Population
                Natural  -----------------------------------------------
    Atom  No    Charge         Core      Valence    Rydberg      Total
 -----------------------------------------------------------------------
      C    1   -0.29600      0.99963     2.29024    0.00613     3.29600
      C    2   -0.01464      0.99947     2.00477    0.01040     3.01464
      C    3   -0.11059      0.99953     2.09619    0.01487     3.11059
      C    4   -0.06933      0.99956     2.06257    0.00720     3.06933
      C    5   -0.11321      0.99957     2.09896    0.01467     3.11321
      C    6   -0.09810      0.99951     2.08949    0.00909     3.09810
      C    7   -0.01893      0.99945     2.00644    0.01305     3.01893
      C    8   -0.05167      0.99955     2.03737    0.01475     3.05167
      C    9   -0.27878      0.99962     2.27204    0.00713     3.27878
      C   10   -0.28800      0.99964     2.28044    0.00793     3.28800
      C   11   -0.08696      0.99956     2.07512    0.01229     3.08696
      N   12   -0.32177      0.99966     2.81275    0.00935     3.82177
      C   13    0.33548      0.99968     1.64257    0.02227     2.66452
      O   14   -0.33185      0.99988     3.32538    0.00659     4.33185
      C   15   -0.13558      0.99962     2.12589    0.01007     3.13558
      N   16   -0.41204      0.99978     2.90284    0.00942     3.91204
      H   17    0.10557      0.00000     0.39316    0.00127     0.39443
      H   18    0.10451      0.00000     0.39431    0.00119     0.39549
      H   19    0.10551      0.00000     0.39309    0.00140     0.39449
      H   20    0.09988      0.00000     0.39909    0.00103     0.40012
      H   21    0.09717      0.00000     0.40165    0.00118     0.40283
      H   22    0.10091      0.00000     0.39813    0.00095     0.39909
      H   23    0.10438      0.00000     0.39403    0.00160     0.39562
      H   24    0.10385      0.00000     0.39505    0.00110     0.39615
      H   25    0.10284      0.00000     0.39560    0.00157     0.39716
      H   26    0.10153      0.00000     0.39718    0.00129     0.39847
      H   27    0.10473      0.00000     0.39396    0.00130     0.39527
      H   28    0.10469      0.00000     0.39401    0.00130     0.39531
      H   29    0.10197      0.00000     0.39679    0.00123     0.39803
      H   30    0.09767      0.00000     0.40032    0.00200     0.40233
      H   31    0.10270      0.00000     0.39507    0.00224     0.39730
      H   32    0.19944      0.00000     0.29777    0.00279     0.30056
      H   33    0.10252      0.00000     0.39605    0.00143     0.39748
      H   34    0.10314      0.00000     0.39534    0.00152     0.39686
      H   35    0.17408      0.00000     0.32398    0.00195     0.32592
      H   36    0.17525      0.00000     0.32277    0.00199     0.32475
 =======================================================================
   * Total *    0.00036     15.99370    43.80040    0.20554    59.99964

 Normal termination of Gaussian 16 at Fri Dec 11 02:31:21 2020.
