 Gaussian 16, Revision A.03,

 -----------------------------------------------------------
 # opt freq B3LYP/6-31G(d) empiricaldispersion=gd3bj scf=xqc
 -----------------------------------------------------------

 -------------------------------
 CID_139900001_JID_4300_neutraal
 -------------------------------
 Symbolic Z-matrix:
 Charge =  0 Multiplicity = 1

 SCF Done:  E(RB3LYP) =  -686.660084241     A.U. after   15 cycles
 SCF Done:  E(RB3LYP) =  -686.665118991     A.U. after   13 cycles
 SCF Done:  E(RB3LYP) =  -686.664266975     A.U. after   13 cycles
 SCF Done:  E(RB3LYP) =  -686.665982807     A.U. after   11 cycles
 SCF Done:  E(RB3LYP) =  -686.666143344     A.U. after   12 cycles
 SCF Done:  E(RB3LYP) =  -686.666298022     A.U. after   12 cycles
 SCF Done:  E(RB3LYP) =  -686.666370885     A.U. after   12 cycles
 SCF Done:  E(RB3LYP) =  -686.666419991     A.U. after   12 cycles
 SCF Done:  E(RB3LYP) =  -686.666452229     A.U. after   10 cycles
 SCF Done:  E(RB3LYP) =  -686.666457275     A.U. after    9 cycles
 SCF Done:  E(RB3LYP) =  -686.666572312     A.U. after    9 cycles
 SCF Done:  E(RB3LYP) =  -686.666571933     A.U. after    9 cycles
 SCF Done:  E(RB3LYP) =  -686.666572873     A.U. after    8 cycles
 SCF Done:  E(RB3LYP) =  -686.666572953     A.U. after    8 cycles
 SCF Done:  E(RB3LYP) =  -686.666573013     A.U. after    7 cycles
 Optimization completed.
    -- Stationary point found.
 Normal termination of Gaussian 16 at Thu Dec 10 09:38:16 2020.

 --------------------------------------------------------------------
 #N Geom=AllCheck Guess=TCheck SCRF=Check GenChk RB3LYP/6-31G(d) Freq
 --------------------------------------------------------------------

 Structure from the checkpoint file:  "JID_4300.chk"
 -------------------------------
 CID_139900001_JID_4300_neutraal
 -------------------------------
 Charge =  0 Multiplicity = 1

 SCF Done:  E(RB3LYP) =  -686.666573013     A.U. after    1 cycles

  Exact polarizability: 124.790   3.449 116.207  -4.314   0.503  86.331
 Approx polarizability: 173.782   1.955 181.856 -13.324   9.095 126.036

                      1                      2                      3
                      A                      A                      A
 Frequencies --     46.3652                49.7127                54.8081
 Red. masses --      4.5986                 4.2277                 1.1230
 Frc consts  --      0.0058                 0.0062                 0.0020
 IR Inten    --      2.5618                 4.6351                 0.2365

                      4                      5                      6
                      A                      A                      A
 Frequencies --     72.9088                91.3762               122.9192
 Red. masses --      4.1767                 3.3550                 1.0643
 Frc consts  --      0.0131                 0.0165                 0.0095
 IR Inten    --      0.0534                 1.6606                 0.4415

                      7                      8                      9
                      A                      A                      A
 Frequencies --    143.1913               173.4619               201.6976
 Red. masses --      3.9795                 5.8496                 2.8596
 Frc consts  --      0.0481                 0.1037                 0.0685
 IR Inten    --      6.0407                 2.0786                 5.8761

                     10                     11                     12
                      A                      A                      A
 Frequencies --    235.8052               248.8290               255.3454
 Red. masses --      1.1931                 2.3867                 1.5639
 Frc consts  --      0.0391                 0.0871                 0.0601
 IR Inten    --      0.1507                 1.7005                 0.8144

                     13                     14                     15
                      A                      A                      A
 Frequencies --    276.1019               281.1828               295.8051
 Red. masses --      2.4493                 3.1436                 2.2483
 Frc consts  --      0.1100                 0.1464                 0.1159
 IR Inten    --      1.2593                 3.5574                 3.2104

                     16                     17                     18
                      A                      A                      A
 Frequencies --    333.3386               363.7939               410.4472
 Red. masses --      3.0259                 3.5121                 3.2523
 Frc consts  --      0.1981                 0.2739                 0.3228
 IR Inten    --      1.6876                 5.5888                25.2333

                     19                     20                     21
                      A                      A                      A
 Frequencies --    457.6031               462.5714               536.8400
 Red. masses --      3.2201                 4.2696                 3.0487
 Frc consts  --      0.3973                 0.5383                 0.5177
 IR Inten    --      9.5368                 4.5393                20.7616

                     22                     23                     24
                      A                      A                      A
 Frequencies --    571.2468               633.2056               666.0057
 Red. masses --      4.3767                 6.8558                 3.6457
 Frc consts  --      0.8415                 1.6196                 0.9528
 IR Inten    --     13.3748                10.3787                 6.3458

                     25                     26                     27
                      A                      A                      A
 Frequencies --    702.2089               741.2284               762.0983
 Red. masses --      3.2563                 9.9823                 7.6155
 Frc consts  --      0.9460                 3.2313                 2.6060
 IR Inten    --      4.6725                 7.9430                14.1463

                     28                     29                     30
                      A                      A                      A
 Frequencies --    775.2151               857.1166               910.1583
 Red. masses --      3.5365                 1.9613                 2.9612
 Frc consts  --      1.2522                 0.8489                 1.4453
 IR Inten    --      2.8122                 2.9781                 4.1814

                     31                     32                     33
                      A                      A                      A
 Frequencies --    930.0427               958.6188              1019.8035
 Red. masses --      2.1884                 1.5106                 1.8530
 Frc consts  --      1.1153                 0.8179                 1.1354
 IR Inten    --      8.0178                 0.7770                11.2980

                     34                     35                     36
                      A                      A                      A
 Frequencies --   1037.0838              1040.8561              1073.2288
 Red. masses --      1.3543                 1.7600                 2.9077
 Frc consts  --      0.8582                 1.1234                 1.9733
 IR Inten    --      1.5743                12.4124                23.2774

                     37                     38                     39
                      A                      A                      A
 Frequencies --   1085.8258              1150.8090              1169.9522
 Red. masses --      2.4362                 2.2839                 1.2912
 Frc consts  --      1.6923                 1.7821                 1.0413
 IR Inten    --     45.7105                 5.9351                 0.5343

                     40                     41                     42
                      A                      A                      A
 Frequencies --   1203.2406              1210.2083              1238.7014
 Red. masses --      3.6015                 2.4087                 3.2457
 Frc consts  --      3.0721                 2.0785                 2.9342
 IR Inten    --     10.0053                33.2066                57.1080

                     43                     44                     45
                      A                      A                      A
 Frequencies --   1277.7939              1307.8124              1352.1709
 Red. masses --      2.4031                 3.1174                 2.2077
 Frc consts  --      2.3118                 3.1414                 2.3783
 IR Inten    --     15.1110                22.3569                90.8216

                     46                     47                     48
                      A                      A                      A
 Frequencies --   1374.4307              1411.9059              1415.9740
 Red. masses --      1.4022                 3.4156                 1.3957
 Frc consts  --      1.5607                 4.0117                 1.6488
 IR Inten    --     17.9359                32.1839                16.8515

                     49                     50                     51
                      A                      A                      A
 Frequencies --   1423.3249              1440.9737              1446.5465
 Red. masses --      1.2420                 1.4904                 1.5453
 Frc consts  --      1.4825                 1.8233                 1.9051
 IR Inten    --     17.3590                88.9140                94.0816

                     52                     53                     54
                      A                      A                      A
 Frequencies --   1475.3729              1494.3502              1498.2051
 Red. masses --      1.1108                 2.0166                 1.0554
 Frc consts  --      1.4246                 2.6532                 1.3957
 IR Inten    --     19.2755               230.1065                25.8951

                     55                     56                     57
                      A                      A                      A
 Frequencies --   1501.1030              1513.6101              1515.5419
 Red. masses --      1.0599                 1.0458                 1.0518
 Frc consts  --      1.4072                 1.4117                 1.4233
 IR Inten    --     22.1065                 1.8881                 3.5484

                     58                     59                     60
                      A                      A                      A
 Frequencies --   1518.3470              1532.3913              1537.8929
 Red. masses --      1.0442                 1.0597                 1.0676
 Frc consts  --      1.4183                 1.4662                 1.4877
 IR Inten    --      8.5258                 7.9069                 2.3365

                     61                     62                     63
                      A                      A                      A
 Frequencies --   1538.0583              1807.7377              1823.9305
 Red. masses --      1.0828                12.1681                10.5055
 Frc consts  --      1.5092                23.4285                20.5913
 IR Inten    --     25.5386               639.5038               176.2173

                     64                     65                     66
                      A                      A                      A
 Frequencies --   1861.8821              3061.3254              3063.2217
 Red. masses --     11.5160                 1.0374                 1.0357
 Frc consts  --     23.5210                 5.7279                 5.7257
 IR Inten    --     78.5641                 4.2350                11.4471

                     67                     68                     69
                      A                      A                      A
 Frequencies --   3066.0463              3068.8219              3076.4572
 Red. masses --      1.0412                 1.0541                 1.0329
 Frc consts  --      5.7670                 5.8490                 5.7600
 IR Inten    --      4.7053                19.4723                30.2062

                     70                     71                     72
                      A                      A                      A
 Frequencies --   3124.8604              3133.8977              3136.8569
 Red. masses --      1.0968                 1.1035                 1.1033
 Frc consts  --      6.3103                 6.3856                 6.3961
 IR Inten    --      6.7242                13.3640                 2.7415

                     73                     74                     75
                      A                      A                      A
 Frequencies --   3139.4019              3141.0757              3148.6599
 Red. masses --      1.1025                 1.1062                 1.1032
 Frc consts  --      6.4022                 6.4305                 6.4441
 IR Inten    --     23.3760                14.2978                 3.6332

                     76                     77                     78
                      A                      A                      A
 Frequencies --   3153.4277              3173.2371              3185.0106
 Red. masses --      1.1024                 1.1047                 1.1038
 Frc consts  --      6.4588                 6.5540                 6.5973
 IR Inten    --     16.6706                 7.3659                 0.4758

 - Thermochemistry -
 -------------------
 Temperature   298.150 Kelvin.  Pressure   1.00000 Atm.
 Atom     1 has atomic number  6 and mass  12.00000

 Molecular mass:   198.10044 amu.
 Principal axes and moments of inertia in atomic units:
                           1         2         3
     Eigenvalues --  1699.609493221.656174090.68249
           X            0.99992   0.00942   0.00828
           Y           -0.00910   0.99925  -0.03756
           Z           -0.00862   0.03748   0.99926
 This molecule is an asymmetric top.
 Rotational symmetry number  1.
 Warning -- assumption of classical behavior for rotation
           may cause significant error
 Rotational temperatures (Kelvin)      0.05096     0.02688     0.02117
 Rotational constants (GHZ):           1.06186     0.56019     0.44118
 Zero-point vibrational energy     607658.8 (Joules/Mol)
                                  145.23393 (Kcal/Mol)
 Warning -- explicit consideration of  22 degrees of freedom as
           vibrations may cause significant error
 Vibrational temperatures:     66.71    71.53    78.86   104.90   131.47
          (Kelvin)            176.85   206.02   249.57   290.20   339.27
                              358.01   367.39   397.25   404.56   425.60
                              479.60   523.42   590.54   658.39   665.54
                              772.39   821.90   911.04   958.23  1010.32
                             1066.46  1096.49  1115.36  1233.20  1309.51
                             1338.12  1379.24  1467.27  1492.13  1497.56
                             1544.14  1562.26  1655.76  1683.30  1731.19
                             1741.22  1782.22  1838.46  1881.65  1945.47
                             1977.50  2031.42  2037.27  2047.85  2073.24
                             2081.26  2122.73  2150.04  2155.58  2159.75
                             2177.75  2180.53  2184.56  2204.77  2212.68
                             2212.92  2600.93  2624.23  2678.83  4404.56
                             4407.29  4411.36  4415.35  4426.34  4495.98
                             4508.98  4513.24  4516.90  4519.31  4530.22
                             4537.08  4565.58  4582.52

 Zero-point correction=                           0.231445 (Hartree/Particle)
 Thermal correction to Energy=                    0.246757
 Thermal correction to Enthalpy=                  0.247701
 Thermal correction to Gibbs Free Energy=         0.188508
 Sum of electronic and zero-point Energies=           -686.435128
 Sum of electronic and thermal Energies=              -686.419816
 Sum of electronic and thermal Enthalpies=            -686.418872
 Sum of electronic and thermal Free Energies=         -686.478065

                     E (Thermal)             CV                S
                      KCal/Mol        Cal/Mol-Kelvin    Cal/Mol-Kelvin
 Total                  154.842             54.584            124.581
 Electronic               0.000              0.000              0.000
 Translational            0.889              2.981             41.756
 Rotational               0.889              2.981             31.483
 Vibrational            153.065             48.622             51.343
 Vibration     1          0.595              1.979              4.967
 Vibration     2          0.595              1.978              4.829
 Vibration     3          0.596              1.976              4.636
 Vibration     4          0.599              1.967              4.073
 Vibration     5          0.602              1.955              3.630
 Vibration     6          0.610              1.930              3.054
 Vibration     7          0.616              1.910              2.761
 Vibration     8          0.627              1.875              2.398
 Vibration     9          0.639              1.837              2.118
 Vibration    10          0.655              1.786              1.834
 Vibration    11          0.662              1.765              1.739
 Vibration    12          0.666              1.754              1.693
 Vibration    13          0.678              1.718              1.558
 Vibration    14          0.681              1.708              1.526
 Vibration    15          0.690              1.682              1.441
 Vibration    16          0.715              1.609              1.244
 Vibration    17          0.737              1.547              1.106
 Vibration    18          0.775              1.448              0.925
 Vibration    19          0.816              1.344              0.773
 Vibration    20          0.820              1.333              0.759
 Vibration    21          0.892              1.169              0.572
 Vibration    22          0.927              1.093              0.502

 Optimization completed.
    -- Stationary point found.
 Normal termination of Gaussian 16 at Thu Dec 10 09:46:42 2020.

 ----------------------------------------------------------------------
 # B3LYP/6-311++G(d,p) empiricaldispersion=gd3bj scf=xqc pop=npa geom=c
 heck
 ----------------------------------------------------------------------

 ---------------------------------------
 CID_139900001_JID_4300_Energie_neutraal
 ---------------------------------------
 Structure from the checkpoint file:  "JID_4300.chk"
 Charge =  0 Multiplicity = 1

 SCF Done:  E(RB3LYP) =  -686.866979055     A.U. after   14 cycles
 Normal termination of Gaussian 16 at Thu Dec 10 09:50:09 2020.

 ----------------------------------------------------------------------
 # B3LYP/6-311++G(d,p) empiricaldispersion=gd3bj scf=xqc pop=npa geom=c
 heck
 ----------------------------------------------------------------------

 -------------------------------------
 CID_139900001_JID_4300_Energie_kation
 -------------------------------------
 Structure from the checkpoint file:  "JID_4300.chk"
 Charge =  1 Multiplicity = 2

 SCF Done:  E(UB3LYP) =  -686.543677287     A.U. after   24 cycles
 Normal termination of Gaussian 16 at Thu Dec 10 09:58:47 2020.
 Gaussian 16:  ES64L-G16RevA.03 25-Dec-2016

 ----------------------------------------------------------------------
 # B3LYP/6-311++G(d,p) empiricaldispersion=gd3bj scf=xqc pop=npa geom=c
 heck
 ----------------------------------------------------------------------

 ------------------------------------
 CID_139900001_JID_4300_Energie_anion
 ------------------------------------
 Structure from the checkpoint file:  "JID_4300.chk"
 Charge = -1 Multiplicity = 2

                         Standard orientation:
 ---------------------------------------------------------------------
 Center     Atomic      Atomic             Coordinates (Angstroms)
 Number     Number       Type             X           Y           Z
 ---------------------------------------------------------------------
      1          6           0        2.437902   -1.220812    1.188392
      2          6           0        2.694794   -0.203702    0.096791
      3          8           0        3.696165    0.482392    0.049296
      4          6           0        1.629633   -0.091330   -1.003615
      5          7           0        0.268031   -0.055333   -0.517205
      6          6           0       -0.508802   -1.179009   -0.443486
      7          8           0       -0.195744   -2.321943   -0.730226
      8          7           0       -1.767921   -0.771836    0.044825
      9          6           0       -1.818019    0.581942    0.281710
     10          8           0       -2.770571    1.205439    0.706699
     11          6           0       -0.441534    1.157793   -0.091871
     12          6           0        0.200709    1.811646    1.138150
     13          6           0       -0.604707    2.164900   -1.238127
     14          6           0       -2.869929   -1.687958    0.271260
     15          1           0        3.364285   -1.416357    1.731423
     16          1           0        2.021845   -2.144360    0.772970
     17          1           0        1.694268   -0.826751    1.891468
     18          1           0        1.845652    0.797077   -1.601906
     19          1           0        1.720099   -0.975695   -1.645871
     20          1           0        1.200412    2.187109    0.896998
     21          1           0       -0.419769    2.647967    1.470941
     22          1           0        0.284312    1.097343    1.962771
     23          1           0       -1.011410    1.675823   -2.128610
     24          1           0       -1.293071    2.955506   -0.927595
     25          1           0        0.356246    2.621707   -1.495488
     26          1           0       -2.517792   -2.689809    0.023694
     27          1           0       -3.184849   -1.645619    1.317436
     28          1           0       -3.720066   -1.421681   -0.362944
 ---------------------------------------------------------------------

 SCF Done:  E(UB3LYP) =  -686.857570966     A.U. after   33 cycles
 SCF Done:  E(UB3LYP) =  -686.857570966     a.u. after    1 cycles

 The electronic state is 2-A.
 Alpha  occ. eigenvalues --  -19.01334 -19.00488 -18.99602 -14.26975 -14.25237
 Alpha  occ. eigenvalues --  -10.21079 -10.18925 -10.14215 -10.13755 -10.11293
 Alpha  occ. eigenvalues --  -10.11034 -10.07610 -10.07412 -10.06215  -0.98287
 Alpha  occ. eigenvalues --   -0.95372  -0.93151  -0.88524  -0.83470  -0.71150
 Alpha  occ. eigenvalues --   -0.66854  -0.63428  -0.60783  -0.59834  -0.55846
 Alpha  occ. eigenvalues --   -0.50753  -0.48829  -0.43736  -0.41213  -0.40071
 Alpha  occ. eigenvalues --   -0.38315  -0.36659  -0.36243  -0.35966  -0.34571
 Alpha  occ. eigenvalues --   -0.34206  -0.33972  -0.32164  -0.31274  -0.31074
 Alpha  occ. eigenvalues --   -0.30432  -0.29905  -0.28967  -0.28527  -0.28158
 Alpha  occ. eigenvalues --   -0.27793  -0.26448  -0.24711  -0.20036  -0.18549
 Alpha  occ. eigenvalues --   -0.17482  -0.17008  -0.13255   0.04536
 Alpha virt. eigenvalues --    0.06623   0.07083   0.07725   0.08519   0.08973
 Alpha virt. eigenvalues --    0.09796   0.10171   0.10640   0.11169   0.11411
 Alpha virt. eigenvalues --    0.12331   0.13036   0.13593   0.13918   0.14559

  Beta  occ. eigenvalues --  -19.01321 -19.00478 -18.99426 -14.26978 -14.25222
  Beta  occ. eigenvalues --  -10.21072 -10.18921 -10.14213 -10.13518 -10.11293
  Beta  occ. eigenvalues --  -10.10989 -10.07562 -10.07385 -10.06217  -0.98265
  Beta  occ. eigenvalues --   -0.95350  -0.92790  -0.88499  -0.83445  -0.71102
  Beta  occ. eigenvalues --   -0.66742  -0.63263  -0.60716  -0.59776  -0.55801
  Beta  occ. eigenvalues --   -0.50701  -0.48741  -0.43451  -0.41163  -0.39970
  Beta  occ. eigenvalues --   -0.38203  -0.36592  -0.36119  -0.35886  -0.34517
  Beta  occ. eigenvalues --   -0.34003  -0.33917  -0.31926  -0.31213  -0.31023
  Beta  occ. eigenvalues --   -0.30375  -0.29787  -0.28915  -0.28469  -0.28107
  Beta  occ. eigenvalues --   -0.27743  -0.26389  -0.23880  -0.20015  -0.18517
  Beta  occ. eigenvalues --   -0.17421  -0.16974  -0.13140
  Beta virt. eigenvalues --    0.06907   0.07887   0.08079   0.08487   0.08725
  Beta virt. eigenvalues --    0.09638   0.10413   0.10742   0.10869   0.11401
  Beta virt. eigenvalues --    0.11683   0.12687   0.13388   0.13750   0.14017

 Mulliken charges and spin densities:
               1          2
     1  C    0.205410  -0.636319
     2  C   -0.545832   0.720864
     3  O   -0.289984   0.062489
     4  C    0.455698  -0.692200
     5  N    0.163894  -0.028057
     6  C    0.203192  -0.157897
     7  O   -0.363273   0.004664
     8  N   -0.268553   0.202185
     9  C   -0.271732   0.136609
    10  O   -0.333463   0.025375
    11  C   -1.657774   1.747456
    12  C    0.984150  -1.451974
    13  C    0.950061  -1.460199
    14  C    1.005651  -1.235798
    15  H    0.045603   0.121832
    16  H    0.168620  -0.004196
    17  H   -0.234993   0.400291
    18  H   -0.021856   0.212182
    19  H    0.218931  -0.008218
    20  H    0.004253   0.188816
    21  H    0.118501   0.064577
    22  H   -0.281814   0.452110
    23  H   -0.333596   0.512683
    24  H   -0.056654   0.227613
    25  H   -0.175190   0.347707
    26  H    0.027218   0.160565
    27  H   -0.387011   0.574439
    28  H   -0.329455   0.512404
 Sum of Mulliken charges =  -1.00000   1.00000

 Dipole moment (field-independent basis, Debye):
    X=              1.0191    Y=             -1.0815    Z=             -1.3646  Tot=              2.0175
 Quadrupole moment (field-independent basis, Debye-Ang):
   XX=           -147.7064   YY=           -122.5808   ZZ=           -118.2014
   XY=             -5.7126   XZ=              0.3215   YZ=              3.0302

 Summary of Natural Population Analysis:

                                       Natural Population
                Natural  -----------------------------------------------
    Atom  No    Charge         Core      Valence    Rydberg      Total
 -----------------------------------------------------------------------
      C    1   -0.34339      0.99962     2.33859    0.00518     3.34339
      C    2    0.31396      0.99970     1.66725    0.01909     2.68604
      O    3   -0.27712      0.99987     3.27037    0.00688     4.27712
      C    4   -0.13214      0.99957     2.12099    0.01158     3.13214
      N    5   -0.26266      0.99961     2.74980    0.01326     3.76266
      C    6    0.42200      0.99963     1.55494    0.02343     2.57800
      O    7   -0.32695      0.99987     3.32199    0.00509     4.32695
      N    8   -0.25789      0.99960     2.74843    0.00987     3.75789
      C    9    0.36091      0.99958     1.61607    0.02344     2.63909
      O   10   -0.30391      0.99987     3.29817    0.00586     4.30391
      C   11    0.03757      0.99955     1.94943    0.01345     2.96243
      C   12   -0.29011      0.99961     2.28299    0.00750     3.29011
      C   13   -0.28769      0.99962     2.28073    0.00734     3.28769
      C   14   -0.17781      0.99964     2.17025    0.00791     3.17781
      H   15    0.10692      0.00000     0.39227    0.00081     0.39308
      H   16    0.11294      0.00000     0.38607    0.00099     0.38706
      H   17    0.11655      0.00000     0.38088    0.00257     0.38345
      H   18    0.10766      0.00000     0.39097    0.00137     0.39234
      H   19    0.11777      0.00000     0.38116    0.00108     0.38223
      H   20    0.10809      0.00000     0.39078    0.00113     0.39191
      H   21    0.10966      0.00000     0.38945    0.00090     0.39034
      H   22    0.10779      0.00000     0.39032    0.00189     0.39221
      H   23    0.10573      0.00000     0.39275    0.00152     0.39427
      H   24    0.11109      0.00000     0.38790    0.00100     0.38891
      H   25    0.10477      0.00000     0.39387    0.00136     0.39523
      H   26    0.11180      0.00000     0.38705    0.00116     0.38820
      H   27    0.10335      0.00000     0.39458    0.00208     0.39665
      H   28    0.10110      0.00000     0.39705    0.00185     0.39890
 =======================================================================
   * Total *   -0.00000     13.99533    38.82509    0.17958    53.00000

 Normal termination of Gaussian 16 at Thu Dec 10 10:11:55 2020.
