 Gaussian 16, Revision A.03,

 -----------------------------------------------------------
 # opt freq B3LYP/6-31G(d) empiricaldispersion=gd3bj scf=xqc
 -----------------------------------------------------------

 -------------------------------
 CID_114725275_JID_9444_neutraal
 -------------------------------
 Symbolic Z-matrix:
 Charge =  0 Multiplicity = 1

 SCF Done:  E(RB3LYP) =  -822.795513343     A.U. after   16 cycles
 SCF Done:  E(RB3LYP) =  -822.799307341     A.U. after   12 cycles
 SCF Done:  E(RB3LYP) =  -822.799583411     A.U. after   12 cycles
 SCF Done:  E(RB3LYP) =  -822.799581684     A.U. after   11 cycles
 SCF Done:  E(RB3LYP) =  -822.799588636     A.U. after   11 cycles
 SCF Done:  E(RB3LYP) =  -822.799630124     A.U. after   11 cycles
 SCF Done:  E(RB3LYP) =  -822.799642551     A.U. after   11 cycles
 SCF Done:  E(RB3LYP) =  -822.799665498     A.U. after   12 cycles
 SCF Done:  E(RB3LYP) =  -822.799680336     A.U. after   12 cycles
 SCF Done:  E(RB3LYP) =  -822.799684713     A.U. after   12 cycles
 SCF Done:  E(RB3LYP) =  -822.800367309     A.U. after   12 cycles
 SCF Done:  E(RB3LYP) =  -822.800366954     A.U. after   10 cycles
 SCF Done:  E(RB3LYP) =  -822.800367568     A.U. after   10 cycles
 SCF Done:  E(RB3LYP) =  -822.800367597     A.U. after    7 cycles
 SCF Done:  E(RB3LYP) =  -822.800367615     A.U. after    7 cycles
 SCF Done:  E(RB3LYP) =  -822.800367619     A.U. after    6 cycles
 Optimization completed.
    -- Stationary point found.
 Normal termination of Gaussian 16 at Sun Dec 13 20:44:51 2020.

 --------------------------------------------------------------------
 #N Geom=AllCheck Guess=TCheck SCRF=Check GenChk RB3LYP/6-31G(d) Freq
 --------------------------------------------------------------------

 Structure from the checkpoint file:  "JID_9444.chk"
 -------------------------------
 CID_114725275_JID_9444_neutraal
 -------------------------------
 Charge =  0 Multiplicity = 1

 SCF Done:  E(RB3LYP) =  -822.800367619     A.U. after    1 cycles

  Exact polarizability: 295.336   0.191 188.592  -8.539  -4.030  78.827
 Approx polarizability: 420.950   8.809 337.533 -17.751 -10.673 126.347

                      1                      2                      3
                      A                      A                      A
 Frequencies --     20.4563                27.6117                30.1644
 Red. masses --      4.2985                 1.3985                 2.1267
 Frc consts  --      0.0011                 0.0006                 0.0011
 IR Inten    --      0.8602                 0.9730                 0.9332

                      4                      5                      6
                      A                      A                      A
 Frequencies --     63.7006                81.8427               105.3829
 Red. masses --      4.3511                 1.1410                 5.0297
 Frc consts  --      0.0104                 0.0045                 0.0329
 IR Inten    --      0.5610                 0.5446                 0.7188

                      7                      8                      9
                      A                      A                      A
 Frequencies --    148.2762               164.3120               181.7429
 Red. masses --      4.6974                 4.3734                 3.8635
 Frc consts  --      0.0608                 0.0696                 0.0752
 IR Inten    --      0.6928                 2.0842                 2.9350

                     10                     11                     12
                      A                      A                      A
 Frequencies --    211.5308               231.9634               271.7986
 Red. masses --      3.9092                 4.6297                 4.3295
 Frc consts  --      0.1031                 0.1468                 0.1884
 IR Inten    --      0.7329                 2.1111                 4.2229

                     13                     14                     15
                      A                      A                      A
 Frequencies --    273.6735               294.7923               370.7180
 Red. masses --      4.6074                 4.7582                 3.1032
 Frc consts  --      0.2033                 0.2436                 0.2513
 IR Inten    --      3.6280                 1.7351                 2.0059

                     16                     17                     18
                      A                      A                      A
 Frequencies --    387.9951               424.0740               482.5071
 Red. masses --      8.4252                 3.4107                 4.1292
 Frc consts  --      0.7473                 0.3614                 0.5664
 IR Inten    --      3.1719                 0.7293                13.0023

                     19                     20                     21
                      A                      A                      A
 Frequencies --    504.4035               515.2953               524.2863
 Red. masses --      4.5123                 4.7112                 4.3890
 Frc consts  --      0.6764                 0.7370                 0.7108
 IR Inten    --     11.3156                 4.6615                 4.6934

                     22                     23                     24
                      A                      A                      A
 Frequencies --    539.6906               576.4964               596.9028
 Red. masses --      5.3758                 3.6942                 6.4473
 Frc consts  --      0.9225                 0.7234                 1.3534
 IR Inten    --      3.3385                 0.4286                 1.5074

                     25                     26                     27
                      A                      A                      A
 Frequencies --    618.0801               635.8520               693.8566
 Red. masses --      5.6637                 5.5118                 6.8124
 Frc consts  --      1.2748                 1.3130                 1.9324
 IR Inten    --     12.4851                 2.3146                24.1864

                     28                     29                     30
                      A                      A                      A
 Frequencies --    727.4888               743.7187               758.4296
 Red. masses --      4.5346                 6.2406                 2.8617
 Frc consts  --      1.4140                 2.0337                 0.9698
 IR Inten    --     10.6115                 1.9982                19.1139

                     31                     32                     33
                      A                      A                      A
 Frequencies --    786.2691               797.5894               826.2094
 Red. masses --      1.5961                 3.0170                 4.4792
 Frc consts  --      0.5814                 1.1308                 1.8015
 IR Inten    --      6.8782                21.0169                93.7218

                     34                     35                     36
                      A                      A                      A
 Frequencies --    859.0962               873.6460               876.2045
 Red. masses --      1.4162                 2.1279                 2.8225
 Frc consts  --      0.6158                 0.9569                 1.2767
 IR Inten    --      3.7659                15.2130                21.8685

                     37                     38                     39
                      A                      A                      A
 Frequencies --    901.2886               938.5009               940.2386
 Red. masses --      1.3672                 4.6568                 1.4775
 Frc consts  --      0.6544                 2.4166                 0.7696
 IR Inten    --      1.2300                15.6742                 6.5182

                     40                     41                     42
                      A                      A                      A
 Frequencies --    962.9742               985.1705               991.1613
 Red. masses --      1.2658                 1.3842                 1.8784
 Frc consts  --      0.6916                 0.7915                 1.0873
 IR Inten    --      0.5991                 0.1050                 1.7536

                     43                     44                     45
                      A                      A                      A
 Frequencies --   1015.1223              1019.0087              1046.1390
 Red. masses --      2.1076                 6.1429                 1.9223
 Frc consts  --      1.2796                 3.7582                 1.2395
 IR Inten    --     12.4021                12.3351                 7.9753

                     46                     47                     48
                      A                      A                      A
 Frequencies --   1077.7012              1077.9069              1079.4442
 Red. masses --      1.5609                 1.5184                 2.5751
 Frc consts  --      1.0681                 1.0394                 1.7678
 IR Inten    --      9.5021                 3.0991                 9.3631

                     49                     50                     51
                      A                      A                      A
 Frequencies --   1107.7666              1140.0841              1156.4509
 Red. masses --      1.6681                 1.5405                 1.5719
 Frc consts  --      1.2060                 1.1797                 1.2386
 IR Inten    --      2.3467                 0.8711                21.8016

                     52                     53                     54
                      A                      A                      A
 Frequencies --   1198.1206              1213.7720              1244.2368
 Red. masses --      1.2996                 2.0517                 5.4330
 Frc consts  --      1.0991                 1.7809                 4.9556
 IR Inten    --      0.1347               150.3352                13.9664

                     55                     56                     57
                      A                      A                      A
 Frequencies --   1292.4206              1307.1717              1319.1241
 Red. masses --      2.8797                 2.1466                 8.4313
 Frc consts  --      2.8340                 2.1610                 8.6440
 IR Inten    --      0.2318                10.8366                57.0630

                     58                     59                     60
                      A                      A                      A
 Frequencies --   1327.7650              1338.4153              1355.5482
 Red. masses --      1.6116                 4.0766                 4.0059
 Frc consts  --      1.6740                 4.3026                 4.3369
 IR Inten    --     12.6572               160.1041                 5.8266

                     61                     62                     63
                      A                      A                      A
 Frequencies --   1406.8178              1440.6466              1443.8257
 Red. masses --      5.7857                 1.4213                 1.6188
 Frc consts  --      6.7466                 1.7380                 1.9883
 IR Inten    --     20.9679                 0.9330                 2.9447

                     64                     65                     66
                      A                      A                      A
 Frequencies --   1446.9600              1454.8718              1508.4369
 Red. masses --      1.6792                 2.6722                 1.0434
 Frc consts  --      2.0715                 3.3324                 1.3988
 IR Inten    --      1.7401                34.6004                 6.5653

                     67                     68                     69
                      A                      A                      A
 Frequencies --   1515.6320              1517.3463              1521.9099
 Red. masses --      1.1120                 1.0525                 1.4266
 Frc consts  --      1.5050                 1.4277                 1.9468
 IR Inten    --      8.9661                 6.9644                 7.3223

                     70                     71                     72
                      A                      A                      A
 Frequencies --   1524.7085              1542.0374              1602.8769
 Red. masses --      1.8506                 2.7265                 6.6466
 Frc consts  --      2.5348                 3.8198                10.0612
 IR Inten    --      3.5663                37.7019               317.5976

                     73                     74                     75
                      A                      A                      A
 Frequencies --   1619.7422              1652.3011              1653.7318
 Red. masses --      6.0420                 5.7810                 6.1170
 Frc consts  --      9.3394                 9.2989                 9.8564
 IR Inten    --      8.6834                54.0288                 5.6197

                     76                     77                     78
                      A                      A                      A
 Frequencies --   1665.9695              1728.4005              3049.6774
 Red. masses --      7.9557                12.5830                 1.0398
 Frc consts  --     13.0096                22.1474                 5.6980
 IR Inten    --      9.9992               146.7475                20.5060

                     79                     80                     81
                      A                      A                      A
 Frequencies --   3050.9703              3104.8672              3109.5332
 Red. masses --      1.0368                 1.1000                 1.0963
 Frc consts  --      5.6860                 6.2479                 6.2456
 IR Inten    --     21.2695                13.4956                16.9763

                     82                     83                     84
                      A                      A                      A
 Frequencies --   3135.8831              3136.7788              3171.7025
 Red. masses --      1.1027                 1.1033                 1.0884
 Frc consts  --      6.3889                 6.3961                 6.4512
 IR Inten    --     18.3315                12.4316                17.5220

                     85                     86                     87
                      A                      A                      A
 Frequencies --   3184.3386              3198.3937              3198.8917
 Red. masses --      1.0871                 1.0941                 1.0899
 Frc consts  --      6.4949                 6.5946                 6.5712
 IR Inten    --      6.7858                26.1458                15.5677

                     88                     89                     90
                      A                      A                      A
 Frequencies --   3213.9722              3224.0934              3287.9996
 Red. masses --      1.0959                 1.0910                 1.0965
 Frc consts  --      6.6699                 6.6817                 6.9845
 IR Inten    --     30.9244                 1.4312                 0.1694

 - Thermochemistry -
 -------------------
 Temperature   298.150 Kelvin.  Pressure   1.00000 Atm.
 Atom     1 has atomic number  6 and mass  12.00000

 Molecular mass:   251.09463 amu.
 Principal axes and moments of inertia in atomic units:
                           1         2         3
     Eigenvalues --  1883.300799166.98067**********
           X            0.99999   0.00278  -0.00328
           Y           -0.00277   0.99999   0.00172
           Z            0.00329  -0.00171   0.99999
 This molecule is an asymmetric top.
 Rotational symmetry number  1.
 Warning -- assumption of classical behavior for rotation
           may cause significant error
 Rotational temperatures (Kelvin)      0.04599     0.00945     0.00801
 Rotational constants (GHZ):           0.95829     0.19687     0.16685
 Zero-point vibrational energy     661384.8 (Joules/Mol)
                                  158.07477 (Kcal/Mol)
 Warning -- explicit consideration of  25 degrees of freedom as
           vibrations may cause significant error
 Vibrational temperatures:     29.43    39.73    43.40    91.65   117.75
          (Kelvin)            151.62   213.34   236.41   261.49   304.35
                              333.74   391.06   393.76   424.14   533.38
                              558.24   610.15   694.22   725.72   741.39
                              754.33   776.49   829.45   858.81   889.28
                              914.85   998.30  1046.69  1070.05  1091.21
                             1131.27  1147.55  1188.73  1236.05  1256.98
                             1260.66  1296.75  1350.29  1352.79  1385.51
                             1417.44  1426.06  1460.53  1466.13  1505.16
                             1550.57  1550.87  1553.08  1593.83  1640.33
                             1663.87  1723.83  1746.35  1790.18  1859.51
                             1880.73  1897.93  1910.36  1925.68  1950.33
                             2024.10  2072.77  2077.34  2081.85  2093.24
                             2170.30  2180.66  2183.12  2189.69  2193.72
                             2218.65  2306.18  2330.45  2377.29  2379.35
                             2396.96  2486.78  4387.81  4389.67  4467.21
                             4473.92  4511.84  4513.13  4563.37  4581.55
                             4601.78  4602.49  4624.19  4638.75  4730.70

 Zero-point correction=                           0.251908 (Hartree/Particle)
 Thermal correction to Energy=                    0.268110
 Thermal correction to Enthalpy=                  0.269054
 Thermal correction to Gibbs Free Energy=         0.205493
 Sum of electronic and zero-point Energies=           -822.548459
 Sum of electronic and thermal Energies=              -822.532258
 Sum of electronic and thermal Enthalpies=            -822.531314
 Sum of electronic and thermal Free Energies=         -822.594875

                     E (Thermal)             CV                S
                      KCal/Mol        Cal/Mol-Kelvin    Cal/Mol-Kelvin
 Total                  168.241             61.313            133.776
 Electronic               0.000              0.000              0.000
 Translational            0.889              2.981             42.462
 Rotational               0.889              2.981             33.590
 Vibrational            166.464             55.351             57.724
 Vibration     1          0.593              1.986              6.589
 Vibration     2          0.593              1.984              5.994
 Vibration     3          0.594              1.984              5.819
 Vibration     4          0.597              1.972              4.339
 Vibration     5          0.600              1.962              3.846
 Vibration     6          0.605              1.945              3.352
 Vibration     7          0.618              1.905              2.694
 Vibration     8          0.623              1.886              2.500
 Vibration     9          0.630              1.865              2.310
 Vibration    10          0.643              1.823              2.030
 Vibration    11          0.653              1.792              1.864
 Vibration    12          0.675              1.725              1.585
 Vibration    13          0.676              1.722              1.573
 Vibration    14          0.689              1.683              1.446
 Vibration    15          0.743              1.532              1.077
 Vibration    16          0.756              1.496              1.008
 Vibration    17          0.786              1.418              0.878
 Vibration    18          0.839              1.289              0.703
 Vibration    19          0.860              1.240              0.647
 Vibration    20          0.870              1.216              0.621
 Vibration    21          0.879              1.196              0.600
 Vibration    22          0.895              1.162              0.566
 Vibration    23          0.933              1.082              0.492
 Vibration    24          0.955              1.038              0.455
 Vibration    25          0.978              0.994              0.420

 Optimization completed on the basis of negligible forces.
    -- Stationary point found.
 Normal termination of Gaussian 16 at Sun Dec 13 20:57:19 2020.

 ----------------------------------------------------------------------
 # B3LYP/6-311++G(d,p) empiricaldispersion=gd3bj scf=xqc pop=npa geom=c
 heck
 ----------------------------------------------------------------------

 ---------------------------------------
 CID_114725275_JID_9444_Energie_neutraal
 ---------------------------------------
 Structure from the checkpoint file:  "JID_9444.chk"
 Charge =  0 Multiplicity = 1

 SCF Done:  E(RB3LYP) =  -823.010374301     A.U. after   16 cycles
 Normal termination of Gaussian 16 at Sun Dec 13 21:03:03 2020.

 ----------------------------------------------------------------------
 # B3LYP/6-311++G(d,p) empiricaldispersion=gd3bj scf=xqc pop=npa geom=c
 heck
 ----------------------------------------------------------------------

 -------------------------------------
 CID_114725275_JID_9444_Energie_kation
 -------------------------------------
 Structure from the checkpoint file:  "JID_9444.chk"
 Charge =  1 Multiplicity = 2

 SCF Done:  E(UB3LYP) =  -822.716821369     A.U. after   31 cycles
 Normal termination of Gaussian 16 at Sun Dec 13 21:18:16 2020.
 Gaussian 16:  ES64L-G16RevA.03 25-Dec-2016

 ----------------------------------------------------------------------
 # B3LYP/6-311++G(d,p) empiricaldispersion=gd3bj scf=xqc pop=npa geom=c
 heck
 ----------------------------------------------------------------------

 ------------------------------------
 CID_114725275_JID_9444_Energie_anion
 ------------------------------------
 Structure from the checkpoint file:  "JID_9444.chk"
 Charge = -1 Multiplicity = 2

                         Standard orientation:
 ---------------------------------------------------------------------
 Center     Atomic      Atomic             Coordinates (Angstroms)
 Number     Number       Type             X           Y           Z
 ---------------------------------------------------------------------
      1          6           0       -5.722866   -0.067541    0.654477
      2          6           0       -4.327271    0.247071    0.182098
      3          6           0       -3.299316   -0.693217    0.267276
      4          6           0       -2.010171   -0.344923   -0.148536
      5          7           0       -1.695456    0.857099   -0.654471
      6          6           0       -2.683877    1.749371   -0.749501
      7          6           0       -3.995827    1.499637   -0.345866
      8          6           0       -0.942810   -1.399958   -0.069339
      9          8           0       -1.257085   -2.586013    0.000239
     10          6           0        0.483484   -1.045198   -0.069969
     11          6           0        1.549202   -1.898844   -0.183938
     12          6           0        2.731810   -1.096482   -0.092320
     13          6           0        4.118072   -1.331473   -0.137980
     14          6           0        4.964259   -0.241184   -0.001630
     15          6           0        4.461151    1.065623    0.176968
     16          6           0        3.095315    1.340904    0.229337
     17          6           0        2.269902    0.223366    0.089485
     18          8           0        0.907435    0.256650    0.103243
     19          6           0        2.523309    2.718793    0.419002
     20          1           0       -5.941758   -1.135709    0.563190
     21          1           0       -5.844179    0.203599    1.711056
     22          1           0       -6.472893    0.490181    0.084828
     23          1           0       -3.475721   -1.695931    0.641382
     24          1           0       -2.416612    2.715417   -1.174106
     25          1           0       -4.751745    2.273693   -0.447798
     26          1           0        1.470862   -2.967680   -0.317865
     27          1           0        4.510269   -2.334251   -0.276182
     28          1           0        6.039812   -0.388355   -0.033566
     29          1           0        5.161227    1.891236    0.275511
     30          1           0        1.817699    2.964828   -0.382567
     31          1           0        1.967032    2.789417    1.361493
     32          1           0        3.315194    3.473081    0.430678
 ---------------------------------------------------------------------

 SCF Done:  E(UB3LYP) =  -823.047517157     A.U. after   25 cycles

 The electronic state is 2-A.
 Alpha  occ. eigenvalues --  -19.04520 -18.92573 -14.16912 -10.09876 -10.08529
 Alpha  occ. eigenvalues --  -10.07883 -10.07476 -10.07421 -10.07361 -10.06726
 Alpha  occ. eigenvalues --  -10.06582 -10.06489 -10.05797 -10.05489 -10.05470
 Alpha  occ. eigenvalues --  -10.05437 -10.04940 -10.04220 -10.02824  -0.97428
 Alpha  occ. eigenvalues --   -0.86879  -0.80973  -0.73952  -0.70023  -0.68187
 Alpha  occ. eigenvalues --   -0.64159  -0.63705  -0.61451  -0.60158  -0.57851
 Alpha  occ. eigenvalues --   -0.53351  -0.49517  -0.48642  -0.48067  -0.45307
 Alpha  occ. eigenvalues --   -0.41764  -0.38807  -0.38396  -0.36952  -0.36282
 Alpha  occ. eigenvalues --   -0.34703  -0.33513  -0.32678  -0.32427  -0.31499
 Alpha  occ. eigenvalues --   -0.30909  -0.30464  -0.29161  -0.28850  -0.28047
 Alpha  occ. eigenvalues --   -0.27531  -0.27035  -0.25916  -0.25568  -0.24492
 Alpha  occ. eigenvalues --   -0.23694  -0.23216  -0.22455  -0.21650  -0.16500
 Alpha  occ. eigenvalues --   -0.15565  -0.13600  -0.13090  -0.11835  -0.09900
 Alpha  occ. eigenvalues --   -0.09316   0.01682
 Alpha virt. eigenvalues --    0.07247   0.07615   0.08583   0.08764   0.09189
 Alpha virt. eigenvalues --    0.09692   0.10101   0.10980   0.11293   0.11589
 Alpha virt. eigenvalues --    0.11655   0.12009   0.12733   0.13388   0.13679

  Beta  occ. eigenvalues --  -19.04428 -18.91873 -14.16753 -10.09863 -10.08509
  Beta  occ. eigenvalues --  -10.07935 -10.07422 -10.07385 -10.07178 -10.06696
  Beta  occ. eigenvalues --  -10.06527 -10.06491 -10.05827 -10.05514 -10.05392
  Beta  occ. eigenvalues --  -10.05350 -10.04762 -10.04127 -10.02654  -0.97284
  Beta  occ. eigenvalues --   -0.85666  -0.80690  -0.73850  -0.69871  -0.68031
  Beta  occ. eigenvalues --   -0.64020  -0.63362  -0.61251  -0.60026  -0.57739
  Beta  occ. eigenvalues --   -0.52734  -0.49352  -0.48495  -0.47946  -0.45142
  Beta  occ. eigenvalues --   -0.41391  -0.38692  -0.38230  -0.36832  -0.36186
  Beta  occ. eigenvalues --   -0.34521  -0.33212  -0.32622  -0.32325  -0.31391
  Beta  occ. eigenvalues --   -0.30859  -0.30248  -0.29109  -0.28696  -0.28001
  Beta  occ. eigenvalues --   -0.27031  -0.26572  -0.25645  -0.25248  -0.24398
  Beta  occ. eigenvalues --   -0.23059  -0.22897  -0.21683  -0.20270  -0.15853
  Beta  occ. eigenvalues --   -0.14847  -0.12953  -0.12369  -0.11478  -0.09064
  Beta  occ. eigenvalues --   -0.08294
  Beta virt. eigenvalues --    0.07217   0.07441   0.07597   0.08563   0.09072
  Beta virt. eigenvalues --    0.09303   0.10076   0.10356   0.11008   0.11390
  Beta virt. eigenvalues --    0.11635   0.11871   0.12056   0.12725   0.13467

 Mulliken charges and spin densities:
               1          2
     1  C   -0.347512   0.012863
     2  C    0.500191  -0.020104
     3  C    0.573366   0.096997
     4  C   -0.419947   0.049348
     5  N    0.027043   0.076845
     6  C    0.144837  -0.036115
     7  C   -1.114740   0.138568
     8  C   -0.642839   0.207464
     9  O   -0.387173   0.257964
    10  C   -0.071385  -0.022020
    11  C    0.368505   0.150980
    12  C    0.862889  -0.033709
    13  C   -0.241556   0.090309
    14  C   -0.107118  -0.023996
    15  C   -0.662267   0.070629
    16  C    0.384530   0.004159
    17  C   -1.104361  -0.018781
    18  O    0.062454   0.026099
    19  C   -0.606191   0.004284
    20  H    0.133912   0.000267
    21  H    0.148013   0.001150
    22  H    0.125316   0.000835
    23  H    0.208466  -0.006094
    24  H    0.130355   0.003194
    25  H    0.107888  -0.011842
    26  H    0.164509  -0.011104
    27  H    0.106165  -0.005383
    28  H    0.123009   0.001369
    29  H    0.086223  -0.005231
    30  H    0.163573   0.000305
    31  H    0.157486   0.000875
    32  H    0.126360  -0.000123
 Sum of Mulliken charges =  -1.00000   1.00000

 Dipole moment (field-independent basis, Debye):
    X=              0.0342    Y=              4.0096    Z=              0.8229  Tot=              4.0933
 Quadrupole moment (field-independent basis, Debye-Ang):
   XX=           -146.5963   YY=           -130.3414   ZZ=           -120.5563
   XY=             -4.0256   XZ=             -2.3584   YZ=              0.3367

 Summary of Natural Population Analysis:

                                       Natural Population
                Natural  -----------------------------------------------
    Atom  No    Charge         Core      Valence    Rydberg      Total
 -----------------------------------------------------------------------
      C    1   -0.29226      0.99964     2.28777    0.00485     3.29226
      C    2   -0.01796      0.99952     2.01055    0.00789     3.01796
      C    3   -0.08707      0.99947     2.07915    0.00844     3.08707
      C    4    0.08393      0.99951     1.90212    0.01444     2.91607
      N    5   -0.20181      0.99969     2.69237    0.00975     3.70181
      C    6    0.00893      0.99960     1.97671    0.01476     2.99107
      C    7   -0.09865      0.99951     2.09072    0.00841     3.09865
      C    8    0.26665      0.99946     1.71303    0.02086     2.73335
      O    9   -0.21681      0.99989     3.21182    0.00511     4.21681
      C   10    0.13796      0.99941     1.84773    0.01489     2.86204
      C   11   -0.09977      0.99948     2.09190    0.00839     3.09977
      C   12   -0.06116      0.99949     2.05312    0.00854     3.06116
      C   13   -0.08450      0.99954     2.07633    0.00863     3.08450
      C   14   -0.12707      0.99961     2.11748    0.00998     3.12707
      C   15   -0.09472      0.99945     2.08557    0.00970     3.09472
      C   16   -0.02946      0.99934     2.02180    0.00832     3.02946
      C   17    0.15757      0.99933     1.83001    0.01308     2.84243
      O   18   -0.22355      0.99985     3.21443    0.00927     4.22355
      C   19   -0.28812      0.99960     2.28358    0.00494     3.28812
      H   20    0.10114      0.00000     0.39790    0.00095     0.39886
      H   21    0.10049      0.00000     0.39850    0.00101     0.39951
      H   22    0.09680      0.00000     0.40218    0.00102     0.40320
      H   23    0.10873      0.00000     0.38983    0.00145     0.39127
      H   24    0.08105      0.00000     0.41765    0.00130     0.41895
      H   25    0.09036      0.00000     0.40843    0.00121     0.40964
      H   26    0.10990      0.00000     0.38905    0.00105     0.39010
      H   27    0.09386      0.00000     0.40461    0.00153     0.40614
      H   28    0.09206      0.00000     0.40676    0.00118     0.40794
      H   29    0.08923      0.00000     0.40841    0.00236     0.41077
      H   30    0.10734      0.00000     0.39132    0.00133     0.39266
      H   31    0.10358      0.00000     0.39505    0.00137     0.39642
      H   32    0.09338      0.00000     0.40529    0.00133     0.40662
 =======================================================================
   * Total *    0.00006     18.99140    46.80119    0.20736    65.99994

 Normal termination of Gaussian 16 at Sun Dec 13 21:31:15 2020.
