 Gaussian 16, Revision A.03,

 -----------------------------------------------------------
 # opt freq B3LYP/6-31G(d) empiricaldispersion=gd3bj scf=xqc
 -----------------------------------------------------------

 ------------------------------
 CID_55002291_JID_9834_neutraal
 ------------------------------
 Symbolic Z-matrix:
 Charge =  0 Multiplicity = 1

 SCF Done:  E(RB3LYP) =  -880.811873919     A.U. after   15 cycles
 SCF Done:  E(RB3LYP) =  -880.816988498     A.U. after   13 cycles
 SCF Done:  E(RB3LYP) =  -880.813788557     A.U. after   13 cycles
 SCF Done:  E(RB3LYP) =  -880.817767955     A.U. after   12 cycles
 SCF Done:  E(RB3LYP) =  -880.818752617     A.U. after   13 cycles
 SCF Done:  E(RB3LYP) =  -880.818626656     A.U. after   12 cycles
 SCF Done:  E(RB3LYP) =  -880.819344518     A.U. after   13 cycles
 SCF Done:  E(RB3LYP) =  -880.819479939     A.U. after   12 cycles
 SCF Done:  E(RB3LYP) =  -880.819577996     A.U. after   11 cycles
 SCF Done:  E(RB3LYP) =  -880.819638144     A.U. after   11 cycles
 SCF Done:  E(RB3LYP) =  -880.820731672     A.U. after   10 cycles
 SCF Done:  E(RB3LYP) =  -880.820732609     A.U. after    8 cycles
 SCF Done:  E(RB3LYP) =  -880.820732840     A.U. after    8 cycles
 SCF Done:  E(RB3LYP) =  -880.820732865     A.U. after    6 cycles
 SCF Done:  E(RB3LYP) =  -880.820732889     A.U. after    7 cycles
 Optimization completed.
    -- Stationary point found.
 Normal termination of Gaussian 16 at Sat Dec 12 11:04:50 2020.

 --------------------------------------------------------------------
 #N Geom=AllCheck Guess=TCheck SCRF=Check GenChk RB3LYP/6-31G(d) Freq
 --------------------------------------------------------------------

 Structure from the checkpoint file:  "JID_9834.chk"
 ------------------------------
 CID_55002291_JID_9834_neutraal
 ------------------------------
 Charge =  0 Multiplicity = 1

 SCF Done:  E(RB3LYP) =  -880.820732889     A.U. after    1 cycles

  Exact polarizability: 200.092   5.989 156.874  -3.609  18.064 139.545
 Approx polarizability: 285.753   6.339 220.449  -1.157  42.174 237.110

                      1                      2                      3
                      A                      A                      A
 Frequencies --     26.3073                31.3362                50.5371
 Red. masses --      3.6785                 3.0023                 2.7622
 Frc consts  --      0.0015                 0.0017                 0.0042
 IR Inten    --      0.6781                 0.4449                 0.7701

                      4                      5                      6
                      A                      A                      A
 Frequencies --     53.8513                61.8928                70.8137
 Red. masses --      3.6752                 3.9950                 4.6186
 Frc consts  --      0.0063                 0.0090                 0.0136
 IR Inten    --      0.3996                 0.7515                 1.5767

                      7                      8                      9
                      A                      A                      A
 Frequencies --     85.5622                94.4538               123.7510
 Red. masses --      5.8788                 4.0307                 4.8716
 Frc consts  --      0.0254                 0.0212                 0.0440
 IR Inten    --      3.7858                 0.6699                 0.5139

                     10                     11                     12
                      A                      A                      A
 Frequencies --    159.9620               173.8878               198.3339
 Red. masses --      3.5054                 3.5032                 1.1908
 Frc consts  --      0.0528                 0.0624                 0.0276
 IR Inten    --      0.8667                 0.7670                 2.3135

                     13                     14                     15
                      A                      A                      A
 Frequencies --    217.5993               231.6636               245.8858
 Red. masses --      1.6689                 1.4582                 2.2851
 Frc consts  --      0.0466                 0.0461                 0.0814
 IR Inten    --      2.1404                 0.7277                 0.6159

                     16                     17                     18
                      A                      A                      A
 Frequencies --    257.3298               300.2939               308.0220
 Red. masses --      1.7948                 3.1444                 3.1775
 Frc consts  --      0.0700                 0.1671                 0.1776
 IR Inten    --      1.9348                 2.0346                10.0465

                     19                     20                     21
                      A                      A                      A
 Frequencies --    328.5492               339.7726               369.5682
 Red. masses --      2.8313                 2.6882                 2.7640
 Frc consts  --      0.1801                 0.1828                 0.2224
 IR Inten    --      4.5893                 4.4254                 3.9545

                     22                     23                     24
                      A                      A                      A
 Frequencies --    380.8699               391.2106               422.5238
 Red. masses --      4.4266                 1.1891                 3.1885
 Frc consts  --      0.3783                 0.1072                 0.3354
 IR Inten    --     13.5099                78.7654                 5.6044

                     25                     26                     27
                      A                      A                      A
 Frequencies --    455.6313               467.9456               514.2246
 Red. masses --      3.5917                 3.5789                 3.7666
 Frc consts  --      0.4393                 0.4617                 0.5868
 IR Inten    --     11.2062                 9.9176                 4.1119

                     28                     29                     30
                      A                      A                      A
 Frequencies --    537.0316               556.3846               573.0244
 Red. masses --      4.4118                 3.5822                 3.7660
 Frc consts  --      0.7497                 0.6533                 0.7286
 IR Inten    --      8.8551                 0.9290                10.2603

                     31                     32                     33
                      A                      A                      A
 Frequencies --    615.3681               619.5090               624.9588
 Red. masses --      1.8842                 2.8109                 2.9451
 Frc consts  --      0.4204                 0.6356                 0.6777
 IR Inten    --    139.3691                18.3173                70.5319

                     34                     35                     36
                      A                      A                      A
 Frequencies --    681.2927               694.7890               737.2623
 Red. masses --      3.4762                 5.2678                 5.7286
 Frc consts  --      0.9507                 1.4983                 1.8346
 IR Inten    --     16.1016                11.4082                 3.3396

                     37                     38                     39
                      A                      A                      A
 Frequencies --    760.4308               793.6612               800.0870
 Red. masses --      1.9359                 1.4258                 1.7990
 Frc consts  --      0.6596                 0.5291                 0.6785
 IR Inten    --     37.6535                11.5625                16.0556

                     40                     41                     42
                      A                      A                      A
 Frequencies --    804.2514               850.9924               861.8640
 Red. masses --      1.4565                 4.0851                 2.6725
 Frc consts  --      0.5551                 1.7430                 1.1696
 IR Inten    --      2.7811                 2.0108                 3.2061

                     43                     44                     45
                      A                      A                      A
 Frequencies --    876.1138               918.5274               931.4820
 Red. masses --      3.2765                 1.3495                 2.7243
 Frc consts  --      1.4818                 0.6708                 1.3927
 IR Inten    --      7.8427                 0.5638                12.5291

                     46                     47                     48
                      A                      A                      A
 Frequencies --    946.4824               950.9359               998.5814
 Red. masses --      2.3635                 1.2602                 2.3687
 Frc consts  --      1.2475                 0.6714                 1.3916
 IR Inten    --      3.7800                 1.1329                 3.9194

                     49                     50                     51
                      A                      A                      A
 Frequencies --   1018.9971              1039.1444              1053.7142
 Red. masses --      1.9285                 2.1766                 4.1108
 Frc consts  --      1.1798                 1.3848                 2.6892
 IR Inten    --      6.8529                 2.6145                86.5306

                     52                     53                     54
                      A                      A                      A
 Frequencies --   1073.8564              1108.4731              1119.6215
 Red. masses --      1.4773                 1.9485                 1.8635
 Frc consts  --      1.0037                 1.4106                 1.3764
 IR Inten    --      1.2632                27.6973                21.0530

                     55                     56                     57
                      A                      A                      A
 Frequencies --   1127.4664              1135.8090              1179.8551
 Red. masses --      1.7458                 1.9693                 1.3342
 Frc consts  --      1.3075                 1.4968                 1.0943
 IR Inten    --     11.6433                34.7111                 7.7117

                     58                     59                     60
                      A                      A                      A
 Frequencies --   1199.3173              1212.9004              1220.2448
 Red. masses --      1.4861                 1.7302                 1.9148
 Frc consts  --      1.2594                 1.4997                 1.6799
 IR Inten    --      4.9118                 5.5402                21.1137

                     61                     62                     63
                      A                      A                      A
 Frequencies --   1256.3127              1258.3297              1294.8712
 Red. masses --      4.2818                 4.7863                 1.9414
 Frc consts  --      3.9817                 4.4652                 1.9178
 IR Inten    --    131.3732               146.1787                10.4735

                     64                     65                     66
                      A                      A                      A
 Frequencies --   1323.9063              1324.8715              1333.5919
 Red. masses --      2.2087                 1.5844                 1.2419
 Frc consts  --      2.2809                 1.6385                 1.3013
 IR Inten    --     37.7605               113.7408                 2.3819

                     67                     68                     69
                      A                      A                      A
 Frequencies --   1341.3195              1370.7144              1379.3003
 Red. masses --      1.4257                 3.9112                 1.7009
 Frc consts  --      1.5113                 4.3297                 1.9066
 IR Inten    --     40.6206                13.6528                33.1157

                     70                     71                     72
                      A                      A                      A
 Frequencies --   1412.4336              1416.1189              1439.9148
 Red. masses --      1.2771                 1.3010                 1.2718
 Frc consts  --      1.5011                 1.5372                 1.5536
 IR Inten    --     12.3217                 3.0442                13.3946

                     73                     74                     75
                      A                      A                      A
 Frequencies --   1442.0615              1449.0824              1450.2873
 Red. masses --      1.2923                 1.6326                 1.5122
 Frc consts  --      1.5833                 2.0198                 1.8740
 IR Inten    --      4.0330                94.7394                32.5703

                     76                     77                     78
                      A                      A                      A
 Frequencies --   1490.3453              1494.4566              1513.9966
 Red. masses --      1.1736                 2.1839                 1.0449
 Frc consts  --      1.5358                 2.8738                 1.4111
 IR Inten    --     18.7737                52.0857                 8.2638

                     79                     80                     81
                      A                      A                      A
 Frequencies --   1516.9614              1518.9605              1522.0330
 Red. masses --      1.3220                 1.0403                 1.0758
 Frc consts  --      1.7924                 1.4142                 1.4683
 IR Inten    --      3.4260                 7.1257                 4.6155

                     82                     83                     84
                      A                      A                      A
 Frequencies --   1522.1892              1525.8030              1534.1169
 Red. masses --      1.0736                 1.5150                 1.0697
 Frc consts  --      1.4657                 2.0780                 1.4834
 IR Inten    --      8.5821                42.8527                13.0785

                     85                     86                     87
                      A                      A                      A
 Frequencies --   1535.1572              1540.4476              1645.8839
 Red. masses --      1.1691                 1.3419                 5.8225
 Frc consts  --      1.6233                 1.8762                 9.2930
 IR Inten    --     31.3423                 8.1141                 6.0647

                     88                     89                     90
                      A                      A                      A
 Frequencies --   1661.0755              1713.4338              1737.2821
 Red. masses --      5.0774                 1.2017                10.4003
 Frc consts  --      8.2541                 2.0787                18.4942
 IR Inten    --     39.4393                69.6835               239.1288

                     91                     92                     93
                      A                      A                      A
 Frequencies --   1845.9506              3015.9032              3052.7770
 Red. masses --     11.4823                 1.0477                 1.0351
 Frc consts  --     23.0525                 5.6146                 5.6835
 IR Inten    --    272.5729                38.3263                19.1189

                     94                     95                     96
                      A                      A                      A
 Frequencies --   3059.9042              3062.6996              3069.9509
 Red. masses --      1.0717                 1.0371                 1.0916
 Frc consts  --      5.9122                 5.7316                 6.0615
 IR Inten    --     23.3302                15.2395                22.6676

                     97                     98                     99
                      A                      A                      A
 Frequencies --   3082.9789              3097.0658              3119.4748
 Red. masses --      1.0596                 1.0606                 1.1020
 Frc consts  --      5.9340                 5.9940                 6.3182
 IR Inten    --     17.2187                32.9120                16.8786

                    100                    101                    102
                      A                      A                      A
 Frequencies --   3129.9246              3131.5761              3132.2798
 Red. masses --      1.1017                 1.0979                 1.1048
 Frc consts  --      6.3590                 6.3435                 6.3865
 IR Inten    --     27.0283                15.4880                 4.0931

                    103                    104                    105
                      A                      A                      A
 Frequencies --   3134.1299              3145.9304              3159.0717
 Red. masses --      1.1015                 1.1023                 1.0946
 Frc consts  --      6.3749                 6.4275                 6.4362
 IR Inten    --     19.9625                 9.5093                19.0616

                    106                    107                    108
                      A                      A                      A
 Frequencies --   3164.7303              3178.5629              3195.1805
 Red. masses --      1.1075                 1.0879                 1.0889
 Frc consts  --      6.5354                 6.4757                 6.5496
 IR Inten    --     15.0023                15.2360                 8.7651

                    109                    110                    111
                      A                      A                      A
 Frequencies --   3213.6559              3542.3150              3660.1045
 Red. masses --      1.0963                 1.0505                 1.0977
 Frc consts  --      6.6707                 7.7663                 8.6637
 IR Inten    --     22.7945               110.2158                56.2366

 - Thermochemistry -
 -------------------
 Temperature   298.150 Kelvin.  Pressure   1.00000 Atm.
 Atom     1 has atomic number  6 and mass  12.00000

 Molecular mass:   264.14739 amu.
 Principal axes and moments of inertia in atomic units:
                           1         2         3
     Eigenvalues --  3215.629976434.838987796.08230
           X            0.99998  -0.00347   0.00478
           Y            0.00353   0.99993  -0.01169
           Z           -0.00474   0.01170   0.99992
 This molecule is an asymmetric top.
 Rotational symmetry number  1.
 Warning -- assumption of classical behavior for rotation
           may cause significant error
 Rotational temperatures (Kelvin)      0.02694     0.01346     0.01111
 Rotational constants (GHZ):           0.56124     0.28046     0.23149
 Zero-point vibrational energy     868151.7 (Joules/Mol)
                                  207.49324 (Kcal/Mol)
 Warning -- explicit consideration of  32 degrees of freedom as
           vibrations may cause significant error
 Vibrational temperatures:     37.85    45.09    72.71    77.48    89.05
          (Kelvin)            101.89   123.10   135.90   178.05   230.15
                              250.19   285.36   313.08   333.31   353.77
                              370.24   432.06   443.17   472.71   488.86
                              531.73   547.99   562.86   607.92   655.55
                              673.27   739.85   772.67   800.51   824.45
                              885.38   891.34   899.18   980.23   999.65
                             1060.76  1094.09  1141.90  1151.15  1157.14
                             1224.39  1240.03  1260.53  1321.56  1340.19
                             1361.78  1368.18  1436.74  1466.11  1495.10
                             1516.06  1545.04  1594.85  1610.89  1622.17
                             1634.18  1697.55  1725.55  1745.09  1755.66
                             1807.55  1810.46  1863.03  1904.81  1906.19
                             1918.74  1929.86  1972.15  1984.51  2032.18
                             2037.48  2071.72  2074.80  2084.91  2086.64
                             2144.27  2150.19  2178.30  2182.57  2185.45
                             2189.87  2190.09  2195.29  2207.25  2208.75
                             2216.36  2368.06  2389.92  2465.25  2499.56
                             2655.91  4339.21  4392.27  4402.52  4406.54
                             4416.97  4435.72  4455.99  4488.23  4503.26
                             4505.64  4506.65  4509.31  4526.29  4545.20
                             4553.34  4573.24  4597.15  4623.73  5096.60
                             5266.07

 Zero-point correction=                           0.330662 (Hartree/Particle)
 Thermal correction to Energy=                    0.350660
 Thermal correction to Enthalpy=                  0.351604
 Thermal correction to Gibbs Free Energy=         0.280861
 Sum of electronic and zero-point Energies=           -880.490071
 Sum of electronic and thermal Energies=              -880.470073
 Sum of electronic and thermal Enthalpies=            -880.469129
 Sum of electronic and thermal Free Energies=         -880.539872

                     E (Thermal)             CV                S
                      KCal/Mol        Cal/Mol-Kelvin    Cal/Mol-Kelvin
 Total                  220.042             74.068            148.890
 Electronic               0.000              0.000              0.000
 Translational            0.889              2.981             42.613
 Rotational               0.889              2.981             33.444
 Vibrational            218.265             68.106             72.833
 Vibration     1          0.593              1.985              6.090
 Vibration     2          0.594              1.983              5.743
 Vibration     3          0.595              1.977              4.796
 Vibration     4          0.596              1.976              4.671
 Vibration     5          0.597              1.972              4.396
 Vibration     6          0.598              1.968              4.131
 Vibration     7          0.601              1.959              3.759
 Vibration     8          0.603              1.953              3.566
 Vibration     9          0.610              1.929              3.041
 Vibration    10          0.622              1.891              2.550
 Vibration    11          0.627              1.875              2.393
 Vibration    12          0.637              1.842              2.148
 Vibration    13          0.646              1.814              1.979
 Vibration    14          0.653              1.793              1.866
 Vibration    15          0.660              1.770              1.760
 Vibration    16          0.667              1.750              1.680
 Vibration    17          0.693              1.673              1.415
 Vibration    18          0.698              1.658              1.373
 Vibration    19          0.712              1.618              1.267
 Vibration    20          0.720              1.596              1.213
 Vibration    21          0.742              1.535              1.082
 Vibration    22          0.751              1.511              1.036
 Vibration    23          0.759              1.489              0.996
 Vibration    24          0.785              1.421              0.883
 Vibration    25          0.814              1.348              0.779
 Vibration    26          0.825              1.321              0.743
 Vibration    27          0.869              1.218              0.623
 Vibration    28          0.892              1.168              0.572
 Vibration    29          0.912              1.126              0.531
 Vibration    30          0.929              1.090              0.498
 Vibration    31          0.975              0.999              0.424
 Vibration    32          0.979              0.991              0.417

 Optimization completed.
    -- Stationary point found.
 Normal termination of Gaussian 16 at Sat Dec 12 11:28:42 2020.

 ----------------------------------------------------------------------
 # B3LYP/6-311++G(d,p) empiricaldispersion=gd3bj scf=xqc pop=npa geom=c
 heck
 ----------------------------------------------------------------------

 --------------------------------------
 CID_55002291_JID_9834_Energie_neutraal
 --------------------------------------
 Structure from the checkpoint file:  "JID_9834.chk"
 Charge =  0 Multiplicity = 1

 SCF Done:  E(RB3LYP) =  -881.073990542     A.U. after   16 cycles
 Normal termination of Gaussian 16 at Sat Dec 12 11:39:51 2020.

 ----------------------------------------------------------------------
 # B3LYP/6-311++G(d,p) empiricaldispersion=gd3bj scf=xqc pop=npa geom=c
 heck
 ----------------------------------------------------------------------

 ------------------------------------
 CID_55002291_JID_9834_Energie_kation
 ------------------------------------
 Structure from the checkpoint file:  "JID_9834.chk"
 Charge =  1 Multiplicity = 2

 SCF Done:  E(UB3LYP) =  -880.793624335     A.U. after   25 cycles
 Normal termination of Gaussian 16 at Sat Dec 12 12:04:11 2020.
 Gaussian 16:  ES64L-G16RevA.03 25-Dec-2016

 ----------------------------------------------------------------------
 # B3LYP/6-311++G(d,p) empiricaldispersion=gd3bj scf=xqc pop=npa geom=c
 heck
 ----------------------------------------------------------------------

 -----------------------------------
 CID_55002291_JID_9834_Energie_anion
 -----------------------------------
 Structure from the checkpoint file:  "JID_9834.chk"
 Charge = -1 Multiplicity = 2

                         Standard orientation:
 ---------------------------------------------------------------------
 Center     Atomic      Atomic             Coordinates (Angstroms)
 Number     Number       Type             X           Y           Z
 ---------------------------------------------------------------------
      1          6           0        0.182823   -3.448160    1.139790
      2          6           0       -0.056058   -1.956705    1.378228
      3          7           0       -0.782271   -1.319937    0.280550
      4          6           0       -2.216155   -1.520268    0.171985
      5          6           0       -2.986496   -0.211459    0.018724
      6          8           0       -4.052408   -0.125658   -0.541600
      7          8           0       -2.359939    0.812870    0.645199
      8          6           0       -2.878442    2.143177    0.382244
      9          6           0       -2.175061    2.734990   -0.827461
     10          6           0       -0.187179   -0.705727   -0.798222
     11          8           0       -0.846382   -0.427858   -1.797761
     12          6           0        1.259890   -0.339000   -0.662155
     13          6           0        2.199159   -0.938277   -1.503292
     14          6           0        3.546118   -0.603134   -1.410399
     15          6           0        3.940789    0.362472   -0.482555
     16          6           0        3.022369    1.007884    0.344935
     17          6           0        1.655726    0.658432    0.254586
     18          7           0        0.713367    1.341036    1.020023
     19          6           0        3.456131    2.080252    1.310182
     20          1           0       -0.760516   -3.987080    0.997942
     21          1           0        0.705258   -3.895377    1.992851
     22          1           0        0.796996   -3.591677    0.244704
     23          1           0       -0.630064   -1.797511    2.298745
     24          1           0        0.898028   -1.443878    1.500902
     25          1           0       -2.485868   -2.137912   -0.688601
     26          1           0       -2.567127   -2.021240    1.079888
     27          1           0       -3.957804    2.070886    0.237347
     28          1           0       -2.669055    2.706606    1.294869
     29          1           0       -2.351469    2.115682   -1.711033
     30          1           0       -2.554994    3.744425   -1.022110
     31          1           0       -1.096175    2.789928   -0.654892
     32          1           0        1.857949   -1.675643   -2.224144
     33          1           0        4.278644   -1.078395   -2.054977
     34          1           0        4.990087    0.637284   -0.404650
     35          1           0        1.031277    1.697285    1.910192
     36          1           0       -0.225989    0.959158    1.046927
     37          1           0        2.919127    3.020360    1.128352
     38          1           0        3.264593    1.798631    2.356745
     39          1           0        4.527597    2.279091    1.220668
 ---------------------------------------------------------------------

 SCF Done:  E(UB3LYP) =  -881.066413443     A.U. after   33 cycles
 SCF Done:  E(UB3LYP) =  -881.066413443     a.u. after    1 cycles

 The electronic state is 2-A.
 Alpha  occ. eigenvalues --  -19.08225 -19.02787 -19.00247 -14.25756 -14.22062
 Alpha  occ. eigenvalues --  -10.21971 -10.18378 -10.14043 -10.13257 -10.12612
 Alpha  occ. eigenvalues --  -10.11725 -10.08793 -10.08758 -10.08596 -10.08273
 Alpha  occ. eigenvalues --  -10.07737 -10.07615 -10.07459 -10.07436  -1.02215
 Alpha  occ. eigenvalues --   -0.95488  -0.93865  -0.85435  -0.82910  -0.75261
 Alpha  occ. eigenvalues --   -0.70143  -0.68785  -0.67333  -0.65663  -0.63271
 Alpha  occ. eigenvalues --   -0.59583  -0.56978  -0.55822  -0.53448  -0.50357
 Alpha  occ. eigenvalues --   -0.48288  -0.46469  -0.44824  -0.42812  -0.41811
 Alpha  occ. eigenvalues --   -0.40742  -0.40469  -0.39177  -0.37842  -0.36592
 Alpha  occ. eigenvalues --   -0.36454  -0.35097  -0.34743  -0.33950  -0.33627
 Alpha  occ. eigenvalues --   -0.33187  -0.32461  -0.31616  -0.31089  -0.30542
 Alpha  occ. eigenvalues --   -0.29640  -0.29148  -0.28740  -0.28519  -0.27520
 Alpha  occ. eigenvalues --   -0.26768  -0.26309  -0.25878  -0.25515  -0.22247
 Alpha  occ. eigenvalues --   -0.22090  -0.20386  -0.18061  -0.16096  -0.15369
 Alpha  occ. eigenvalues --   -0.11751   0.03873
 Alpha virt. eigenvalues --    0.05976   0.06419   0.06716   0.07296   0.07958
 Alpha virt. eigenvalues --    0.08236   0.08553   0.08804   0.08972   0.09465
 Alpha virt. eigenvalues --    0.09898   0.10489   0.10662   0.11039   0.11514

  Beta  occ. eigenvalues --  -19.08219 -19.02785 -19.00234 -14.25761 -14.22025
  Beta  occ. eigenvalues --  -10.21968 -10.18366 -10.14029 -10.13237 -10.12610
  Beta  occ. eigenvalues --  -10.11697 -10.08787 -10.08754 -10.08590 -10.08259
  Beta  occ. eigenvalues --  -10.07738 -10.07586 -10.07430 -10.07413  -1.02206
  Beta  occ. eigenvalues --   -0.95466  -0.93858  -0.85421  -0.82867  -0.75231
  Beta  occ. eigenvalues --   -0.70117  -0.68755  -0.67299  -0.65628  -0.63240
  Beta  occ. eigenvalues --   -0.59523  -0.56954  -0.55765  -0.53412  -0.50323
  Beta  occ. eigenvalues --   -0.48256  -0.46447  -0.44793  -0.42764  -0.41786
  Beta  occ. eigenvalues --   -0.40708  -0.40435  -0.39154  -0.37824  -0.36567
  Beta  occ. eigenvalues --   -0.36422  -0.35072  -0.34717  -0.33924  -0.33597
  Beta  occ. eigenvalues --   -0.33139  -0.32428  -0.31590  -0.31059  -0.30501
  Beta  occ. eigenvalues --   -0.29607  -0.29111  -0.28723  -0.28482  -0.27475
  Beta  occ. eigenvalues --   -0.26740  -0.26279  -0.25854  -0.25496  -0.22218
  Beta  occ. eigenvalues --   -0.22077  -0.20377  -0.18038  -0.16075  -0.15323
  Beta  occ. eigenvalues --   -0.11715
  Beta virt. eigenvalues --    0.06139   0.06744   0.06821   0.06882   0.07537
  Beta virt. eigenvalues --    0.08225   0.08664   0.08831   0.09007   0.09191
  Beta virt. eigenvalues --    0.09673   0.10210   0.10724   0.11137   0.11163

 Mulliken charges and spin densities:
               1          2
     1  C    0.465838  -1.018796
     2  C   -0.245749   0.077521
     3  N    0.064509   0.138115
     4  C    0.847265  -1.077243
     5  C   -0.561129   0.448968
     6  O   -0.236701   0.003112
     7  O   -0.016072   0.028338
     8  C    0.022887  -0.278431
     9  C   -0.332776  -0.049468
    10  C   -0.744177  -0.299509
    11  O   -0.166558   0.020331
    12  C    0.678215   0.070483
    13  C   -0.370814   0.180730
    14  C   -0.246576  -0.213470
    15  C   -0.037794  -0.341314
    16  C   -1.189241   1.547023
    17  C   -0.100391   0.139094
    18  N   -0.422185   0.122369
    19  C    2.191610  -2.814967
    20  H   -0.068350   0.205681
    21  H   -0.341212   0.500441
    22  H    0.038909   0.115040
    23  H   -0.626238   0.823034
    24  H    0.368136  -0.195848
    25  H    0.248826   0.006458
    26  H   -0.236930   0.452935
    27  H    0.134569   0.021345
    28  H   -0.301610   0.468839
    29  H    0.153549   0.023160
    30  H    0.041135   0.100347
    31  H    0.241866  -0.067597
    32  H    0.145252   0.033874
    33  H    0.088991   0.058018
    34  H   -0.045963   0.173033
    35  H   -0.248327   0.529071
    36  H    0.571839  -0.193342
    37  H   -0.188631   0.360280
    38  H   -0.432190   0.614346
    39  H   -0.143782   0.287995
 Sum of Mulliken charges =  -1.00000   1.00000

 Dipole moment (field-independent basis, Debye):
    X=             -0.2407    Y=             -0.5893    Z=             -5.3434  Tot=              5.3811
 Quadrupole moment (field-independent basis, Debye-Ang):
   XX=           -173.3217   YY=           -161.7556   ZZ=           -169.5284
   XY=            -11.5827   XZ=             -9.3059   YZ=              1.6355

 Summary of Natural Population Analysis:

                                       Natural Population
                Natural  -----------------------------------------------
    Atom  No    Charge         Core      Valence    Rydberg      Total
 -----------------------------------------------------------------------
      C    1   -0.28916      0.99966     2.28448    0.00502     3.28916
      C    2   -0.08471      0.99960     2.07365    0.01146     3.08471
      N    3   -0.25708      0.99964     2.74469    0.01275     3.75708
      C    4   -0.12992      0.99956     2.11849    0.01187     3.12992
      C    5    0.41554      0.99969     1.55859    0.02617     2.58446
      O    6   -0.30375      0.99986     3.29875    0.00514     4.30375
      O    7   -0.29218      0.99986     3.28111    0.01121     4.29218
      C    8   -0.01633      0.99957     2.00582    0.01093     3.01633
      C    9   -0.30262      0.99965     2.29778    0.00518     3.30262
      C   10    0.34621      0.99959     1.62993    0.02427     2.65379
      O   11   -0.31511      0.99988     3.31047    0.00475     4.31511
      C   12   -0.08645      0.99942     2.07590    0.01113     3.08645
      C   13   -0.08320      0.99952     2.07539    0.00829     3.08320
      C   14   -0.12295      0.99956     2.11385    0.00954     3.12295
      C   15   -0.09068      0.99952     2.08157    0.00959     3.09068
      C   16   -0.03289      0.99948     2.02329    0.01012     3.03289
      C   17    0.09470      0.99941     1.89289    0.01300     2.90530
      N   18   -0.40241      0.99970     2.89213    0.01058     3.90241
      C   19   -0.29677      0.99964     2.29101    0.00612     3.29677
      H   20    0.09696      0.00000     0.40206    0.00098     0.40304
      H   21    0.10446      0.00000     0.39442    0.00113     0.39554
      H   22    0.09888      0.00000     0.40012    0.00100     0.40112
      H   23    0.09914      0.00000     0.39749    0.00337     0.40086
      H   24    0.10857      0.00000     0.38916    0.00227     0.39143
      H   25    0.11306      0.00000     0.38603    0.00091     0.38694
      H   26    0.11491      0.00000     0.38384    0.00126     0.38509
      H   27    0.09561      0.00000     0.40323    0.00116     0.40439
      H   28    0.09271      0.00000     0.40592    0.00137     0.40729
      H   29    0.10881      0.00000     0.39044    0.00075     0.39119
      H   30    0.09793      0.00000     0.40144    0.00063     0.40207
      H   31    0.11004      0.00000     0.38891    0.00105     0.38996
      H   32    0.10244      0.00000     0.39667    0.00090     0.39756
      H   33    0.09846      0.00000     0.40079    0.00075     0.40154
      H   34    0.09759      0.00000     0.40159    0.00082     0.40241
      H   35    0.19411      0.00000     0.30181    0.00408     0.30589
      H   36    0.19981      0.00000     0.29651    0.00368     0.30019
      H   37    0.10739      0.00000     0.39120    0.00142     0.39261
      H   38    0.10571      0.00000     0.39246    0.00182     0.39429
      H   39    0.10319      0.00000     0.39580    0.00102     0.39681
 =======================================================================
   * Total *   -0.00000     18.99283    51.76970    0.23748    71.00000

 Normal termination of Gaussian 16 at Sat Dec 12 12:36:10 2020.
