 Gaussian 16, Revision A.03,

 -----------------------------------------------------------
 # opt freq B3LYP/6-31G(d) empiricaldispersion=gd3bj scf=xqc
 -----------------------------------------------------------

 -------------------------------
 CID_136103241_JID_7084_neutraal
 -------------------------------
 Symbolic Z-matrix:
 Charge =  0 Multiplicity = 1

 SCF Done:  E(RB3LYP) =  -743.984942889     A.U. after   15 cycles
 SCF Done:  E(RB3LYP) =  -743.992336660     A.U. after   13 cycles
 SCF Done:  E(RB3LYP) =  -743.993831732     A.U. after   12 cycles
 SCF Done:  E(RB3LYP) =  -743.994211611     A.U. after   12 cycles
 SCF Done:  E(RB3LYP) =  -743.994285717     A.U. after   12 cycles
 SCF Done:  E(RB3LYP) =  -743.994329518     A.U. after   10 cycles
 SCF Done:  E(RB3LYP) =  -743.994339795     A.U. after   10 cycles
 SCF Done:  E(RB3LYP) =  -743.994341241     A.U. after    8 cycles
 SCF Done:  E(RB3LYP) =  -743.994341532     A.U. after    8 cycles
 SCF Done:  E(RB3LYP) =  -743.994341602     A.U. after    7 cycles
 Optimization completed.
    -- Stationary point found.
 Normal termination of Gaussian 16 at Fri Dec 11 11:45:37 2020.

 --------------------------------------------------------------------
 #N Geom=AllCheck Guess=TCheck SCRF=Check GenChk RB3LYP/6-31G(d) Freq
 --------------------------------------------------------------------

 Structure from the checkpoint file:  "JID_7084.chk"
 -------------------------------
 CID_136103241_JID_7084_neutraal
 -------------------------------
 Charge =  0 Multiplicity = 1

 SCF Done:  E(RB3LYP) =  -743.994341602     A.U. after    1 cycles

  Exact polarizability: 259.474 -16.746 167.628  13.179  20.456  85.936
 Approx polarizability: 368.246 -34.349 288.208  23.270  48.184 132.451

                      1                      2                      3
                      A                      A                      A
 Frequencies --     27.5399                32.7709                59.9424
 Red. masses --      3.2826                 3.5879                 5.8042
 Frc consts  --      0.0015                 0.0023                 0.0123
 IR Inten    --      0.0919                 0.3937                 0.2025

                      4                      5                      6
                      A                      A                      A
 Frequencies --     76.5466                98.5908               137.6877
 Red. masses --      3.2702                 3.7294                 2.3493
 Frc consts  --      0.0113                 0.0214                 0.0262
 IR Inten    --      0.2841                 0.1715                 0.8260

                      7                      8                      9
                      A                      A                      A
 Frequencies --    166.5035               191.8327               217.8833
 Red. masses --      4.7131                 5.7937                 3.5634
 Frc consts  --      0.0770                 0.1256                 0.0997
 IR Inten    --      5.6077                 2.7661                 1.5209

                     10                     11                     12
                      A                      A                      A
 Frequencies --    239.6344               280.9186               309.6065
 Red. masses --      1.5471                 4.1124                 3.6734
 Frc consts  --      0.0523                 0.1912                 0.2075
 IR Inten    --      0.5815                 0.6605                 3.9482

                     13                     14                     15
                      A                      A                      A
 Frequencies --    339.0211               348.5692               360.3304
 Red. masses --      2.3604                 1.2108                 3.7153
 Frc consts  --      0.1598                 0.0867                 0.2842
 IR Inten    --      6.9990                16.7687                 3.1335

                     16                     17                     18
                      A                      A                      A
 Frequencies --    399.7243               415.4947               425.4219
 Red. masses --      2.4735                 3.1376                 3.4072
 Frc consts  --      0.2329                 0.3191                 0.3633
 IR Inten    --      2.3116                 1.1087                 0.3625

                     19                     20                     21
                      A                      A                      A
 Frequencies --    501.5990               509.2435               543.6522
 Red. masses --      2.0554                 3.6830                 1.9847
 Frc consts  --      0.3047                 0.5627                 0.3456
 IR Inten    --    178.1540                51.5671               307.5188

                     22                     23                     24
                      A                      A                      A
 Frequencies --    561.0862               582.2387               615.3987
 Red. masses --      4.9777                 4.1369                 5.0402
 Frc consts  --      0.9233                 0.8263                 1.1246
 IR Inten    --     25.0241                11.8808                 1.9964

                     25                     26                     27
                      A                      A                      A
 Frequencies --    644.4462               660.8864               671.2189
 Red. masses --      1.8211                 4.3466                 3.1216
 Frc consts  --      0.4456                 1.1185                 0.8286
 IR Inten    --     39.9513                 5.6737                 5.6519

                     28                     29                     30
                      A                      A                      A
 Frequencies --    729.2127               744.7593               772.2194
 Red. masses --      2.3914                 3.0427                 3.8329
 Frc consts  --      0.7492                 0.9943                 1.3467
 IR Inten    --     21.2478                 7.9297                25.7665

                     31                     32                     33
                      A                      A                      A
 Frequencies --    804.1881               818.1735               839.0256
 Red. masses --      1.6709                 1.3847                 2.3952
 Frc consts  --      0.6367                 0.5461                 0.9935
 IR Inten    --     13.4793                 9.6770                 6.6924

                     34                     35                     36
                      A                      A                      A
 Frequencies --    850.2928               857.0061               883.3337
 Red. masses --      2.0683                 1.9797                 2.3520
 Frc consts  --      0.8811                 0.8567                 1.0813
 IR Inten    --     43.4609                 9.0704                 7.1459

                     37                     38                     39
                      A                      A                      A
 Frequencies --    902.3499               910.0427               930.9816
 Red. masses --      3.5250                 1.5737                 1.3245
 Frc consts  --      1.6910                 0.7679                 0.6764
 IR Inten    --      2.9601                 2.9736                 0.1168

                     40                     41                     42
                      A                      A                      A
 Frequencies --    968.0126               983.7619              1009.0278
 Red. masses --      3.2486                 1.3244                 4.4836
 Frc consts  --      1.7935                 0.7552                 2.6895
 IR Inten    --     15.5980                 0.8962                12.0778

                     43                     44                     45
                      A                      A                      A
 Frequencies --   1031.5154              1056.9489              1092.8967
 Red. masses --      2.7878                 2.0083                 1.4595
 Frc consts  --      1.7477                 1.3219                 1.0271
 IR Inten    --      0.2704                 2.7146                 3.3080

                     46                     47                     48
                      A                      A                      A
 Frequencies --   1103.8461              1110.4479              1149.4212
 Red. masses --      1.6758                 2.0551                 2.0205
 Frc consts  --      1.2031                 1.4931                 1.5728
 IR Inten    --      2.3285                20.3741                 4.0474

                     49                     50                     51
                      A                      A                      A
 Frequencies --   1169.6358              1210.6391              1224.8081
 Red. masses --      1.2095                 2.2408                 1.1738
 Frc consts  --      0.9749                 1.9350                 1.0375
 IR Inten    --     11.6236                14.2282                94.7663

                     52                     53                     54
                      A                      A                      A
 Frequencies --   1235.7554              1264.2251              1304.6919
 Red. masses --      2.6100                 1.4012                 1.2781
 Frc consts  --      2.3483                 1.3195                 1.2818
 IR Inten    --      0.5010                21.3142                11.0991

                     55                     56                     57
                      A                      A                      A
 Frequencies --   1316.7738              1342.6216              1349.8927
 Red. masses --      2.2107                 2.2565                 2.1794
 Frc consts  --      2.2585                 2.3966                 2.3398
 IR Inten    --     76.2224                69.8775                28.7857

                     58                     59                     60
                      A                      A                      A
 Frequencies --   1383.0201              1383.3857              1388.8467
 Red. masses --      1.4485                 1.5695                 2.3590
 Frc consts  --      1.6324                 1.7697                 2.6810
 IR Inten    --     11.8407                 9.7305                 2.2915

                     61                     62                     63
                      A                      A                      A
 Frequencies --   1439.0961              1445.4573              1475.7123
 Red. masses --      2.4580                 1.4586                 3.2758
 Frc consts  --      2.9993                 1.7955                 4.2031
 IR Inten    --     46.2392                 5.5945                17.3522

                     64                     65                     66
                      A                      A                      A
 Frequencies --   1502.8862              1506.8736              1519.2555
 Red. masses --      1.8360                 1.4715                 1.0852
 Frc consts  --      2.4433                 1.9686                 1.4757
 IR Inten    --     21.2600                41.1333                 5.6505

                     67                     68                     69
                      A                      A                      A
 Frequencies --   1530.9446              1535.0762              1568.3289
 Red. masses --      1.0434                 1.0660                 3.2131
 Frc consts  --      1.4409                 1.4800                 4.6563
 IR Inten    --      5.1037                 5.0873               441.9236

                     70                     71                     72
                      A                      A                      A
 Frequencies --   1593.4007              1624.4414              1647.4470
 Red. masses --      4.3030                 6.1231                 7.4264
 Frc consts  --      6.4368                 9.5199                11.8754
 IR Inten    --    312.0524                24.3679               138.9817

                     73                     74                     75
                      A                      A                      A
 Frequencies --   1674.6885              1696.8479              1803.7210
 Red. masses --      2.9190                 1.4472                 8.7198
 Frc consts  --      4.8234                 2.4552                16.7145
 IR Inten    --     69.6724               220.2231               688.5059

                     76                     77                     78
                      A                      A                      A
 Frequencies --   3044.2942              3046.3513              3053.8512
 Red. masses --      1.0582                 1.0407                 1.0610
 Frc consts  --      5.7784                 5.6902                 5.8297
 IR Inten    --     19.2820                21.1704                42.7953

                     79                     80                     81
                      A                      A                      A
 Frequencies --   3085.6313              3097.4454              3114.1803
 Red. masses --      1.1019                 1.1014                 1.1012
 Frc consts  --      6.1812                 6.2261                 6.2924
 IR Inten    --      5.7256                15.9324                51.5948

                     82                     83                     84
                      A                      A                      A
 Frequencies --   3121.8868              3179.0350              3183.9969
 Red. masses --      1.1027                 1.0864                 1.0898
 Frc consts  --      6.3318                 6.4690                 6.5094
 IR Inten    --     58.8160                17.5620                19.8962

                     85                     86                     87
                      A                      A                      A
 Frequencies --   3196.3525              3236.1069              3237.2553
 Red. masses --      1.0941                 1.0919                 1.0921
 Frc consts  --      6.5860                 6.7371                 6.7433
 IR Inten    --     16.6339                 1.7422                 2.5852

                     88                     89                     90
                      A                      A                      A
 Frequencies --   3568.3951              3603.9492              3670.4815
 Red. masses --      1.0473                 1.0767                 1.0997
 Frc consts  --      7.8574                 8.2395                 8.7294
 IR Inten    --     44.6248                23.8929                14.3440

 - Thermochemistry -
 -------------------
 Temperature   298.150 Kelvin.  Pressure   1.00000 Atm.
 Atom     1 has atomic number  6 and mass  12.00000

 Molecular mass:   229.12151 amu.
 Principal axes and moments of inertia in atomic units:
                           1         2         3
     Eigenvalues --  2305.301037136.611938846.41332
           X            0.99971   0.02388  -0.00190
           Y           -0.02389   0.99971  -0.00084
           Z            0.00188   0.00088   1.00000
 This molecule is an asymmetric top.
 Rotational symmetry number  1.
 Warning -- assumption of classical behavior for rotation
           may cause significant error
 Rotational temperatures (Kelvin)      0.03757     0.01214     0.00979
 Rotational constants (GHZ):           0.78287     0.25288     0.20401
 Zero-point vibrational energy     697081.6 (Joules/Mol)
                                  166.60650 (Kcal/Mol)
 Warning -- explicit consideration of  24 degrees of freedom as
           vibrations may cause significant error
 Vibrational temperatures:     39.62    47.15    86.24   110.13   141.85
          (Kelvin)            198.10   239.56   276.00   313.49   344.78
                              404.18   445.45   487.78   501.51   518.44
                              575.11   597.80   612.09   721.69   732.69
                              782.19   807.28   837.71   885.42   927.21
                              950.87   965.73  1049.17  1071.54  1111.05
                             1157.05  1177.17  1207.17  1223.38  1233.04
                             1270.92  1298.28  1309.35  1339.47  1392.75
                             1415.41  1451.77  1484.12  1520.71  1572.43
                             1588.19  1597.69  1653.76  1682.85  1741.84
                             1762.23  1777.98  1818.94  1877.16  1894.54
                             1931.73  1942.19  1989.86  1990.38  1998.24
                             2070.54  2079.69  2123.22  2162.32  2168.06
                             2185.87  2202.69  2208.63  2256.48  2292.55
                             2337.21  2370.31  2409.50  2441.39  2595.15
                             4380.06  4383.02  4393.81  4439.54  4456.53
                             4480.61  4491.70  4573.92  4581.06  4598.84
                             4656.04  4657.69  5134.12  5185.28  5281.00

 Zero-point correction=                           0.265504 (Hartree/Particle)
 Thermal correction to Energy=                    0.280986
 Thermal correction to Enthalpy=                  0.281930
 Thermal correction to Gibbs Free Energy=         0.221447
 Sum of electronic and zero-point Energies=           -743.728837
 Sum of electronic and thermal Energies=              -743.713356
 Sum of electronic and thermal Enthalpies=            -743.712412
 Sum of electronic and thermal Free Energies=         -743.772895

                     E (Thermal)             CV                S
                      KCal/Mol        Cal/Mol-Kelvin    Cal/Mol-Kelvin
 Total                  176.321             59.866            127.298
 Electronic               0.000              0.000              0.000
 Translational            0.889              2.981             42.189
 Rotational               0.889              2.981             33.342
 Vibrational            174.544             53.904             51.767
 Vibration     1          0.593              1.984              5.999
 Vibration     2          0.594              1.983              5.654
 Vibration     3          0.597              1.973              4.459
 Vibration     4          0.599              1.965              3.978
 Vibration     5          0.604              1.950              3.482
 Vibration     6          0.614              1.916              2.836
 Vibration     7          0.624              1.884              2.475
 Vibration     8          0.634              1.851              2.210
 Vibration     9          0.646              1.814              1.977
 Vibration    10          0.657              1.780              1.806
 Vibration    11          0.681              1.709              1.528
 Vibration    12          0.699              1.655              1.364
 Vibration    13          0.719              1.598              1.217
 Vibration    14          0.726              1.578              1.173
 Vibration    15          0.735              1.554              1.121
 Vibration    16          0.766              1.471              0.964
 Vibration    17          0.779              1.437              0.907
 Vibration    18          0.787              1.415              0.874
 Vibration    19          0.857              1.246              0.654
 Vibration    20          0.864              1.230              0.635
 Vibration    21          0.899              1.154              0.557
 Vibration    22          0.917              1.115              0.522
 Vibration    23          0.939              1.070              0.481
 Vibration    24          0.975              0.999              0.424

 Optimization completed.
    -- Stationary point found.
 Normal termination of Gaussian 16 at Fri Dec 11 11:55:51 2020.

 ----------------------------------------------------------------------
 # B3LYP/6-311++G(d,p) empiricaldispersion=gd3bj scf=xqc pop=npa geom=c
 heck
 ----------------------------------------------------------------------

 ---------------------------------------
 CID_136103241_JID_7084_Energie_neutraal
 ---------------------------------------
 Structure from the checkpoint file:  "JID_7084.chk"
 Charge =  0 Multiplicity = 1

 SCF Done:  E(RB3LYP) =  -744.203158289     A.U. after   16 cycles
 Normal termination of Gaussian 16 at Fri Dec 11 12:00:39 2020.

 ----------------------------------------------------------------------
 # B3LYP/6-311++G(d,p) empiricaldispersion=gd3bj scf=xqc pop=npa geom=c
 heck
 ----------------------------------------------------------------------

 -------------------------------------
 CID_136103241_JID_7084_Energie_kation
 -------------------------------------
 Structure from the checkpoint file:  "JID_7084.chk"
 Charge =  1 Multiplicity = 2

 SCF Done:  E(UB3LYP) =  -743.924431177     A.U. after   23 cycles
 Normal termination of Gaussian 16 at Fri Dec 11 12:09:49 2020.
 Gaussian 16:  ES64L-G16RevA.03 25-Dec-2016

 ----------------------------------------------------------------------
 # B3LYP/6-311++G(d,p) empiricaldispersion=gd3bj scf=xqc pop=npa geom=c
 heck
 ----------------------------------------------------------------------

 ------------------------------------
 CID_136103241_JID_7084_Energie_anion
 ------------------------------------
 Structure from the checkpoint file:  "JID_7084.chk"
 Charge = -1 Multiplicity = 2

                         Standard orientation:
 ---------------------------------------------------------------------
 Center     Atomic      Atomic             Coordinates (Angstroms)
 Number     Number       Type             X           Y           Z
 ---------------------------------------------------------------------
      1          6           0       -3.701821   -1.915536    1.553889
      2          6           0       -3.141836   -2.419645    0.222281
      3          6           0       -3.170370   -1.352132   -0.888112
      4          6           0       -2.278384   -0.178888   -0.575070
      5          6           0       -2.773586    1.080661   -0.368786
      6          6           0       -1.887089    2.178726   -0.068616
      7          8           0       -2.168451    3.355650    0.119713
      8          7           0       -0.534247    1.762359   -0.011292
      9          6           0       -0.104448    0.480216   -0.201288
     10          7           0       -0.942397   -0.488794   -0.483480
     11          6           0        1.334450    0.191643   -0.089812
     12          6           0        1.820984   -1.034780   -0.574315
     13          6           0        3.165287   -1.353889   -0.495747
     14          6           0        4.083911   -0.456101    0.081887
     15          6           0        3.600261    0.766551    0.581168
     16          6           0        2.251674    1.079753    0.493914
     17          7           0        5.437712   -0.750071    0.113537
     18          1           0       -3.122632   -1.065661    1.931048
     19          1           0       -3.678489   -2.702676    2.315521
     20          1           0       -4.741969   -1.583882    1.445890
     21          1           0       -2.105314   -2.750292    0.353781
     22          1           0       -3.716267   -3.290675   -0.117434
     23          1           0       -2.823346   -1.804210   -1.825995
     24          1           0       -4.196925   -1.002755   -1.048351
     25          1           0       -3.832819    1.297254   -0.436302
     26          1           0        0.125148    2.514125    0.147750
     27          1           0        1.113051   -1.728239   -1.013147
     28          1           0        3.521395   -2.303450   -0.887440
     29          1           0        4.290165    1.468168    1.042694
     30          1           0        1.920943    2.021153    0.924032
     31          1           0        5.989411   -0.248778    0.796953
     32          1           0        5.683594   -1.729211    0.053582
 ---------------------------------------------------------------------

 SCF Done:  E(UB3LYP) =  -744.215476195     A.U. after   28 cycles

 The electronic state is 2-A.
 Alpha  occ. eigenvalues --  -18.95030 -14.21339 -14.21114 -14.15425 -10.13546
 Alpha  occ. eigenvalues --  -10.09826 -10.08536 -10.07475 -10.06134 -10.05775
 Alpha  occ. eigenvalues --  -10.05602 -10.05098 -10.04966 -10.04833 -10.04490
 Alpha  occ. eigenvalues --  -10.04237 -10.02015  -0.90446  -0.84010  -0.81222
 Alpha  occ. eigenvalues --   -0.75547  -0.72189  -0.68545  -0.64803  -0.62753
 Alpha  occ. eigenvalues --   -0.60743  -0.58543  -0.52666  -0.51301  -0.49543
 Alpha  occ. eigenvalues --   -0.46965  -0.45753  -0.42506  -0.40540  -0.39850
 Alpha  occ. eigenvalues --   -0.38087  -0.37113  -0.34876  -0.33930  -0.31591
 Alpha  occ. eigenvalues --   -0.31435  -0.30829  -0.30563  -0.30185  -0.28910
 Alpha  occ. eigenvalues --   -0.28478  -0.27379  -0.26664  -0.24908  -0.24708
 Alpha  occ. eigenvalues --   -0.23535  -0.23156  -0.22621  -0.22086  -0.19474
 Alpha  occ. eigenvalues --   -0.16824  -0.13931  -0.13371  -0.12788  -0.11306
 Alpha  occ. eigenvalues --   -0.08422   0.03712
 Alpha virt. eigenvalues --    0.05967   0.07421   0.08410   0.09290   0.09484
 Alpha virt. eigenvalues --    0.09782   0.10238   0.11296   0.11521   0.11632
 Alpha virt. eigenvalues --    0.12500   0.12742   0.13256   0.13676   0.14204

  Beta  occ. eigenvalues --  -18.95033 -14.21134 -14.21034 -14.15443 -10.13564
  Beta  occ. eigenvalues --  -10.09428 -10.08232 -10.07337 -10.06120 -10.05776
  Beta  occ. eigenvalues --  -10.05613 -10.05191 -10.04901 -10.04772 -10.04374
  Beta  occ. eigenvalues --  -10.04215 -10.01830  -0.90358  -0.83652  -0.80982
  Beta  occ. eigenvalues --   -0.75240  -0.71968  -0.68453  -0.64471  -0.62584
  Beta  occ. eigenvalues --   -0.60495  -0.58388  -0.52058  -0.51195  -0.49397
  Beta  occ. eigenvalues --   -0.46744  -0.45647  -0.42342  -0.40401  -0.39728
  Beta  occ. eigenvalues --   -0.37938  -0.36887  -0.34757  -0.33851  -0.31432
  Beta  occ. eigenvalues --   -0.31028  -0.30716  -0.30236  -0.29973  -0.28826
  Beta  occ. eigenvalues --   -0.28415  -0.26870  -0.26368  -0.24742  -0.24528
  Beta  occ. eigenvalues --   -0.23160  -0.22807  -0.22473  -0.22000  -0.18881
  Beta  occ. eigenvalues --   -0.15730  -0.13517  -0.13233  -0.12717  -0.10445
  Beta  occ. eigenvalues --   -0.07617
  Beta virt. eigenvalues --    0.06317   0.07325   0.08474   0.08846   0.09317
  Beta virt. eigenvalues --    0.09542   0.09795   0.10523   0.11291   0.11512
  Beta virt. eigenvalues --    0.12298   0.12507   0.12718   0.13292   0.13722

 Mulliken charges and spin densities:
               1          2
     1  C   -0.674211   0.000322
     2  C   -0.066939  -0.052213
     3  C   -0.357372   0.048953
     4  C    0.663485   0.043684
     5  C   -0.360190   0.152292
     6  C   -0.099150  -0.009914
     7  O   -0.418390   0.000340
     8  N   -0.137043   0.084000
     9  C   -0.568473   0.204987
    10  N    0.064143  -0.014932
    11  C    0.878079  -0.111337
    12  C   -0.372509   0.086335
    13  C   -0.460231  -0.073591
    14  C   -0.004520   0.124809
    15  C   -0.360929  -0.057265
    16  C   -0.292203   0.142724
    17  N   -0.323784   0.000296
    18  H    0.188858   0.000710
    19  H    0.110343   0.000482
    20  H    0.114766  -0.000688
    21  H    0.143813   0.011346
    22  H    0.074143   0.042667
    23  H    0.146649   0.006894
    24  H    0.117305   0.015734
    25  H    0.158464  -0.013465
    26  H    0.297932  -0.000881
    27  H    0.150213  -0.003868
    28  H    0.092251   0.030487
    29  H    0.091822   0.022490
    30  H    0.058432   0.008511
    31  H    0.066117   0.161471
    32  H    0.079128   0.148620
 Sum of Mulliken charges =  -1.00000   1.00000

 Dipole moment (field-independent basis, Debye):
    X=              0.5085    Y=             -3.8700    Z=              0.5345  Tot=              3.9397
 Quadrupole moment (field-independent basis, Debye-Ang):
   XX=           -153.0604   YY=           -133.1781   ZZ=           -113.2902
   XY=             15.1717   XZ=              2.8633   YZ=              1.4959

 Summary of Natural Population Analysis:

                                       Natural Population
                Natural  -----------------------------------------------
    Atom  No    Charge         Core      Valence    Rydberg      Total
 -----------------------------------------------------------------------
      C    1   -0.28790      0.99967     2.28381    0.00442     3.28790
      C    2   -0.18544      0.99964     2.17966    0.00614     3.18544
      C    3   -0.19957      0.99960     2.19162    0.00835     3.19957
      C    4    0.13811      0.99952     1.84894    0.01343     2.86189
      C    5   -0.15931      0.99944     2.15139    0.00849     3.15931
      C    6    0.31761      0.99964     1.66132    0.02143     2.68239
      O    7   -0.34681      0.99988     3.34029    0.00664     4.34681
      N    8   -0.27185      0.99964     2.76342    0.00880     3.77185
      C    9    0.28119      0.99962     1.69940    0.01979     2.71881
      N   10   -0.29534      0.99965     2.78558    0.01012     3.79534
      C   11   -0.00845      0.99949     1.99833    0.01063     3.00845
      C   12   -0.06166      0.99960     2.04811    0.01395     3.06166
      C   13   -0.15256      0.99953     2.14308    0.00994     3.15256
      C   14    0.13442      0.99949     1.85482    0.01127     2.86558
      C   15   -0.15724      0.99954     2.14735    0.01035     3.15724
      C   16   -0.06175      0.99960     2.04888    0.01326     3.06175
      N   17   -0.39261      0.99971     2.88341    0.00948     3.89261
      H   18    0.10521      0.00000     0.39391    0.00088     0.39479
      H   19    0.09200      0.00000     0.40715    0.00085     0.40800
      H   20    0.09059      0.00000     0.40840    0.00101     0.40941
      H   21    0.10372      0.00000     0.39463    0.00165     0.39628
      H   22    0.08537      0.00000     0.41285    0.00177     0.41463
      H   23    0.10259      0.00000     0.39572    0.00169     0.39741
      H   24    0.09168      0.00000     0.40724    0.00107     0.40832
      H   25    0.09812      0.00000     0.40079    0.00109     0.40188
      H   26    0.19530      0.00000     0.30298    0.00172     0.30470
      H   27    0.10805      0.00000     0.39061    0.00134     0.39195
      H   28    0.09260      0.00000     0.40646    0.00094     0.40740
      H   29    0.09280      0.00000     0.40625    0.00095     0.40720
      H   30    0.08923      0.00000     0.40930    0.00146     0.41077
      H   31    0.18266      0.00000     0.31561    0.00173     0.31734
      H   32    0.18280      0.00000     0.31548    0.00172     0.31720
 =======================================================================
   * Total *    0.00356     16.99326    43.79681    0.20636    60.99644

 Normal termination of Gaussian 16 at Fri Dec 11 12:20:40 2020.
