 Gaussian 16, Revision A.03,

 -----------------------------------------------------------
 # opt freq B3LYP/6-31G(d) empiricaldispersion=gd3bj scf=xqc
 -----------------------------------------------------------

 ------------------------------
 CID_90459326_JID_8069_neutraal
 ------------------------------
 Symbolic Z-matrix:
 Charge =  0 Multiplicity = 1

 SCF Done:  E(RB3LYP) =  -800.679336471     A.U. after   15 cycles
 SCF Done:  E(RB3LYP) =  -800.680559850     A.U. after   13 cycles
 SCF Done:  E(RB3LYP) =  -800.682134002     A.U. after   14 cycles
 SCF Done:  E(RB3LYP) =  -800.684771421     A.U. after   13 cycles
 SCF Done:  E(RB3LYP) =  -800.686645447     A.U. after   13 cycles
 SCF Done:  E(RB3LYP) =  -800.687216962     A.U. after   12 cycles
 SCF Done:  E(RB3LYP) =  -800.687777000     A.U. after   13 cycles
 SCF Done:  E(RB3LYP) =  -800.688020790     A.U. after   11 cycles
 SCF Done:  E(RB3LYP) =  -800.688182038     A.U. after   12 cycles
 SCF Done:  E(RB3LYP) =  -800.688238780     A.U. after   10 cycles
 SCF Done:  E(RB3LYP) =  -800.690042308     A.U. after    9 cycles
 SCF Done:  E(RB3LYP) =  -800.690043791     A.U. after    9 cycles
 SCF Done:  E(RB3LYP) =  -800.690044045     A.U. after    8 cycles
 SCF Done:  E(RB3LYP) =  -800.690044248     A.U. after    8 cycles
 SCF Done:  E(RB3LYP) =  -800.690044276     A.U. after    7 cycles
 Optimization completed.
    -- Stationary point found.
 Normal termination of Gaussian 16 at Fri Dec 11 19:15:34 2020.

 --------------------------------------------------------------------
 #N Geom=AllCheck Guess=TCheck SCRF=Check GenChk RB3LYP/6-31G(d) Freq
 --------------------------------------------------------------------

 Structure from the checkpoint file:  "JID_8069.chk"
 ------------------------------
 CID_90459326_JID_8069_neutraal
 ------------------------------
 Charge =  0 Multiplicity = 1

 SCF Done:  E(RB3LYP) =  -800.690044276     A.U. after    1 cycles

  Exact polarizability: 124.523   8.503 169.194  11.287  13.339 153.409
 Approx polarizability: 173.639  13.112 307.996  27.955  34.346 276.955

                      1                      2                      3
                      A                      A                      A
 Frequencies --     29.7362                33.5722                55.7951
 Red. masses --      4.6816                 5.6579                 3.8201
 Frc consts  --      0.0024                 0.0038                 0.0070
 IR Inten    --      0.5344                 0.6949                 2.0641

                      4                      5                      6
                      A                      A                      A
 Frequencies --     82.4100                94.9118               146.3287
 Red. masses --      5.4496                 4.6806                 5.4096
 Frc consts  --      0.0218                 0.0248                 0.0682
 IR Inten    --      2.3679                 2.1263                 3.0842

                      7                      8                      9
                      A                      A                      A
 Frequencies --    157.9134               163.7402               205.2828
 Red. masses --      6.5131                 4.9428                 2.2492
 Frc consts  --      0.0957                 0.0781                 0.0558
 IR Inten    --      2.7673                 4.7783                 1.6066

                     10                     11                     12
                      A                      A                      A
 Frequencies --    235.8115               249.8537               263.6641
 Red. masses --      2.7484                 1.9361                 7.8393
 Frc consts  --      0.0900                 0.0712                 0.3211
 IR Inten    --      0.3052                 2.4495                11.2470

                     13                     14                     15
                      A                      A                      A
 Frequencies --    336.9111               348.8695               392.7171
 Red. masses --      4.2728                 2.5585                 6.1387
 Frc consts  --      0.2858                 0.1835                 0.5578
 IR Inten    --      8.1206                 5.6283                 1.8547

                     16                     17                     18
                      A                      A                      A
 Frequencies --    417.7984               451.3298               473.4559
 Red. masses --      2.9927                 4.9509                 4.2485
 Frc consts  --      0.3078                 0.5942                 0.5611
 IR Inten    --      0.0749                 4.0570                 0.3286

                     19                     20                     21
                      A                      A                      A
 Frequencies --    488.7209               514.0645               520.6744
 Red. masses --      6.3379                 6.3624                 6.2503
 Frc consts  --      0.8919                 0.9906                 0.9984
 IR Inten    --      7.5925                 3.3008                 1.7899

                     22                     23                     24
                      A                      A                      A
 Frequencies --    582.6605               615.7017               633.6834
 Red. masses --      6.6573                 5.6703                 6.4537
 Frc consts  --      1.3316                 1.2665                 1.5269
 IR Inten    --      0.6456                 2.9488                 1.3377

                     25                     26                     27
                      A                      A                      A
 Frequencies --    642.2349               651.1534               691.4159
 Red. masses --      6.5533                 7.1096                 5.2244
 Frc consts  --      1.5926                 1.7761                 1.4715
 IR Inten    --      1.7278                 9.4426                 4.5811

                     28                     29                     30
                      A                      A                      A
 Frequencies --    714.8922               761.9656               782.7465
 Red. masses --      2.0501                 1.7091                 7.1371
 Frc consts  --      0.6173                 0.5846                 2.5764
 IR Inten    --     30.1970                36.7365                 5.6456

                     31                     32                     33
                      A                      A                      A
 Frequencies --    828.4931               837.6791               844.3432
 Red. masses --      4.6882                 2.2376                 2.2724
 Frc consts  --      1.8960                 0.9251                 0.9545
 IR Inten    --      5.6190                 5.5666                28.1012

                     34                     35                     36
                      A                      A                      A
 Frequencies --    866.4636               929.5111               957.7248
 Red. masses --      1.2462                 1.3856                 5.5742
 Frc consts  --      0.5512                 0.7054                 3.0124
 IR Inten    --      1.3803                 7.3898                11.4603

                     37                     38                     39
                      A                      A                      A
 Frequencies --    976.6727               981.6781               999.2303
 Red. masses --      1.3517                 1.3737                 1.2699
 Frc consts  --      0.7597                 0.7800                 0.7471
 IR Inten    --      0.4253                 1.7668                 0.2409

                     40                     41                     42
                      A                      A                      A
 Frequencies --   1017.2215              1024.4085              1038.0394
 Red. masses --      2.3106                 4.4705                 5.3893
 Frc consts  --      1.4086                 2.7641                 3.4215
 IR Inten    --     34.4512                 1.5483               113.0367

                     43                     44                     45
                      A                      A                      A
 Frequencies --   1061.0904              1103.4475              1108.5026
 Red. masses --      2.2234                 4.2798                 2.0874
 Frc consts  --      1.4750                 3.0703                 1.5112
 IR Inten    --      1.0163               137.4152                21.6909

                     46                     47                     48
                      A                      A                      A
 Frequencies --   1122.9108              1179.7573              1195.1667
 Red. masses --      1.5593                 1.2643                 1.1015
 Frc consts  --      1.1584                 1.0368                 0.9270
 IR Inten    --      6.2886                 2.7666                 0.0914

                     49                     50                     51
                      A                      A                      A
 Frequencies --   1207.9782              1217.9732              1233.8630
 Red. masses --      2.0120                 1.1399                 1.8910
 Frc consts  --      1.7298                 0.9963                 1.6962
 IR Inten    --     20.9080                 0.9233                 4.0456

                     52                     53                     54
                      A                      A                      A
 Frequencies --   1238.0975              1276.8196              1299.6096
 Red. masses --      2.7009                 1.1933                 2.8270
 Frc consts  --      2.4393                 1.1462                 2.8132
 IR Inten    --      7.1085                 4.9435                42.4422

                     55                     56                     57
                      A                      A                      A
 Frequencies --   1330.5144              1360.8537              1371.8146
 Red. masses --      2.9174                 3.2676                 2.7440
 Frc consts  --      3.0429                 3.5653                 3.0425
 IR Inten    --     72.9786                15.3131                35.9646

                     58                     59                     60
                      A                      A                      A
 Frequencies --   1375.6556              1402.4472              1457.3336
 Red. masses --      1.9631                 2.2393                 2.3758
 Frc consts  --      2.1889                 2.5949                 2.9729
 IR Inten    --     52.5783                98.7673                57.4160

                     61                     62                     63
                      A                      A                      A
 Frequencies --   1482.8729              1506.1289              1519.6503
 Red. masses --      1.6438                 2.1624                 1.0514
 Frc consts  --      2.1297                 2.8900                 1.4306
 IR Inten    --    118.6937                10.9864                 8.5320

                     64                     65                     66
                      A                      A                      A
 Frequencies --   1529.7794              1538.3735              1544.2387
 Red. masses --      1.3443                 1.3405                 1.3133
 Frc consts  --      1.8535                 1.8691                 1.8452
 IR Inten    --      5.7035                47.2271                18.2590

                     67                     68                     69
                      A                      A                      A
 Frequencies --   1551.5288              1609.7460              1635.6757
 Red. masses --      1.7200                 5.2888                 8.0571
 Frc consts  --      2.4395                 8.0747                12.7006
 IR Inten    --      7.1282               185.3716               216.1795

                     70                     71                     72
                      A                      A                      A
 Frequencies --   1648.7089              1668.8348              2333.1460
 Red. masses --      5.5304                 5.4592                12.6608
 Frc consts  --      8.8572                 8.9580                40.6065
 IR Inten    --      1.1653                 0.1218                45.2998

                     73                     74                     75
                      A                      A                      A
 Frequencies --   3068.1376              3092.1462              3140.6970
 Red. masses --      1.0319                 1.0609                 1.1057
 Frc consts  --      5.7232                 5.9767                 6.4259
 IR Inten    --     24.7982                36.2747                 6.8622

                     76                     77                     78
                      A                      A                      A
 Frequencies --   3155.5670              3171.9557              3184.2963
 Red. masses --      1.1040                 1.1083                 1.0851
 Frc consts  --      6.4770                 6.5700                 6.4825
 IR Inten    --     18.9330                11.6873                 1.0071

                     79                     80                     81
                      A                      A                      A
 Frequencies --   3184.7370              3192.7098              3201.2473
 Red. masses --      1.0903                 1.0878                 1.0914
 Frc consts  --      6.5157                 6.5334                 6.5898
 IR Inten    --     24.2302                 5.6312                15.3037

                     82                     83                     84
                      A                      A                      A
 Frequencies --   3207.8252              3213.9986              3239.6516
 Red. masses --      1.0942                 1.0980                 1.0938
 Frc consts  --      6.6338                 6.6828                 6.7640
 IR Inten    --     17.7008                11.5757                 2.4575

 - Thermochemistry -
 -------------------
 Temperature   298.150 Kelvin.  Pressure   1.00000 Atm.
 Atom     1 has atomic number  6 and mass  12.00000

 Molecular mass:   240.08988 amu.
 Principal axes and moments of inertia in atomic units:
                           1         2         3
     Eigenvalues --  3206.586844588.320845090.69360
           X            0.99996  -0.00426   0.00836
           Y            0.00431   0.99997  -0.00644
           Z           -0.00833   0.00648   0.99994
 This molecule is an asymmetric top.
 Rotational symmetry number  1.
 Warning -- assumption of classical behavior for rotation
           may cause significant error
 Rotational temperatures (Kelvin)      0.02701     0.01888     0.01701
 Rotational constants (GHZ):           0.56282     0.39333     0.35452
 Zero-point vibrational energy     617314.8 (Joules/Mol)
                                  147.54177 (Kcal/Mol)
 Warning -- explicit consideration of  23 degrees of freedom as
           vibrations may cause significant error
 Vibrational temperatures:     42.78    48.30    80.28   118.57   136.56
          (Kelvin)            210.53   227.20   235.59   295.36   339.28
                              359.48   379.35   484.74   501.95   565.03
                              601.12   649.36   681.20   703.16   739.62
                              749.13   838.32   885.86   911.73   924.03
                              936.86   994.79  1028.57  1096.30  1126.20
                             1192.02  1205.23  1214.82  1246.65  1337.36
                             1377.95  1405.21  1412.42  1437.67  1463.55
                             1473.90  1493.51  1526.67  1587.61  1594.89
                             1615.62  1697.41  1719.58  1738.01  1752.39
                             1775.25  1781.35  1837.06  1869.85  1914.31
                             1957.96  1973.74  1979.26  2017.81  2096.78
                             2133.52  2166.98  2186.44  2201.01  2213.38
                             2221.82  2232.30  2316.07  2353.37  2372.12
                             2401.08  3356.88  4414.37  4448.91  4518.76
                             4540.16  4563.74  4581.49  4582.13  4593.60
                             4605.88  4615.34  4624.23  4661.14

 Zero-point correction=                           0.235123 (Hartree/Particle)
 Thermal correction to Energy=                    0.250480
 Thermal correction to Enthalpy=                  0.251424
 Thermal correction to Gibbs Free Energy=         0.191257
 Sum of electronic and zero-point Energies=           -800.454921
 Sum of electronic and thermal Energies=              -800.439564
 Sum of electronic and thermal Enthalpies=            -800.438620
 Sum of electronic and thermal Free Energies=         -800.498788

                     E (Thermal)             CV                S
                      KCal/Mol        Cal/Mol-Kelvin    Cal/Mol-Kelvin
 Total                  157.179             58.429            126.633
 Electronic               0.000              0.000              0.000
 Translational            0.889              2.981             42.329
 Rotational               0.889              2.981             32.682
 Vibrational            155.401             52.468             51.622
 Vibration     1          0.594              1.984              5.847
 Vibration     2          0.594              1.983              5.606
 Vibration     3          0.596              1.975              4.601
 Vibration     4          0.600              1.961              3.833
 Vibration     5          0.603              1.953              3.556
 Vibration     6          0.617              1.907              2.719
 Vibration     7          0.621              1.894              2.575
 Vibration     8          0.623              1.887              2.506
 Vibration     9          0.640              1.832              2.085
 Vibration    10          0.655              1.786              1.834
 Vibration    11          0.663              1.763              1.732
 Vibration    12          0.670              1.739              1.637
 Vibration    13          0.718              1.602              1.227
 Vibration    14          0.726              1.578              1.171
 Vibration    15          0.760              1.486              0.990
 Vibration    16          0.781              1.432              0.899
 Vibration    17          0.810              1.358              0.792
 Vibration    18          0.830              1.309              0.728
 Vibration    19          0.845              1.275              0.687
 Vibration    20          0.869              1.219              0.624
 Vibration    21          0.876              1.204              0.608
 Vibration    22          0.939              1.069              0.480
 Vibration    23          0.975              0.999              0.423

 Optimization completed.
    -- Stationary point found.
 Normal termination of Gaussian 16 at Fri Dec 11 19:29:10 2020.

 ----------------------------------------------------------------------
 # B3LYP/6-311++G(d,p) empiricaldispersion=gd3bj scf=xqc pop=npa geom=c
 heck
 ----------------------------------------------------------------------

 --------------------------------------
 CID_90459326_JID_8069_Energie_neutraal
 --------------------------------------
 Structure from the checkpoint file:  "JID_8069.chk"
 Charge =  0 Multiplicity = 1

 SCF Done:  E(RB3LYP) =  -800.901517854     A.U. after   16 cycles
 Normal termination of Gaussian 16 at Fri Dec 11 19:35:24 2020.

 ----------------------------------------------------------------------
 # B3LYP/6-311++G(d,p) empiricaldispersion=gd3bj scf=xqc pop=npa geom=c
 heck
 ----------------------------------------------------------------------

 ------------------------------------
 CID_90459326_JID_8069_Energie_kation
 ------------------------------------
 Structure from the checkpoint file:  "JID_8069.chk"
 Charge =  1 Multiplicity = 2

 SCF Done:  E(UB3LYP) =  -800.580137017     A.U. after   33 cycles
 SCF Done:  E(UB3LYP) =  -800.581298221     a.u. after   10 cycles
 Normal termination of Gaussian 16 at Fri Dec 11 22:45:34 2020.
 Gaussian 16:  ES64L-G16RevA.03 25-Dec-2016

 ----------------------------------------------------------------------
 # B3LYP/6-311++G(d,p) empiricaldispersion=gd3bj scf=xqc pop=npa geom=c
 heck
 ----------------------------------------------------------------------

 -----------------------------------
 CID_90459326_JID_8069_Energie_anion
 -----------------------------------
 Structure from the checkpoint file:  "JID_8069.chk"
 Charge = -1 Multiplicity = 2

                         Standard orientation:
 ---------------------------------------------------------------------
 Center     Atomic      Atomic             Coordinates (Angstroms)
 Number     Number       Type             X           Y           Z
 ---------------------------------------------------------------------
      1          6           0       -1.652380    2.760468   -0.411494
      2          8           0       -2.471107    1.644177   -0.793579
      3          6           0       -2.068320    0.382629   -0.556069
      4          6           0       -1.226304   -0.025216    0.505921
      5          6           0       -0.813618   -1.388565    0.530977
      6          7           0       -1.283951   -2.305563   -0.300760
      7          6           0       -2.165592   -1.910037   -1.230305
      8          6           0       -2.558450   -0.596337   -1.427312
      9          8           0        0.075364   -1.866789    1.429234
     10          6           0        1.274544   -1.118444    1.757908
     11          6           0        1.886651   -0.428482    0.564240
     12          6           0        2.114891   -1.142219   -0.619372
     13          6           0        2.657231   -0.503469   -1.731824
     14          6           0        2.984951    0.853591   -1.671137
     15          6           0        2.765449    1.567877   -0.493367
     16          6           0        2.212124    0.929592    0.618596
     17          6           0       -0.916940    0.834901    1.595141
     18          7           0       -0.683684    1.509470    2.515553
     19          1           0       -1.930997    3.564839   -1.094406
     20          1           0       -0.590978    2.520797   -0.531051
     21          1           0       -1.848574    3.062438    0.618733
     22          1           0       -2.548584   -2.694607   -1.879405
     23          1           0       -3.219268   -0.305799   -2.235080
     24          1           0        1.066681   -0.406845    2.559515
     25          1           0        1.937900   -1.893888    2.150604
     26          1           0        1.843410   -2.192899   -0.669324
     27          1           0        2.825182   -1.063457   -2.647381
     28          1           0        3.408304    1.350618   -2.539432
     29          1           0        3.017439    2.623338   -0.439611
     30          1           0        2.013455    1.491279    1.526630
 ---------------------------------------------------------------------

 SCF Done:  E(UB3LYP) =  -800.913786878     A.U. after   29 cycles

 The electronic state is 2-A.
 Alpha  occ. eigenvalues --  -19.03132 -19.01794 -14.15841 -14.15621 -10.12541
 Alpha  occ. eigenvalues --  -10.10700 -10.10648 -10.10481 -10.06411 -10.06354
 Alpha  occ. eigenvalues --  -10.06201 -10.06201 -10.06039 -10.05972 -10.05514
 Alpha  occ. eigenvalues --  -10.05391 -10.04911 -10.03030  -0.94955  -0.94105
 Alpha  occ. eigenvalues --   -0.79543  -0.76194  -0.74442  -0.67421  -0.66034
 Alpha  occ. eigenvalues --   -0.63432  -0.63209  -0.59626  -0.57243  -0.51206
 Alpha  occ. eigenvalues --   -0.49675  -0.48912  -0.46409  -0.42742  -0.40794
 Alpha  occ. eigenvalues --   -0.39854  -0.38603  -0.36353  -0.35443  -0.35374
 Alpha  occ. eigenvalues --   -0.34396  -0.32923  -0.32127  -0.31148  -0.30953
 Alpha  occ. eigenvalues --   -0.30347  -0.28287  -0.26031  -0.25739  -0.25113
 Alpha  occ. eigenvalues --   -0.23889  -0.23444  -0.22700  -0.22505  -0.21594
 Alpha  occ. eigenvalues --   -0.20865  -0.18380  -0.17538  -0.14439  -0.14113
 Alpha  occ. eigenvalues --   -0.12749  -0.11817  -0.10787   0.04313
 Alpha virt. eigenvalues --    0.07636   0.08737   0.08868   0.09344   0.09630
 Alpha virt. eigenvalues --    0.10130   0.10378   0.11058   0.12022   0.12201
 Alpha virt. eigenvalues --    0.12475   0.13056   0.13745   0.14195   0.14751

  Beta  occ. eigenvalues --  -19.03055 -19.01754 -14.15910 -14.15346 -10.12386
  Beta  occ. eigenvalues --  -10.10679 -10.10631 -10.10184 -10.06435 -10.06308
  Beta  occ. eigenvalues --  -10.06170 -10.06129 -10.06014 -10.05945 -10.05372
  Beta  occ. eigenvalues --  -10.05286 -10.04454 -10.03122  -0.94739  -0.93968
  Beta  occ. eigenvalues --   -0.79296  -0.75784  -0.74317  -0.67046  -0.65836
  Beta  occ. eigenvalues --   -0.63296  -0.62822  -0.59433  -0.57139  -0.50641
  Beta  occ. eigenvalues --   -0.49538  -0.48685  -0.46257  -0.42581  -0.40623
  Beta  occ. eigenvalues --   -0.39703  -0.38397  -0.36197  -0.35312  -0.35079
  Beta  occ. eigenvalues --   -0.34248  -0.32794  -0.31976  -0.31081  -0.30822
  Beta  occ. eigenvalues --   -0.30266  -0.27856  -0.25809  -0.25339  -0.24813
  Beta  occ. eigenvalues --   -0.23616  -0.23269  -0.22291  -0.22080  -0.20842
  Beta  occ. eigenvalues --   -0.20442  -0.17916  -0.17255  -0.14138  -0.13632
  Beta  occ. eigenvalues --   -0.12678  -0.10756  -0.09822
  Beta virt. eigenvalues --    0.07543   0.08584   0.08989   0.09293   0.09526
  Beta virt. eigenvalues --    0.10029   0.10329   0.11000   0.11197   0.11968
  Beta virt. eigenvalues --    0.12420   0.12712   0.13118   0.13750   0.14162

 Mulliken charges and spin densities:
               1          2
     1  C   -0.257417  -0.058336
     2  O   -0.153568   0.018704
     3  C   -1.270388   0.132366
     4  C    2.669269   0.115365
     5  C   -1.100329   0.133846
     6  N    0.000891  -0.059353
     7  C   -0.485240   0.295807
     8  C    0.188936  -0.001998
     9  O   -0.033026   0.006172
    10  C   -0.540012   0.015503
    11  C    0.800158  -0.019479
    12  C   -0.008826   0.104134
    13  C   -0.449063  -0.000832
    14  C   -0.227132   0.042827
    15  C   -0.434787   0.063918
    16  C   -0.293254  -0.036298
    17  C   -0.799180  -0.024158
    18  N   -0.373911   0.155235
    19  H    0.099565   0.031368
    20  H    0.147319   0.030226
    21  H    0.178417   0.008255
    22  H    0.117403  -0.024067
    23  H    0.148691   0.010785
    24  H    0.196838   0.001144
    25  H    0.154505   0.013040
    26  H    0.198671  -0.006249
    27  H    0.141063   0.001430
    28  H    0.116045   0.001944
    29  H    0.123892   0.019429
    30  H    0.144469   0.029272
 Sum of Mulliken charges =  -1.00000   1.00000

 Dipole moment (field-independent basis, Debye):
    X=              2.9716    Y=              1.8056    Z=             -2.9001  Tot=              4.5278
 Quadrupole moment (field-independent basis, Debye-Ang):
   XX=           -131.9294   YY=           -128.1567   ZZ=           -125.2944
   XY=             -3.2275   XZ=              2.7695   YZ=             -5.9768

 Summary of Natural Population Analysis:

                                       Natural Population
                Natural  -----------------------------------------------
    Atom  No    Charge         Core      Valence    Rydberg      Total
 -----------------------------------------------------------------------
      C    1   -0.10106      0.99960     2.09374    0.00772     3.10106
      O    2   -0.27050      0.99985     3.26153    0.00912     4.27050
      C    3    0.24876      0.99938     1.73621    0.01565     2.75124
      C    4   -0.15702      0.99933     2.14893    0.00876     3.15702
      C    5    0.31765      0.99943     1.66265    0.02026     2.68235
      N    6   -0.27691      0.99966     2.76531    0.01194     3.77691
      C    7    0.12026      0.99960     1.86705    0.01309     2.87974
      C    8   -0.18236      0.99952     2.17496    0.00788     3.18236
      O    9   -0.27691      0.99985     3.26866    0.00840     4.27691
      C   10   -0.01450      0.99951     2.00380    0.01119     3.01450
      C   11   -0.03047      0.99950     2.02104    0.00993     3.03047
      C   12   -0.07526      0.99952     2.06751    0.00823     3.07526
      C   13   -0.10807      0.99957     2.09973    0.00877     3.10807
      C   14   -0.09537      0.99957     2.08695    0.00885     3.09537
      C   15   -0.09642      0.99957     2.08822    0.00864     3.09642
      C   16   -0.09992      0.99952     2.08983    0.01057     3.09992
      C   17    0.14901      0.99964     1.83151    0.01985     2.85099
      N   18   -0.17674      0.99979     2.66638    0.01058     3.67674
      H   19    0.08322      0.00000     0.41572    0.00105     0.41678
      H   20    0.09326      0.00000     0.40514    0.00159     0.40674
      H   21    0.09133      0.00000     0.40701    0.00166     0.40867
      H   22    0.07513      0.00000     0.42372    0.00115     0.42487
      H   23    0.10050      0.00000     0.39850    0.00100     0.39950
      H   24    0.09645      0.00000     0.40206    0.00150     0.40355
      H   25    0.09155      0.00000     0.40750    0.00095     0.40845
      H   26    0.10559      0.00000     0.39306    0.00135     0.39441
      H   27    0.09516      0.00000     0.40390    0.00094     0.40484
      H   28    0.09256      0.00000     0.40644    0.00100     0.40744
      H   29    0.09396      0.00000     0.40474    0.00130     0.40604
      H   30    0.10712      0.00000     0.39148    0.00140     0.39288
 =======================================================================
   * Total *    0.00000     17.99241    44.79328    0.21431    63.00000

 Normal termination of Gaussian 16 at Fri Dec 11 23:01:37 2020.
