 Gaussian 16, Revision A.03,

 -----------------------------------------------------------
 # opt freq B3LYP/6-31G(d) empiricaldispersion=gd3bj scf=xqc
 -----------------------------------------------------------

 ------------------------------
 CID_64822509_JID_8817_neutraal
 ------------------------------
 Symbolic Z-matrix:
 Charge =  0 Multiplicity = 1

 SCF Done:  E(RB3LYP) =  -823.982283909     A.U. after   16 cycles
 SCF Done:  E(RB3LYP) =  -823.987859944     A.U. after   14 cycles
 SCF Done:  E(RB3LYP) =  -823.989093999     A.U. after   13 cycles
 SCF Done:  E(RB3LYP) =  -823.986037005     A.U. after   15 cycles
 SCF Done:  E(RB3LYP) =  -823.987600167     A.U. after   13 cycles
 SCF Done:  E(RB3LYP) =  -823.992268190     A.U. after   10 cycles
 SCF Done:  E(RB3LYP) =  -823.993279378     A.U. after   13 cycles
 SCF Done:  E(RB3LYP) =  -823.992794836     A.U. after   13 cycles
 SCF Done:  E(RB3LYP) =  -823.993719610     A.U. after   12 cycles
 SCF Done:  E(RB3LYP) =  -823.994076750     A.U. after   12 cycles
 SCF Done:  E(RB3LYP) =  -823.994544502     A.U. after   10 cycles
 SCF Done:  E(RB3LYP) =  -823.994546365     A.U. after    8 cycles
 SCF Done:  E(RB3LYP) =  -823.994546874     A.U. after    8 cycles
 SCF Done:  E(RB3LYP) =  -823.994547032     A.U. after    7 cycles
 SCF Done:  E(RB3LYP) =  -823.994547075     A.U. after    6 cycles
 Optimization completed.
    -- Stationary point found.
 Normal termination of Gaussian 16 at Fri Dec 11 22:24:15 2020.

 --------------------------------------------------------------------
 #N Geom=AllCheck Guess=TCheck SCRF=Check GenChk RB3LYP/6-31G(d) Freq
 --------------------------------------------------------------------

 Structure from the checkpoint file:  "JID_8817.chk"
 ------------------------------
 CID_64822509_JID_8817_neutraal
 ------------------------------
 Charge =  0 Multiplicity = 1

 SCF Done:  E(RB3LYP) =  -823.994547075     A.U. after    1 cycles

  Exact polarizability: 176.010   2.933 153.497  -6.642   1.090 132.709
 Approx polarizability: 239.961  -3.170 211.074 -15.836  -6.611 213.958

                      1                      2                      3
                      A                      A                      A
 Frequencies --     33.1683                41.3092                57.8725
 Red. masses --      3.4741                 6.3503                 4.0731
 Frc consts  --      0.0023                 0.0064                 0.0080
 IR Inten    --      0.8685                 3.3067                 2.0854

                      4                      5                      6
                      A                      A                      A
 Frequencies --     64.7642                81.2503                93.7536
 Red. masses --      4.0359                 5.1486                 6.7150
 Frc consts  --      0.0100                 0.0200                 0.0348
 IR Inten    --      2.4514                 2.8761                 0.6729

                      7                      8                      9
                      A                      A                      A
 Frequencies --    108.1421               145.1907               154.9622
 Red. masses --      3.5080                 3.2406                 3.6062
 Frc consts  --      0.0242                 0.0402                 0.0510
 IR Inten    --      3.5037                 6.8017                 1.4472

                     10                     11                     12
                      A                      A                      A
 Frequencies --    164.1635               198.7009               206.0610
 Red. masses --      5.8817                 3.1882                 3.1708
 Frc consts  --      0.0934                 0.0742                 0.0793
 IR Inten    --      3.2747                 0.5992                 4.0579

                     13                     14                     15
                      A                      A                      A
 Frequencies --    236.8587               258.3113               262.2640
 Red. masses --      3.1292                 1.2745                 2.0407
 Frc consts  --      0.1034                 0.0501                 0.0827
 IR Inten    --      2.6836                 1.1101                 3.0949

                     16                     17                     18
                      A                      A                      A
 Frequencies --    301.1789               324.3512               341.4085
 Red. masses --      1.1278                 2.5966                 1.9276
 Frc consts  --      0.0603                 0.1610                 0.1324
 IR Inten    --     57.8701                 3.4893                 2.0034

                     19                     20                     21
                      A                      A                      A
 Frequencies --    350.5861               361.4659               379.1696
 Red. masses --      3.2505                 2.8116                 3.4629
 Frc consts  --      0.2354                 0.2164                 0.2933
 IR Inten    --      8.5210                17.5313                 6.2610

                     22                     23                     24
                      A                      A                      A
 Frequencies --    387.4564               414.6921               424.4707
 Red. masses --      2.5688                 3.2893                 3.7420
 Frc consts  --      0.2272                 0.3333                 0.3972
 IR Inten    --      3.4348                 3.8283                 3.8502

                     25                     26                     27
                      A                      A                      A
 Frequencies --    462.4893               471.9010               512.4918
 Red. masses --      2.5966                 2.1898                 3.0422
 Frc consts  --      0.3272                 0.2873                 0.4708
 IR Inten    --      6.3267                 2.7445                 7.4136

                     28                     29                     30
                      A                      A                      A
 Frequencies --    524.7061               551.2985               592.1247
 Red. masses --      2.9461                 2.4255                 2.8290
 Frc consts  --      0.4779                 0.4343                 0.5844
 IR Inten    --      6.5205                 1.7932                 9.3996

                     31                     32                     33
                      A                      A                      A
 Frequencies --    647.0619               749.0963               782.0055
 Red. masses --      3.0726                 3.9247                 2.2029
 Frc consts  --      0.7580                 1.2976                 0.7937
 IR Inten    --      3.2535                 6.0231                 0.7889

                     34                     35                     36
                      A                      A                      A
 Frequencies --    799.2810               818.6639               839.4610
 Red. masses --      3.3808                 2.6442                 2.6475
 Frc consts  --      1.2725                 1.0441                 1.0992
 IR Inten    --      1.0295                 4.9948                 9.1193

                     37                     38                     39
                      A                      A                      A
 Frequencies --    852.6354               865.7582               886.6578
 Red. masses --      1.9966                 2.7690                 2.2940
 Frc consts  --      0.8552                 1.2228                 1.0626
 IR Inten    --      3.9641                 2.6776                18.5428

                     40                     41                     42
                      A                      A                      A
 Frequencies --    925.7590               929.6667               945.7768
 Red. masses --      1.9076                 1.7362                 1.9502
 Frc consts  --      0.9633                 0.8841                 1.0278
 IR Inten    --      8.2971                22.5930                49.6459

                     43                     44                     45
                      A                      A                      A
 Frequencies --    956.7754               994.8594               995.9956
 Red. masses --      2.0014                 2.8684                 2.5508
 Frc consts  --      1.0795                 1.6727                 1.4908
 IR Inten    --     32.3125                24.9194                 7.1189

                     46                     47                     48
                      A                      A                      A
 Frequencies --   1015.1271              1046.7346              1051.6663
 Red. masses --      2.6861                 2.1110                 2.1813
 Frc consts  --      1.6308                 1.3628                 1.4214
 IR Inten    --      2.1069                 8.2670                 4.2918

                     49                     50                     51
                      A                      A                      A
 Frequencies --   1058.3069              1068.7641              1098.3579
 Red. masses --      1.8558                 1.8178                 2.0587
 Frc consts  --      1.2246                 1.2234                 1.4633
 IR Inten    --      2.7500                 3.5302                38.0201

                     52                     53                     54
                      A                      A                      A
 Frequencies --   1113.5792              1115.9865              1124.7463
 Red. masses --      1.7479                 2.0240                 2.0191
 Frc consts  --      1.2771                 1.4852                 1.5049
 IR Inten    --      9.1048                 3.8037                 6.1561

                     55                     56                     57
                      A                      A                      A
 Frequencies --   1164.4898              1177.4590              1199.3854
 Red. masses --      1.5032                 2.7809                 1.6439
 Frc consts  --      1.2010                 2.2715                 1.3933
 IR Inten    --      8.7429                60.3114                17.2171

                     58                     59                     60
                      A                      A                      A
 Frequencies --   1206.9441              1224.7029              1227.3963
 Red. masses --      1.4227                 1.5848                 1.3964
 Frc consts  --      1.2211                 1.4005                 1.2394
 IR Inten    --     17.5331               185.0996                23.2794

                     61                     62                     63
                      A                      A                      A
 Frequencies --   1244.8952              1249.9481              1272.1492
 Red. masses --      1.6250                 1.8680                 1.3252
 Frc consts  --      1.4838                 1.7195                 1.2636
 IR Inten    --     23.4302                 7.0513                18.8252

                     64                     65                     66
                      A                      A                      A
 Frequencies --   1287.9730              1299.4163              1319.0070
 Red. masses --      1.3201                 1.3076                 1.6380
 Frc consts  --      1.2902                 1.3008                 1.6790
 IR Inten    --     11.5455                 0.6583                26.9947

                     67                     68                     69
                      A                      A                      A
 Frequencies --   1339.0970              1354.0590              1360.8997
 Red. masses --      1.3114                 1.2152                 1.2578
 Frc consts  --      1.3855                 1.3128                 1.3725
 IR Inten    --      4.3230                 7.6639                 2.1693

                     70                     71                     72
                      A                      A                      A
 Frequencies --   1367.6180              1383.7558              1391.5765
 Red. masses --      1.3525                 1.3816                 1.4277
 Frc consts  --      1.4905                 1.5587                 1.6289
 IR Inten    --      2.2948                 7.3800                 2.0768

                     73                     74                     75
                      A                      A                      A
 Frequencies --   1399.1834              1402.4607              1404.8375
 Red. masses --      1.2638                 1.4365                 1.3644
 Frc consts  --      1.4577                 1.6647                 1.5865
 IR Inten    --     16.3258                 1.0654                 0.2263

                     76                     77                     78
                      A                      A                      A
 Frequencies --   1417.7545              1425.2972              1431.9454
 Red. masses --      1.3759                 1.4007                 1.3406
 Frc consts  --      1.6295                 1.6765                 1.6196
 IR Inten    --     19.4556                25.0806                 3.5742

                     79                     80                     81
                      A                      A                      A
 Frequencies --   1439.6105              1476.1957              1493.6383
 Red. masses --      1.2664                 1.5361                 1.2091
 Frc consts  --      1.5464                 1.9723                 1.5893
 IR Inten    --     14.7448                67.7113                 9.3783

                     82                     83                     84
                      A                      A                      A
 Frequencies --   1495.0377              1499.7796              1510.2112
 Red. masses --      1.1078                 1.1422                 1.0921
 Frc consts  --      1.4589                 1.5137                 1.4675
 IR Inten    --      0.5858                33.5988                 0.3878

                     85                     86                     87
                      A                      A                      A
 Frequencies --   1513.3659              1515.4392              1518.8019
 Red. masses --      1.1194                 1.1056                 1.0852
 Frc consts  --      1.5105                 1.4960                 1.4748
 IR Inten    --     13.2396                 1.9523                 7.7643

                     88                     89                     90
                      A                      A                      A
 Frequencies --   1524.6400              1531.5907              1549.8377
 Red. masses --      1.0979                 1.1022                 1.0775
 Frc consts  --      1.5037                 1.5234                 1.5248
 IR Inten    --      4.5776                 8.4884                 9.5013

                     91                     92                     93
                      A                      A                      A
 Frequencies --   1556.5065              1699.2853              1729.2651
 Red. masses --      1.0492                 1.0875                 9.0030
 Frc consts  --      1.4977                 1.8501                15.8621
 IR Inten    --      5.5474                23.4160               209.9692

                     94                     95                     96
                      A                      A                      A
 Frequencies --   2370.4084              2969.4761              2979.5916
 Red. masses --     12.5946                 1.0675                 1.0557
 Frc consts  --     41.6946                 5.5460                 5.5220
 IR Inten    --      6.6101                33.6717                83.8413

                     97                     98                     99
                      A                      A                      A
 Frequencies --   3014.8160              3027.5677              3032.4358
 Red. masses --      1.0684                 1.0832                 1.0636
 Frc consts  --      5.7216                 5.8498                 5.7625
 IR Inten    --     25.9138                13.2454                46.8463

                    100                    101                    102
                      A                      A                      A
 Frequencies --   3035.1273              3038.2195              3054.3747
 Red. masses --      1.0714                 1.0722                 1.0707
 Frc consts  --      5.8149                 5.8314                 5.8853
 IR Inten    --     37.5926                33.6458                53.7201

                    103                    104                    105
                      A                      A                      A
 Frequencies --   3063.2465              3072.6155              3083.0164
 Red. masses --      1.0598                 1.0935                 1.0715
 Frc consts  --      5.8592                 6.0823                 6.0008
 IR Inten    --      6.8311                66.1724                28.8641

                    106                    107                    108
                      A                      A                      A
 Frequencies --   3084.4464              3089.8767              3093.9927
 Red. masses --      1.0994                 1.0826                 1.0905
 Frc consts  --      6.1624                 6.0897                 6.1505
 IR Inten    --     38.9667                35.1895                45.7952

                    109                    110                    111
                      A                      A                      A
 Frequencies --   3101.2251              3104.1911              3132.7295
 Red. masses --      1.1031                 1.0936                 1.0945
 Frc consts  --      6.2508                 6.2089                 6.3288
 IR Inten    --      6.3083                17.5936                17.0069

                    112                    113                    114
                      A                      A                      A
 Frequencies --   3135.8546              3136.0483              3166.6583
 Red. masses --      1.1026                 1.0859                 1.0916
 Frc consts  --      6.3885                 6.2924                 6.4493
 IR Inten    --     35.7480                14.6536                 3.4739

                    115                    116                    117
                      A                      A                      A
 Frequencies --   3176.3437              3457.3894              3538.9578
 Red. masses --      1.0932                 1.0495                 1.0915
 Frc consts  --      6.4984                 7.3916                 8.0543
 IR Inten    --      8.7851                 1.2701                 0.9162

 - Thermochemistry -
 -------------------
 Temperature   298.150 Kelvin.  Pressure   1.00000 Atm.
 Atom     1 has atomic number  6 and mass  12.00000

 Molecular mass:   253.17903 amu.
 Principal axes and moments of inertia in atomic units:
                           1         2         3
     Eigenvalues --  3807.428334828.843976897.91676
           X            0.99881   0.04810  -0.00793
           Y           -0.04808   0.99884   0.00333
           Z            0.00808  -0.00294   0.99996
 This molecule is an asymmetric top.
 Rotational symmetry number  1.
 Warning -- assumption of classical behavior for rotation
           may cause significant error
 Rotational temperatures (Kelvin)      0.02275     0.01794     0.01256
 Rotational constants (GHZ):           0.47401     0.37374     0.26164
 Zero-point vibrational energy     955537.2 (Joules/Mol)
                                  228.37888 (Kcal/Mol)
 Warning -- explicit consideration of  30 degrees of freedom as
           vibrations may cause significant error
 Vibrational temperatures:     47.72    59.43    83.27    93.18   116.90
          (Kelvin)            134.89   155.59   208.90   222.96   236.19
                              285.89   296.48   340.79   371.65   377.34
                              433.33   466.67   491.21   504.42   520.07
                              545.54   557.46   596.65   610.72   665.42
                              678.96   737.36   754.94   793.20   851.94
                              930.98  1077.78  1125.13  1149.99  1177.87
                             1207.80  1226.75  1245.63  1275.70  1331.96
                             1337.58  1360.76  1376.59  1431.38  1433.02
                             1460.54  1506.02  1513.11  1522.67  1537.71
                             1580.29  1602.19  1605.66  1618.26  1675.44
                             1694.10  1725.65  1736.52  1762.07  1765.95
                             1791.13  1798.40  1830.34  1853.11  1869.57
                             1897.76  1926.66  1948.19  1958.03  1967.70
                             1990.92  2002.17  2013.11  2017.83  2021.25
                             2039.83  2050.68  2060.25  2071.28  2123.92
                             2149.01  2151.03  2157.85  2172.86  2177.40
                             2180.38  2185.22  2193.62  2203.62  2229.87
                             2239.47  2444.89  2488.03  3410.49  4272.41
                             4286.97  4337.65  4355.99  4363.00  4366.87
                             4371.32  4394.56  4407.33  4420.81  4435.77
                             4437.83  4445.64  4451.57  4461.97  4466.24
                             4507.30  4511.80  4512.07  4556.11  4570.05
                             4974.41  5091.77

 Zero-point correction=                           0.363945 (Hartree/Particle)
 Thermal correction to Energy=                    0.382787
 Thermal correction to Enthalpy=                  0.383731
 Thermal correction to Gibbs Free Energy=         0.316706
 Sum of electronic and zero-point Energies=           -823.630602
 Sum of electronic and thermal Energies=              -823.611760
 Sum of electronic and thermal Enthalpies=            -823.610816
 Sum of electronic and thermal Free Energies=         -823.677841

                     E (Thermal)             CV                S
                      KCal/Mol        Cal/Mol-Kelvin    Cal/Mol-Kelvin
 Total                  240.202             71.151            141.065
 Electronic               0.000              0.000              0.000
 Translational            0.889              2.981             42.487
 Rotational               0.889              2.981             33.205
 Vibrational            238.425             65.190             65.373
 Vibration     1          0.594              1.983              5.630
 Vibration     2          0.594              1.981              5.195
 Vibration     3          0.596              1.974              4.528
 Vibration     4          0.597              1.971              4.306
 Vibration     5          0.600              1.962              3.860
 Vibration     6          0.603              1.954              3.580
 Vibration     7          0.606              1.943              3.302
 Vibration     8          0.617              1.908              2.734
 Vibration     9          0.620              1.897              2.610
 Vibration    10          0.623              1.886              2.501
 Vibration    11          0.637              1.842              2.145
 Vibration    12          0.641              1.831              2.078
 Vibration    13          0.656              1.784              1.826
 Vibration    14          0.667              1.749              1.673
 Vibration    15          0.670              1.742              1.647
 Vibration    16          0.693              1.671              1.410
 Vibration    17          0.709              1.627              1.288
 Vibration    18          0.721              1.593              1.206
 Vibration    19          0.727              1.574              1.164
 Vibration    20          0.736              1.552              1.116
 Vibration    21          0.749              1.515              1.042
 Vibration    22          0.756              1.497              1.010
 Vibration    23          0.778              1.438              0.910
 Vibration    24          0.786              1.417              0.877
 Vibration    25          0.820              1.333              0.759
 Vibration    26          0.829              1.312              0.732
 Vibration    27          0.868              1.222              0.628
 Vibration    28          0.880              1.195              0.599
 Vibration    29          0.907              1.137              0.541
 Vibration    30          0.950              1.049              0.463

 Optimization completed.
    -- Stationary point found.
 Normal termination of Gaussian 16 at Fri Dec 11 22:45:58 2020.

 ----------------------------------------------------------------------
 # B3LYP/6-311++G(d,p) empiricaldispersion=gd3bj scf=xqc pop=npa geom=c
 heck
 ----------------------------------------------------------------------

 --------------------------------------
 CID_64822509_JID_8817_Energie_neutraal
 --------------------------------------
 Structure from the checkpoint file:  "JID_8817.chk"
 Charge =  0 Multiplicity = 1

 SCF Done:  E(RB3LYP) =  -824.232720290     A.U. after   16 cycles
 Normal termination of Gaussian 16 at Fri Dec 11 22:55:03 2020.

 ----------------------------------------------------------------------
 # B3LYP/6-311++G(d,p) empiricaldispersion=gd3bj scf=xqc pop=npa geom=c
 heck
 ----------------------------------------------------------------------

 ------------------------------------
 CID_64822509_JID_8817_Energie_kation
 ------------------------------------
 Structure from the checkpoint file:  "JID_8817.chk"
 Charge =  1 Multiplicity = 2

 SCF Done:  E(UB3LYP) =  -823.920648970     A.U. after   33 cycles
 SCF Done:  E(UB3LYP) =  -823.920648970     a.u. after    1 cycles
 Normal termination of Gaussian 16 at Fri Dec 11 23:21:03 2020.
 Gaussian 16:  ES64L-G16RevA.03 25-Dec-2016

 ----------------------------------------------------------------------
 # B3LYP/6-311++G(d,p) empiricaldispersion=gd3bj scf=xqc pop=npa geom=c
 heck
 ----------------------------------------------------------------------

 -----------------------------------
 CID_64822509_JID_8817_Energie_anion
 -----------------------------------
 Structure from the checkpoint file:  "JID_8817.chk"
 Charge = -1 Multiplicity = 2

                         Standard orientation:
 ---------------------------------------------------------------------
 Center     Atomic      Atomic             Coordinates (Angstroms)
 Number     Number       Type             X           Y           Z
 ---------------------------------------------------------------------
      1          6           0       -1.836420    2.854440    0.030396
      2          8           0       -3.006256    2.351878   -0.587328
      3          6           0       -3.312349    1.010458   -0.283830
      4          6           0       -2.376264   -0.043897   -0.903494
      5          7           0       -1.219215   -0.420999   -0.084539
      6          6           0       -1.493824   -1.282374    1.054842
      7          6           0       -1.708192   -2.769101    0.677308
      8          6           0       -0.560225   -3.366842   -0.004941
      9          7           0        0.354056   -3.824427   -0.554295
     10          6           0        0.045330   -0.055661   -0.511419
     11          8           0        0.174108    0.690907   -1.482462
     12          6           0        1.264527   -0.555140    0.264465
     13          6           0        2.417458   -0.945186   -0.689043
     14          6           0        3.150401    0.246077   -1.319365
     15          6           0        3.598303    1.256287   -0.256266
     16          6           0        2.417503    1.699929    0.618021
     17          6           0        1.743129    0.498557    1.296127
     18          7           0        0.640605    0.839146    2.211918
     19          1           0       -0.927940    2.435384   -0.416673
     20          1           0       -1.844221    2.655362    1.116165
     21          1           0       -1.841368    3.936990   -0.122841
     22          1           0       -3.371329    0.869911    0.810279
     23          1           0       -4.317238    0.852699   -0.689877
     24          1           0       -2.963328   -0.951018   -1.099368
     25          1           0       -1.999828    0.328233   -1.856429
     26          1           0       -0.710566   -1.162831    1.801201
     27          1           0       -2.417658   -0.936910    1.530392
     28          1           0       -1.921640   -3.343300    1.586825
     29          1           0       -2.582403   -2.872682    0.024119
     30          1           0        1.003060   -1.450354    0.827105
     31          1           0        2.034585   -1.620862   -1.460201
     32          1           0        3.131047   -1.531108   -0.093159
     33          1           0        2.485824    0.739037   -2.032923
     34          1           0        4.020703   -0.122204   -1.877070
     35          1           0        4.065262    2.127945   -0.730487
     36          1           0        4.366532    0.800073    0.386541
     37          1           0        1.679731    2.226630   -0.000372
     38          1           0        2.754408    2.401645    1.393549
     39          1           0        2.501196   -0.010766    1.907439
     40          1           0        1.009075    1.399591    2.979922
     41          1           0       -0.021095    1.444927    1.725788
 ---------------------------------------------------------------------

 SCF Done:  E(UB3LYP) =  -824.227902609     A.U. after   28 cycles

 The electronic state is 2-A.
 Alpha  occ. eigenvalues --  -19.03595 -18.99688 -14.25579 -14.21926 -14.20609
 Alpha  occ. eigenvalues --  -10.18130 -10.12792 -10.12395 -10.12048 -10.11995
 Alpha  occ. eigenvalues --  -10.11907 -10.11450 -10.11055 -10.08923 -10.07862
 Alpha  occ. eigenvalues --  -10.07576 -10.07362 -10.06939  -0.95262  -0.94702
 Alpha  occ. eigenvalues --   -0.85021  -0.81665  -0.80605  -0.72932  -0.70420
 Alpha  occ. eigenvalues --   -0.67778  -0.65800  -0.63552  -0.60525  -0.58797
 Alpha  occ. eigenvalues --   -0.54526  -0.52056  -0.51130  -0.48006  -0.45640
 Alpha  occ. eigenvalues --   -0.43317  -0.42170  -0.40345  -0.40202  -0.39227
 Alpha  occ. eigenvalues --   -0.38703  -0.38130  -0.37057  -0.36024  -0.35596
 Alpha  occ. eigenvalues --   -0.34869  -0.33974  -0.32703  -0.31789  -0.31471
 Alpha  occ. eigenvalues --   -0.30936  -0.29786  -0.29411  -0.28811  -0.28281
 Alpha  occ. eigenvalues --   -0.27608  -0.27281  -0.26822  -0.25491  -0.24195
 Alpha  occ. eigenvalues --   -0.23824  -0.23812  -0.23136  -0.22940  -0.21842
 Alpha  occ. eigenvalues --   -0.18048  -0.16227  -0.15788  -0.15371   0.03734
 Alpha virt. eigenvalues --    0.05514   0.06839   0.07074   0.08062   0.08387
 Alpha virt. eigenvalues --    0.08721   0.09233   0.09574   0.10056   0.10564
 Alpha virt. eigenvalues --    0.11015   0.11152   0.11356   0.11607   0.11821

  Beta  occ. eigenvalues --  -19.03590 -18.99686 -14.25581 -14.21903 -14.20583
  Beta  occ. eigenvalues --  -10.18128 -10.12768 -10.12364 -10.12003 -10.11969
  Beta  occ. eigenvalues --  -10.11895 -10.11442 -10.11034 -10.08918 -10.07857
  Beta  occ. eigenvalues --  -10.07575 -10.07351 -10.06939  -0.95256  -0.94693
  Beta  occ. eigenvalues --   -0.85007  -0.81620  -0.80569  -0.72913  -0.70335
  Beta  occ. eigenvalues --   -0.67750  -0.65774  -0.63528  -0.60486  -0.58723
  Beta  occ. eigenvalues --   -0.54498  -0.52026  -0.51096  -0.47982  -0.45601
  Beta  occ. eigenvalues --   -0.43239  -0.42133  -0.40313  -0.40176  -0.39190
  Beta  occ. eigenvalues --   -0.38673  -0.38079  -0.37027  -0.35998  -0.35547
  Beta  occ. eigenvalues --   -0.34804  -0.33953  -0.32680  -0.31744  -0.31456
  Beta  occ. eigenvalues --   -0.30913  -0.29750  -0.29382  -0.28788  -0.28259
  Beta  occ. eigenvalues --   -0.27582  -0.27250  -0.26803  -0.25470  -0.24145
  Beta  occ. eigenvalues --   -0.23786  -0.23776  -0.23112  -0.22921  -0.21827
  Beta  occ. eigenvalues --   -0.18020  -0.16220  -0.15764  -0.15349
  Beta virt. eigenvalues --    0.05937   0.06843   0.07167   0.07389   0.08580
  Beta virt. eigenvalues --    0.08699   0.09097   0.09425   0.09641   0.10375
  Beta virt. eigenvalues --    0.10931   0.11150   0.11286   0.11569   0.11735

 Mulliken charges and spin densities:
               1          2
     1  C   -0.211592  -0.133395
     2  O   -0.130421   0.023407
     3  C    0.569112  -0.937544
     4  C   -0.327948   0.188720
     5  N    0.402247  -0.029217
     6  C   -1.060646   1.029811
     7  C    2.142357  -2.667981
     8  C   -0.043101   0.174685
     9  N   -0.300942   0.015647
    10  C   -1.253453  -0.396894
    11  O   -0.221822   0.012212
    12  C    1.875945  -0.592929
    13  C   -0.142842  -0.428200
    14  C   -0.471169   0.167388
    15  C   -0.108437  -0.490597
    16  C   -0.114263  -0.044521
    17  C   -0.976479   0.646321
    18  N   -0.284948  -0.139301
    19  H    0.277481  -0.097410
    20  H   -0.130936   0.238457
    21  H    0.055192   0.109476
    22  H    0.207945  -0.052132
    23  H   -0.217612   0.419701
    24  H   -0.185871   0.304542
    25  H    0.291510  -0.041163
    26  H    0.258527   0.012394
    27  H   -1.016912   1.213408
    28  H   -0.694776   0.918695
    29  H   -0.313278   0.506498
    30  H    0.229055  -0.023412
    31  H    0.165721   0.018743
    32  H    0.108878   0.053602
    33  H    0.176643   0.009013
    34  H    0.157623  -0.005988
    35  H    0.113831   0.039596
    36  H    0.057979   0.052989
    37  H    0.099537   0.061003
    38  H   -0.175513   0.343173
    39  H   -0.088608   0.296938
    40  H   -0.178768   0.463227
    41  H    0.460754  -0.238964
 Sum of Mulliken charges =  -1.00000   1.00000

 Dipole moment (field-independent basis, Debye):
    X=              5.4048    Y=              4.3052    Z=             -3.0954  Tot=              7.5715
 Quadrupole moment (field-independent basis, Debye-Ang):
   XX=           -174.7184   YY=           -172.1790   ZZ=           -156.1956
   XY=             -8.9898   XZ=              4.0210   YZ=              2.5414

 Summary of Natural Population Analysis:

                                       Natural Population
                Natural  -----------------------------------------------
    Atom  No    Charge         Core      Valence    Rydberg      Total
 -----------------------------------------------------------------------
      C    1   -0.10484      0.99960     2.09593    0.00931     3.10484
      O    2   -0.29553      0.99989     3.28677    0.00887     4.29553
      C    3   -0.01242      0.99958     1.99939    0.01346     3.01242
      C    4   -0.10671      0.99959     2.09550    0.01163     3.10671
      N    5   -0.26242      0.99964     2.74901    0.01377     3.76242
      C    6   -0.08767      0.99958     2.07456    0.01353     3.08767
      C    7   -0.25476      0.99953     2.24477    0.01046     3.25476
      C    8    0.16480      0.99965     1.81941    0.01613     2.83520
      N    9   -0.18764      0.99979     2.67700    0.01085     3.68764
      C   10    0.35789      0.99960     1.61787    0.02463     2.64211
      O   11   -0.33686      0.99988     3.33210    0.00489     4.33686
      C   12   -0.15060      0.99952     2.13921    0.01187     3.15060
      C   13   -0.18304      0.99962     2.17534    0.00808     3.18304
      C   14   -0.19389      0.99962     2.18709    0.00718     3.19389
      C   15   -0.18939      0.99963     2.18142    0.00834     3.18939
      C   16   -0.20127      0.99960     2.19183    0.00984     3.20127
      C   17   -0.00573      0.99956     1.99257    0.01359     3.00573
      N   18   -0.42304      0.99977     2.91242    0.01085     3.92304
      H   19    0.09137      0.00000     0.40710    0.00154     0.40863
      H   20    0.07461      0.00000     0.42402    0.00137     0.42539
      H   21    0.08703      0.00000     0.41216    0.00081     0.41297
      H   22    0.08005      0.00000     0.41819    0.00175     0.41995
      H   23    0.09298      0.00000     0.40566    0.00136     0.40702
      H   24    0.09891      0.00000     0.39944    0.00165     0.40109
      H   25    0.11937      0.00000     0.37937    0.00126     0.38063
      H   26    0.12000      0.00000     0.37704    0.00296     0.38000
      H   27    0.10808      0.00000     0.38798    0.00395     0.39192
      H   28    0.12942      0.00000     0.36649    0.00409     0.37058
      H   29    0.12420      0.00000     0.37229    0.00351     0.37580
      H   30    0.11275      0.00000     0.38530    0.00195     0.38725
      H   31    0.10891      0.00000     0.38980    0.00128     0.39109
      H   32    0.09526      0.00000     0.40378    0.00096     0.40474
      H   33    0.10982      0.00000     0.38907    0.00111     0.39018
      H   34    0.09333      0.00000     0.40576    0.00091     0.40667
      H   35    0.09646      0.00000     0.40271    0.00083     0.40354
      H   36    0.08997      0.00000     0.40890    0.00113     0.41003
      H   37    0.10130      0.00000     0.39721    0.00149     0.39870
      H   38    0.09758      0.00000     0.40126    0.00116     0.40242
      H   39    0.09082      0.00000     0.40750    0.00168     0.40918
      H   40    0.17827      0.00000     0.31961    0.00212     0.32173
      H   41    0.17263      0.00000     0.32452    0.00286     0.32737
 =======================================================================
   * Total *   -0.00000     17.99364    50.75735    0.24901    69.00000

 Normal termination of Gaussian 16 at Fri Dec 11 23:42:48 2020.
