 Gaussian 16, Revision A.03,

 -----------------------------------------------------------
 # opt freq B3LYP/6-31G(d) empiricaldispersion=gd3bj scf=xqc
 -----------------------------------------------------------

 -------------------------------
 CID_101312443_JID_6142_neutraal
 -------------------------------
 Symbolic Z-matrix:
 Charge =  0 Multiplicity = 1

 SCF Done:  E(RB3LYP) =  -694.762095801     A.U. after   14 cycles
 SCF Done:  E(RB3LYP) =  -694.765876221     A.U. after   12 cycles
 SCF Done:  E(RB3LYP) =  -694.766189007     A.U. after   12 cycles
 SCF Done:  E(RB3LYP) =  -694.766756100     A.U. after   11 cycles
 SCF Done:  E(RB3LYP) =  -694.766995317     A.U. after   11 cycles
 SCF Done:  E(RB3LYP) =  -694.767179092     A.U. after   12 cycles
 SCF Done:  E(RB3LYP) =  -694.767218342     A.U. after   11 cycles
 SCF Done:  E(RB3LYP) =  -694.767263312     A.U. after   11 cycles
 SCF Done:  E(RB3LYP) =  -694.767270068     A.U. after   10 cycles
 SCF Done:  E(RB3LYP) =  -694.767278784     A.U. after   11 cycles
 SCF Done:  E(RB3LYP) =  -694.767282667     A.U. after    8 cycles
 SCF Done:  E(RB3LYP) =  -694.767282736     A.U. after    8 cycles
 SCF Done:  E(RB3LYP) =  -694.767282771     A.U. after    7 cycles
 SCF Done:  E(RB3LYP) =  -694.767282785     A.U. after    7 cycles
 SCF Done:  E(RB3LYP) =  -694.767282785     A.U. after    6 cycles
 Optimization completed.
    -- Stationary point found.
 Normal termination of Gaussian 16 at Thu Dec 10 21:14:07 2020.

 --------------------------------------------------------------------
 #N Geom=AllCheck Guess=TCheck SCRF=Check GenChk RB3LYP/6-31G(d) Freq
 --------------------------------------------------------------------

 Structure from the checkpoint file:  "JID_6142.chk"
 -------------------------------
 CID_101312443_JID_6142_neutraal
 -------------------------------
 Charge =  0 Multiplicity = 1

 SCF Done:  E(RB3LYP) =  -694.767282785     A.U. after    1 cycles

  Exact polarizability: 246.404  -1.621 145.209  15.570   0.211  91.047
 Approx polarizability: 315.463   6.105 242.898  33.451   1.558 134.163

                      1                      2                      3
                      A                      A                      A
 Frequencies --     10.2102                20.4920                47.4115
 Red. masses --      4.0570                 4.5346                 3.5544
 Frc consts  --      0.0002                 0.0011                 0.0047
 IR Inten    --      0.0199                 0.1451                 0.0474

                      4                      5                      6
                      A                      A                      A
 Frequencies --     62.3400                69.5135                89.3914
 Red. masses --      3.2324                 3.8038                 2.2718
 Frc consts  --      0.0074                 0.0108                 0.0107
 IR Inten    --      1.9635                 0.9504                 0.5451

                      7                      8                      9
                      A                      A                      A
 Frequencies --    103.5443               136.4920               204.7637
 Red. masses --      3.4200                 2.6419                 3.9771
 Frc consts  --      0.0216                 0.0290                 0.0982
 IR Inten    --      1.0257                 0.4063                 1.9022

                     10                     11                     12
                      A                      A                      A
 Frequencies --    227.4484               240.2599               259.4966
 Red. masses --      2.3868                 2.8612                 1.3645
 Frc consts  --      0.0728                 0.0973                 0.0541
 IR Inten    --      0.9526                 1.9648                 0.4974

                     13                     14                     15
                      A                      A                      A
 Frequencies --    285.0903               287.5333               321.8000
 Red. masses --      4.5592                 4.1756                 4.1918
 Frc consts  --      0.2183                 0.2034                 0.2558
 IR Inten    --     13.6522                 0.1174                 0.7334

                     16                     17                     18
                      A                      A                      A
 Frequencies --    368.9823               399.4372               422.3151
 Red. masses --      2.3128                 2.3249                 3.1256
 Frc consts  --      0.1855                 0.2186                 0.3284
 IR Inten    --      0.3401                 0.6028                 1.6246

                     19                     20                     21
                      A                      A                      A
 Frequencies --    462.0752               488.4973               531.5532
 Red. masses --      3.0692                 2.7200                 6.4113
 Frc consts  --      0.3861                 0.3824                 1.0673
 IR Inten    --      0.6937                 0.1264                 4.2987

                     22                     23                     24
                      A                      A                      A
 Frequencies --    587.7007               616.7661               641.5811
 Red. masses --      4.1709                 4.1650                 4.9312
 Frc consts  --      0.8488                 0.9335                 1.1959
 IR Inten    --      7.7030                 0.1753                 0.8406

                     25                     26                     27
                      A                      A                      A
 Frequencies --    696.9946               766.2524               774.0014
 Red. masses --      2.1326                 3.3076                 1.3959
 Frc consts  --      0.6104                 1.1442                 0.4927
 IR Inten    --      7.4171                 1.2543                20.1584

                     28                     29                     30
                      A                      A                      A
 Frequencies --    778.0868               837.8779               843.6750
 Red. masses --      1.5309                 1.6875                 2.5865
 Frc consts  --      0.5461                 0.6980                 1.0847
 IR Inten    --     35.6244                 6.9164                40.7125

                     31                     32                     33
                      A                      A                      A
 Frequencies --    866.8647               871.6147               878.6395
 Red. masses --      2.0475                 2.8654                 2.5845
 Frc consts  --      0.9065                 1.2826                 1.1756
 IR Inten    --     13.9433                11.7402                16.3595

                     34                     35                     36
                      A                      A                      A
 Frequencies --    891.0128               909.0260               918.9578
 Red. masses --      1.4757                 1.6765                 1.3543
 Frc consts  --      0.6903                 0.8162                 0.6738
 IR Inten    --     16.1511                 1.4530                 4.8975

                     37                     38                     39
                      A                      A                      A
 Frequencies --    948.0586               956.4423              1008.3563
 Red. masses --      2.8262                 1.2656                 1.5346
 Frc consts  --      1.4967                 0.6822                 0.9193
 IR Inten    --      3.1437                 0.0969                 9.6809

                     40                     41                     42
                      A                      A                      A
 Frequencies --   1017.2057              1018.8005              1022.1517
 Red. masses --      3.1972                 1.3529                 1.8094
 Frc consts  --      1.9491                 0.8274                 1.1138
 IR Inten    --      6.2230                14.1909                 5.6833

                     43                     44                     45
                      A                      A                      A
 Frequencies --   1069.1757              1093.3201              1119.1753
 Red. masses --      2.4388                 3.3833                 1.4445
 Frc consts  --      1.6426                 2.3828                 1.0660
 IR Inten    --      7.3152                95.5505                 1.0627

                     46                     47                     48
                      A                      A                      A
 Frequencies --   1122.8673              1130.4141              1151.4098
 Red. masses --      1.6137                 1.6974                 2.0978
 Frc consts  --      1.1987                 1.2780                 1.6386
 IR Inten    --      0.7200                 4.1915                 0.6796

                     49                     50                     51
                      A                      A                      A
 Frequencies --   1160.2001              1164.1926              1188.5431
 Red. masses --      1.7042                 1.4760                 1.4693
 Frc consts  --      1.3516                 1.1787                 1.2229
 IR Inten    --      6.0637                 7.9149                 2.4665

                     52                     53                     54
                      A                      A                      A
 Frequencies --   1197.7954              1219.8613              1253.4348
 Red. masses --      1.4247                 1.3776                 1.3301
 Frc consts  --      1.2043                 1.2078                 1.2312
 IR Inten    --     66.8063                19.5233                12.2284

                     55                     56                     57
                      A                      A                      A
 Frequencies --   1279.3799              1291.6438              1299.9972
 Red. masses --      1.4309                 1.3593                 1.2861
 Frc consts  --      1.3800                 1.3361                 1.2806
 IR Inten    --      1.2382                 2.8330                12.8458

                     58                     59                     60
                      A                      A                      A
 Frequencies --   1309.9890              1333.8845              1343.6991
 Red. masses --      2.9967                 1.7302                 1.2330
 Frc consts  --      3.0299                 1.8138                 1.3117
 IR Inten    --    248.9105                 9.6877                 4.9111

                     61                     62                     63
                      A                      A                      A
 Frequencies --   1369.3650              1376.2179              1383.6458
 Red. masses --      1.4526                 1.5660                 1.8878
 Frc consts  --      1.6048                 1.7474                 2.1294
 IR Inten    --      0.2292                20.5799                32.7946

                     64                     65                     66
                      A                      A                      A
 Frequencies --   1396.6812              1407.0275              1443.4237
 Red. masses --      1.3967                 1.5767                 1.2672
 Frc consts  --      1.6052                 1.8391                 1.5555
 IR Inten    --      7.1436                 3.7539                 9.0836

                     67                     68                     69
                      A                      A                      A
 Frequencies --   1466.1004              1488.5635              1510.9045
 Red. masses --      1.7041                 2.9214                 1.1258
 Frc consts  --      2.1581                 3.8140                 1.5143
 IR Inten    --      3.0641                29.2809                 4.2046

                     70                     71                     72
                      A                      A                      A
 Frequencies --   1519.3327              1527.8346              1531.8277
 Red. masses --      1.0715                 1.1134                 1.0515
 Frc consts  --      1.4572                 1.5313                 1.4537
 IR Inten    --      0.4297                 3.8084                 2.5307

                     73                     74                     75
                      A                      A                      A
 Frequencies --   1539.4174              1544.5250              1555.7001
 Red. masses --      1.0583                 2.4015                 1.3525
 Frc consts  --      1.4777                 3.3754                 1.9286
 IR Inten    --      4.5605                62.9536                 4.1065

                     76                     77                     78
                      A                      A                      A
 Frequencies --   1638.7032              1668.0238              1733.5324
 Red. masses --      5.3717                 6.1267                 5.6731
 Frc consts  --      8.4989                10.0434                10.0447
 IR Inten    --     86.3702               104.9664                 2.2809

                     79                     80                     81
                      A                      A                      A
 Frequencies --   3013.3916              3038.2951              3045.0454
 Red. masses --      1.0661                 1.0613                 1.0373
 Frc consts  --      5.7037                 5.7723                 5.6670
 IR Inten    --     38.0118                38.0832                26.4827

                     82                     83                     84
                      A                      A                      A
 Frequencies --   3047.9150              3071.3126              3076.9174
 Red. masses --      1.0659                 1.0959                 1.1014
 Frc consts  --      5.8339                 6.0905                 6.1437
 IR Inten    --     33.9713                29.5960                26.1791

                     85                     86                     87
                      A                      A                      A
 Frequencies --   3103.7952              3110.4763              3116.5244
 Red. masses --      1.0505                 1.1014                 1.0975
 Frc consts  --      5.9627                 6.2784                 6.2803
 IR Inten    --     18.2638                50.2114                24.2338

                     88                     89                     90
                      A                      A                      A
 Frequencies --   3118.4279              3132.7654              3141.5875
 Red. masses --      1.1023                 1.0916                 1.0887
 Frc consts  --      6.3154                 6.3123                 6.3309
 IR Inten    --     56.6829                18.7625                16.9679

                     91                     92                     93
                      A                      A                      A
 Frequencies --   3165.7508              3188.0024              3188.6574
 Red. masses --      1.0871                 1.0931                 1.1151
 Frc consts  --      6.4190                 6.5455                 6.6799
 IR Inten    --     24.6302                15.0372                30.0540

                     94                     95                     96
                      A                      A                      A
 Frequencies --   3203.3824              3214.4053              3253.4329
 Red. masses --      1.0902                 1.0923                 1.0901
 Frc consts  --      6.5913                 6.6498                 6.7984
 IR Inten    --      6.5111                15.9796                 8.9375

 - Thermochemistry -
 -------------------
 Temperature   298.150 Kelvin.  Pressure   1.00000 Atm.
 Atom     1 has atomic number  6 and mass  12.00000

 Molecular mass:   218.13068 amu.
 Principal axes and moments of inertia in atomic units:
                           1         2         3
     Eigenvalues --   950.15917********************
           X            1.00000  -0.00181  -0.00027
           Y            0.00181   0.99996  -0.00852
           Z            0.00029   0.00852   0.99996
 This molecule is an asymmetric top.
 Rotational symmetry number  1.
 Warning -- assumption of classical behavior for rotation
           may cause significant error
 Rotational temperatures (Kelvin)      0.09116     0.00767     0.00733
 Rotational constants (GHZ):           1.89941     0.15976     0.15275
 Zero-point vibrational energy     765302.6 (Joules/Mol)
                                  182.91172 (Kcal/Mol)
 Warning -- explicit consideration of  23 degrees of freedom as
           vibrations may cause significant error
 Vibrational temperatures:     14.69    29.48    68.21    89.69   100.01
          (Kelvin)            128.61   148.98   196.38   294.61   327.25
                              345.68   373.36   410.18   413.70   463.00
                              530.88   574.70   607.62   664.82   702.84
                              764.79   845.57   887.39   923.09  1002.82
                             1102.47  1113.62  1119.49  1205.52  1213.86
                             1247.22  1254.06  1264.17  1281.97  1307.89
                             1322.18  1364.04  1376.11  1450.80  1463.53
                             1465.83  1470.65  1538.31  1573.04  1610.24
                             1615.56  1626.41  1656.62  1669.27  1675.01
                             1710.05  1723.36  1755.11  1803.41  1840.74
                             1858.39  1870.41  1884.78  1919.16  1933.28
                             1970.21  1980.07  1990.76  2009.51  2024.40
                             2076.76  2109.39  2141.71  2173.85  2185.98
                             2198.21  2203.96  2214.88  2222.23  2238.31
                             2357.73  2399.91  2494.17  4335.60  4371.43
                             4381.14  4385.27  4418.93  4427.00  4465.67
                             4475.28  4483.98  4486.72  4507.35  4520.04
                             4554.81  4586.82  4587.77  4608.95  4624.81
                             4680.96

 Zero-point correction=                           0.291488 (Hartree/Particle)
 Thermal correction to Energy=                    0.307609
 Thermal correction to Enthalpy=                  0.308553
 Thermal correction to Gibbs Free Energy=         0.244423
 Sum of electronic and zero-point Energies=           -694.475794
 Sum of electronic and thermal Energies=              -694.459674
 Sum of electronic and thermal Enthalpies=            -694.458730
 Sum of electronic and thermal Free Energies=         -694.522860

                     E (Thermal)             CV                S
                      KCal/Mol        Cal/Mol-Kelvin    Cal/Mol-Kelvin
 Total                  193.028             59.687            134.974
 Electronic               0.000              0.000              0.000
 Translational            0.889              2.981             42.043
 Rotational               0.889              2.981             33.205
 Vibrational            191.250             53.726             59.725
 Vibration     1          0.593              1.987              7.970
 Vibration     2          0.593              1.986              6.586
 Vibration     3          0.595              1.979              4.923
 Vibration     4          0.597              1.972              4.382
 Vibration     5          0.598              1.969              4.167
 Vibration     6          0.602              1.957              3.673
 Vibration     7          0.605              1.946              3.386
 Vibration     8          0.614              1.917              2.852
 Vibration     9          0.640              1.833              2.090
 Vibration    10          0.651              1.799              1.899
 Vibration    11          0.657              1.779              1.801
 Vibration    12          0.668              1.747              1.665
 Vibration    13          0.683              1.701              1.503
 Vibration    14          0.685              1.697              1.488
 Vibration    15          0.707              1.632              1.301
 Vibration    16          0.741              1.536              1.084
 Vibration    17          0.765              1.471              0.965
 Vibration    18          0.785              1.422              0.884
 Vibration    19          0.820              1.334              0.760
 Vibration    20          0.844              1.276              0.688
 Vibration    21          0.887              1.180              0.584
 Vibration    22          0.945              1.058              0.471
 Vibration    23          0.976              0.996              0.422

                           ! Non-Optimized Parameters !
 Normal termination of Gaussian 16 at Thu Dec 10 21:22:32 2020.

 ----------------------------------------------------------------------
 # B3LYP/6-311++G(d,p) empiricaldispersion=gd3bj scf=xqc pop=npa geom=c
 heck
 ----------------------------------------------------------------------

 ---------------------------------------
 CID_101312443_JID_6142_Energie_neutraal
 ---------------------------------------
 Structure from the checkpoint file:  "JID_6142.chk"
 Charge =  0 Multiplicity = 1

 SCF Done:  E(RB3LYP) =  -694.957424878     A.U. after   14 cycles
 Normal termination of Gaussian 16 at Thu Dec 10 21:26:11 2020.

 ----------------------------------------------------------------------
 # B3LYP/6-311++G(d,p) empiricaldispersion=gd3bj scf=xqc pop=npa geom=c
 heck
 ----------------------------------------------------------------------

 -------------------------------------
 CID_101312443_JID_6142_Energie_kation
 -------------------------------------
 Structure from the checkpoint file:  "JID_6142.chk"
 Charge =  1 Multiplicity = 2

 SCF Done:  E(UB3LYP) =  -694.672993179     A.U. after   22 cycles
 Normal termination of Gaussian 16 at Thu Dec 10 21:33:40 2020.
 Gaussian 16:  ES64L-G16RevA.03 25-Dec-2016

 ----------------------------------------------------------------------
 # B3LYP/6-311++G(d,p) empiricaldispersion=gd3bj scf=xqc pop=npa geom=c
 heck
 ----------------------------------------------------------------------

 ------------------------------------
 CID_101312443_JID_6142_Energie_anion
 ------------------------------------
 Structure from the checkpoint file:  "JID_6142.chk"
 Charge = -1 Multiplicity = 2

                         Standard orientation:
 ---------------------------------------------------------------------
 Center     Atomic      Atomic             Coordinates (Angstroms)
 Number     Number       Type             X           Y           Z
 ---------------------------------------------------------------------
      1          6           0        6.177551    0.917773   -0.434017
      2          6           0        5.760304   -0.548993   -0.298331
      3          6           0        4.719587   -0.802569    0.813337
      4          6           0        3.417214   -0.089753    0.590418
      5          6           0        2.259807   -0.706329    0.312377
      6          6           0        0.955762   -0.078917    0.058707
      7          6           0       -0.157340   -0.905607   -0.125817
      8          6           0       -1.428547   -0.373453   -0.366900
      9          6           0       -1.603987    1.010422   -0.428224
     10          6           0       -0.490739    1.839926   -0.250670
     11          6           0        0.771216    1.316487   -0.011125
     12          8           0       -2.421742   -1.301753   -0.538857
     13          6           0       -3.754844   -0.868778   -0.774835
     14          6           0       -4.437823   -0.387804    0.490697
     15          6           0       -4.937665    0.981777    0.665688
     16          8           0       -5.830015   -0.089035    0.334449
     17          1           0        5.333848    1.550597   -0.730437
     18          1           0        6.960194    1.036326   -1.191312
     19          1           0        6.569209    1.306083    0.514572
     20          1           0        5.351174   -0.906101   -1.252085
     21          1           0        6.646954   -1.161139   -0.087274
     22          1           0        4.535283   -1.881092    0.893250
     23          1           0        5.153273   -0.482593    1.773191
     24          1           0        3.447148    0.997072    0.650829
     25          1           0        2.258073   -1.796237    0.271424
     26          1           0       -0.054511   -1.985846   -0.084845
     27          1           0       -2.577076    1.447561   -0.606028
     28          1           0       -0.625092    2.917036   -0.301966
     29          1           0        1.614790    1.986223    0.117130
     30          1           0       -3.799455   -0.107798   -1.564820
     31          1           0       -4.277173   -1.759540   -1.135221
     32          1           0       -4.189014   -0.971613    1.378835
     33          1           0       -5.049162    1.395312    1.667922
     34          1           0       -4.787380    1.716965   -0.125730
 ---------------------------------------------------------------------

 SCF Done:  E(UB3LYP) =  -694.949668526     A.U. after   33 cycles
 SCF Done:  E(UB3LYP) =  -694.949668645     a.u. after    2 cycles

 The electronic state is 2-A.
 Alpha  occ. eigenvalues --  -19.06877 -19.05240 -10.15679 -10.15484 -10.14789
 Alpha  occ. eigenvalues --  -10.11230 -10.05585 -10.04718 -10.04565 -10.04519
 Alpha  occ. eigenvalues --  -10.04447 -10.04356 -10.03875 -10.03785 -10.02758
 Alpha  occ. eigenvalues --  -10.02405  -1.01064  -0.96790  -0.73450  -0.68468
 Alpha  occ. eigenvalues --   -0.67294  -0.65002  -0.61518  -0.60847  -0.59287
 Alpha  occ. eigenvalues --   -0.55516  -0.53774  -0.49603  -0.48848  -0.46913
 Alpha  occ. eigenvalues --   -0.44570  -0.42208  -0.41222  -0.40015  -0.38451
 Alpha  occ. eigenvalues --   -0.36892  -0.34863  -0.34106  -0.33689  -0.32156
 Alpha  occ. eigenvalues --   -0.31800  -0.31235  -0.29948  -0.28652  -0.27806
 Alpha  occ. eigenvalues --   -0.26681  -0.26555  -0.24952  -0.24041  -0.23642
 Alpha  occ. eigenvalues --   -0.22842  -0.22321  -0.22049  -0.21293  -0.20585
 Alpha  occ. eigenvalues --   -0.19780  -0.16737  -0.11572  -0.09559   0.04958
 Alpha virt. eigenvalues --    0.06363   0.07517   0.07815   0.07928   0.08836
 Alpha virt. eigenvalues --    0.09150   0.09717   0.10313   0.10606   0.10635
 Alpha virt. eigenvalues --    0.11041   0.11222   0.12410   0.12488   0.12911

  Beta  occ. eigenvalues --  -19.06871 -19.05228 -10.15673 -10.15483 -10.14786
  Beta  occ. eigenvalues --  -10.11212 -10.05606 -10.04667 -10.04584 -10.04336
  Beta  occ. eigenvalues --  -10.04320 -10.04273 -10.03825 -10.03703 -10.02700
  Beta  occ. eigenvalues --  -10.02120  -1.01046  -0.96760  -0.73215  -0.68222
  Beta  occ. eigenvalues --   -0.67229  -0.64720  -0.61374  -0.60601  -0.59223
  Beta  occ. eigenvalues --   -0.55346  -0.53730  -0.49260  -0.48787  -0.46820
  Beta  occ. eigenvalues --   -0.44438  -0.42133  -0.41127  -0.39856  -0.38383
  Beta  occ. eigenvalues --   -0.36769  -0.34753  -0.34027  -0.33603  -0.32095
  Beta  occ. eigenvalues --   -0.31742  -0.31134  -0.29852  -0.28543  -0.27504
  Beta  occ. eigenvalues --   -0.26608  -0.26436  -0.24870  -0.23867  -0.23588
  Beta  occ. eigenvalues --   -0.22603  -0.22032  -0.21969  -0.21206  -0.20498
  Beta  occ. eigenvalues --   -0.19627  -0.15792  -0.10969  -0.08386
  Beta virt. eigenvalues --    0.06325   0.07750   0.07774   0.07841   0.08917
  Beta virt. eigenvalues --    0.09182   0.09766   0.10065   0.10325   0.10619
  Beta virt. eigenvalues --    0.10836   0.11129   0.11247   0.12452   0.12672

 Mulliken charges and spin densities:
               1          2
     1  C    0.558067  -1.161573
     2  C   -0.186508   0.009710
     3  C   -0.250835   0.093551
     4  C    0.247460   0.103180
     5  C   -0.312411  -0.109568
     6  C    1.453058   0.022493
     7  C   -0.267041   0.009227
     8  C   -0.100551  -0.015010
     9  C    0.018300   0.153783
    10  C   -0.655590  -0.003637
    11  C   -0.974165   0.082021
    12  O   -0.095896   0.003855
    13  C   -0.293646  -0.065076
    14  C    0.031382   0.047538
    15  C   -0.337340  -0.037676
    16  O   -0.147959  -0.001436
    17  H   -0.024822   0.159721
    18  H   -0.366868   0.490313
    19  H   -0.081843   0.210821
    20  H    0.043692   0.070048
    21  H   -0.498356   0.629919
    22  H    0.032222   0.100885
    23  H   -0.095295   0.230188
    24  H    0.211198  -0.132529
    25  H    0.086051  -0.026052
    26  H    0.126041   0.010533
    27  H   -0.055556  -0.009826
    28  H    0.163205   0.001573
    29  H   -0.013387   0.046688
    30  H    0.130609   0.038751
    31  H    0.175579   0.006086
    32  H    0.207913   0.001757
    33  H    0.148980  -0.000561
    34  H    0.124311   0.040304
 Sum of Mulliken charges =  -1.00000   1.00000

 Dipole moment (field-independent basis, Debye):
    X=            -12.5250    Y=              1.0723    Z=              0.5783  Tot=             12.5841
 Quadrupole moment (field-independent basis, Debye-Ang):
   XX=           -241.0557   YY=           -110.9688   ZZ=           -114.7911
   XY=              0.1037   XZ=             -0.9948   YZ=              2.6686

 Summary of Natural Population Analysis:

                                       Natural Population
                Natural  -----------------------------------------------
    Atom  No    Charge         Core      Valence    Rydberg      Total
 -----------------------------------------------------------------------
      C    1   -0.28795      0.99967     2.28217    0.00611     3.28795
      C    2   -0.18292      0.99964     2.17486    0.00843     3.18292
      C    3   -0.20545      0.99962     2.19482    0.01101     3.20545
      C    4   -0.02442      0.99952     2.01565    0.00925     3.02442
      C    5   -0.10273      0.99950     2.09454    0.00869     3.10273
      C    6    0.00799      0.99951     1.98389    0.00861     2.99201
      C    7   -0.10172      0.99950     2.09406    0.00817     3.10172
      C    8    0.15591      0.99937     1.83273    0.01199     2.84409
      C    9   -0.13294      0.99952     2.12548    0.00794     3.13294
      C   10   -0.10021      0.99959     2.09152    0.00910     3.10021
      C   11   -0.10029      0.99953     2.09292    0.00784     3.10029
      O   12   -0.27927      0.99986     3.26989    0.00952     4.27927
      C   13   -0.02130      0.99957     2.01002    0.01171     3.02130
      C   14    0.03519      0.99959     1.95336    0.01186     2.96481
      C   15   -0.03016      0.99959     2.02057    0.00999     3.03016
      O   16   -0.28307      0.99992     3.27458    0.00856     4.28307
      H   17    0.09764      0.00000     0.40139    0.00097     0.40236
      H   18    0.09658      0.00000     0.40239    0.00103     0.40342
      H   19    0.09383      0.00000     0.40501    0.00115     0.40617
      H   20    0.09213      0.00000     0.40678    0.00110     0.40787
      H   21    0.09379      0.00000     0.40341    0.00280     0.40621
      H   22    0.09527      0.00000     0.40372    0.00100     0.40473
      H   23    0.09635      0.00000     0.40247    0.00118     0.40365
      H   24    0.08327      0.00000     0.41555    0.00118     0.41673
      H   25    0.08446      0.00000     0.41385    0.00169     0.41554
      H   26    0.09687      0.00000     0.40179    0.00134     0.40313
      H   27    0.09149      0.00000     0.40677    0.00174     0.40851
      H   28    0.09138      0.00000     0.40763    0.00099     0.40862
      H   29    0.09554      0.00000     0.40259    0.00187     0.40446
      H   30    0.08582      0.00000     0.41153    0.00265     0.41418
      H   31    0.09403      0.00000     0.40492    0.00105     0.40597
      H   32    0.09219      0.00000     0.40664    0.00117     0.40781
      H   33    0.08611      0.00000     0.41270    0.00119     0.41389
      H   34    0.08670      0.00000     0.41183    0.00147     0.41330
 =======================================================================
   * Total *    0.00010     15.99349    42.83204    0.17436    58.99990

 Normal termination of Gaussian 16 at Thu Dec 10 21:54:17 2020.
