 Gaussian 16, Revision A.03,

 -----------------------------------------------------------
 # opt freq B3LYP/6-31G(d) empiricaldispersion=gd3bj scf=xqc
 -----------------------------------------------------------

 -----------------------------
 CID_71435510_JID_229_neutraal
 -----------------------------
 Symbolic Z-matrix:
 Charge =  0 Multiplicity = 1

 SCF Done:  E(RB3LYP) =  -421.553018224     A.U. after   15 cycles
 SCF Done:  E(RB3LYP) =  -421.580811082     A.U. after   13 cycles
 SCF Done:  E(RB3LYP) =  -421.583097370     A.U. after   13 cycles
 SCF Done:  E(RB3LYP) =  -421.584530895     A.U. after   12 cycles
 SCF Done:  E(RB3LYP) =  -421.588131186     A.U. after   13 cycles
 SCF Done:  E(RB3LYP) =  -421.590186405     A.U. after   13 cycles
 SCF Done:  E(RB3LYP) =  -421.592016893     A.U. after   12 cycles
 SCF Done:  E(RB3LYP) =  -421.593014064     A.U. after   12 cycles
 SCF Done:  E(RB3LYP) =  -421.594019370     A.U. after   12 cycles
 SCF Done:  E(RB3LYP) =  -421.595772830     A.U. after   13 cycles
 SCF Done:  E(RB3LYP) =  -421.597261007     A.U. after   11 cycles
 SCF Done:  E(RB3LYP) =  -421.597284004     A.U. after   10 cycles
 SCF Done:  E(RB3LYP) =  -421.597290657     A.U. after    9 cycles
 SCF Done:  E(RB3LYP) =  -421.597292722     A.U. after    8 cycles
 SCF Done:  E(RB3LYP) =  -421.597292986     A.U. after    8 cycles
 SCF Done:  E(RB3LYP) =  -421.597293063     A.U. after    7 cycles
 Optimization completed.
    -- Stationary point found.

 1\1\GINC-NODE120\FOpt\RB3LYP\6-31G(d)\C8H12N2\VSC10255\08-Dec-2020\0\\
 # opt freq B3LYP/6-31G(d) empiricaldispersion=gd3bj scf=xqc\\CID_71435
 510_JID_229_neutraal\\0,1\C,0.3976487115,0.0680125309,-0.0953490373\N,
 0.5884423637,-1.3352440632,-0.420707769\C,0.918444592,-1.5851816395,-1
 .8317392549\C,1.3538044207,-3.0221504274,-2.0924713451\C,0.3257187357,
 -3.9910311774,-1.5125049874\C,0.1872299493,-3.7316064445,-0.0103450895
 \C,-0.0986775,-2.2795437327,0.3113205155\C,-0.9355388259,-1.9424817083
 ,1.3386151922\C,-1.5524136064,-2.9196604666,2.1584292027\N,-2.07242208

 Normal termination of Gaussian 16 at Tue Dec  8 10:24:09 2020.

 --------------------------------------------------------------------
 #N Geom=AllCheck Guess=TCheck SCRF=Check GenChk RB3LYP/6-31G(d) Freq
 --------------------------------------------------------------------

 Structure from the checkpoint file:  "JID_229.chk"
 -----------------------------
 CID_71435510_JID_229_neutraal
 -----------------------------
 Charge =  0 Multiplicity = 1

 SCF Done:  E(RB3LYP) =  -421.597293063     A.U. after    1 cycles

  Exact polarizability: 134.843   7.282  91.975   0.891  -1.839  62.381
 Approx polarizability: 206.721  20.314 126.278   5.394  -2.486  95.225

                      1                      2                      3
                      A                      A                      A
 Frequencies --     75.8138               122.3423               137.6743
 Red. masses --      3.0878                 3.3948                 3.7125
 Frc consts  --      0.0105                 0.0299                 0.0415
 IR Inten    --      2.7762                 0.8754                 3.9611

                      4                      5                      6
                      A                      A                      A
 Frequencies --    141.7482               244.5056               256.2286
 Red. masses --      2.9560                 1.3261                 3.0062
 Frc consts  --      0.0350                 0.0467                 0.1163
 IR Inten    --      3.3914                 0.0949                17.5060

                      7                      8                      9
                      A                      A                      A
 Frequencies --    321.4059               346.7982               391.4615
 Red. masses --      1.7476                 2.7293                 4.3870
 Frc consts  --      0.1064                 0.1934                 0.3961
 IR Inten    --      1.2775                 0.4528                 0.1528

                     10                     11                     12
                      A                      A                      A
 Frequencies --    447.6468               461.5531               532.6247
 Red. masses --      2.7718                 2.7897                 2.4710
 Frc consts  --      0.3273                 0.3501                 0.4130
 IR Inten    --      0.4959                 0.5169                 4.8582

                     13                     14                     15
                      A                      A                      A
 Frequencies --    546.1418               566.8484               647.5807
 Red. masses --      6.3358                 3.6544                 2.3469
 Frc consts  --      1.1134                 0.6918                 0.5799
 IR Inten    --      2.1306                 3.2549                 9.8999

                     16                     17                     18
                      A                      A                      A
 Frequencies --    759.0055               774.6134               849.4288
 Red. masses --      3.8809                 1.6019                 1.4792
 Frc consts  --      1.3173                 0.5663                 0.6288
 IR Inten    --      1.2857                36.8190                 1.6509

                     19                     20                     21
                      A                      A                      A
 Frequencies --    868.2577               905.0521               945.4659
 Red. masses --      2.4855                 2.5401                 1.4298
 Frc consts  --      1.1040                 1.2259                 0.7531
 IR Inten    --      2.5237                 0.6932                 0.8430

                     22                     23                     24
                      A                      A                      A
 Frequencies --    992.2410              1062.6706              1085.5228
 Red. masses --      2.2395                 2.4202                 2.1114
 Frc consts  --      1.2991                 1.6103                 1.4658
 IR Inten    --      4.3390                13.3660                 5.8934

                     25                     26                     27
                      A                      A                      A
 Frequencies --   1097.4747              1130.0483              1151.7468
 Red. masses --      2.0264                 1.6924                 1.4014
 Frc consts  --      1.4380                 1.2734                 1.0953
 IR Inten    --      9.9974                 2.6108                 8.8520

                     28                     29                     30
                      A                      A                      A
 Frequencies --   1161.7605              1204.2937              1216.6417
 Red. masses --      2.2968                 1.3999                 1.3851
 Frc consts  --      1.8265                 1.1962                 1.2080
 IR Inten    --     23.9798                38.3662                 3.9345

                     31                     32                     33
                      A                      A                      A
 Frequencies --   1253.7503              1304.9403              1322.3748
 Red. masses --      2.1079                 1.2216                 1.1974
 Frc consts  --      1.9522                 1.2256                 1.2337
 IR Inten    --     21.5006                27.0830                 9.7486

                     34                     35                     36
                      A                      A                      A
 Frequencies --   1357.3492              1369.3400              1389.1729
 Red. masses --      1.3841                 1.9264                 1.5874
 Frc consts  --      1.5024                 2.1282                 1.8049
 IR Inten    --      8.6768               116.3319                13.6703

                     37                     38                     39
                      A                      A                      A
 Frequencies --   1407.3416              1419.2882              1460.8233
 Red. masses --      1.4684                 1.5328                 1.7640
 Frc consts  --      1.7136                 1.8192                 2.2179
 IR Inten    --     10.2076                13.1508                37.0954

                     40                     41                     42
                      A                      A                      A
 Frequencies --   1491.5650              1506.2795              1517.4132
 Red. masses --      1.3308                 1.1124                 1.0870
 Frc consts  --      1.7444                 1.4870                 1.4746
 IR Inten    --      4.0904                 5.0379                 4.5188

                     43                     44                     45
                      A                      A                      A
 Frequencies --   1518.7960              1527.6193              1540.3927
 Red. masses --      1.0543                 1.1132                 1.0675
 Frc consts  --      1.4329                 1.5306                 1.4924
 IR Inten    --     13.3314                 3.7840                18.4975

                     46                     47                     48
                      A                      A                      A
 Frequencies --   1550.3046              1656.4395              2321.5088
 Red. masses --      1.1558                 5.3970                12.5888
 Frc consts  --      1.6367                 8.7247                39.9738
 IR Inten    --      7.8481               295.4381               111.1274

                     49                     50                     51
                      A                      A                      A
 Frequencies --   2975.1206              3006.1184              3033.3066
 Red. masses --      1.0732                 1.0539                 1.0723
 Frc consts  --      5.5965                 5.6111                 5.8130
 IR Inten    --     63.0356                56.8979                 5.7735

                     52                     53                     54
                      A                      A                      A
 Frequencies --   3044.9578              3051.3241              3086.8688
 Red. masses --      1.0669                 1.0609                 1.0894
 Frc consts  --      5.8281                 5.8199                 6.1160
 IR Inten    --     20.3143                30.5679                40.6460

                     55                     56                     57
                      A                      A                      A
 Frequencies --   3096.2640              3101.3501              3103.3908
 Red. masses --      1.0977                 1.1037                 1.0816
 Frc consts  --      6.2005                 6.2546                 6.1374
 IR Inten    --     39.7704                37.9109                33.8897

                     58                     59                     60
                      A                      A                      A
 Frequencies --   3136.0886              3146.0962              3233.1570
 Red. masses --      1.0919                 1.1039                 1.0871
 Frc consts  --      6.3272                 6.4374                 6.6952
 IR Inten    --      5.5858                17.0288                 4.8035

 - Thermochemistry -
 -------------------
 Temperature   298.150 Kelvin.  Pressure   1.00000 Atm.
 Atom     1 has atomic number  6 and mass  12.00000

 Molecular mass:   136.10005 amu.
 Principal axes and moments of inertia in atomic units:
                           1         2         3
     Eigenvalues --   837.512781836.355622576.99290
           X            0.99992  -0.01260  -0.00305
           Y            0.01259   0.99991  -0.00524
           Z            0.00312   0.00520   0.99998
 This molecule is an asymmetric top.
 Rotational symmetry number  1.
 Warning -- assumption of classical behavior for rotation
           may cause significant error
 Rotational temperatures (Kelvin)      0.10342     0.04717     0.03361
 Rotational constants (GHZ):           2.15488     0.98278     0.70033
 Zero-point vibrational energy     504664.6 (Joules/Mol)
                                  120.61774 (Kcal/Mol)
 Warning -- explicit consideration of  14 degrees of freedom as
           vibrations may cause significant error
 Vibrational temperatures:    109.08   176.02   198.08   203.94   351.79
          (Kelvin)            368.66   462.43   498.97   563.23   644.06
                              664.07   766.33   785.78   815.57   931.72
                             1092.04  1114.50  1222.14  1249.23  1302.17
                             1360.31  1427.61  1528.95  1561.83  1579.02
                             1625.89  1657.11  1671.51  1732.71  1750.48
                             1803.87  1877.52  1902.60  1952.92  1970.17
                             1998.71  2024.85  2042.04  2101.80  2146.03
                             2167.20  2183.22  2185.21  2197.90  2216.28
                             2230.54  2383.25  3340.13  4280.53  4325.13
                             4364.25  4381.02  4390.17  4441.32  4454.83
                             4462.15  4465.09  4512.13  4526.53  4651.79

 Zero-point correction=                           0.192217 (Hartree/Particle)
 Thermal correction to Energy=                    0.201851
 Thermal correction to Enthalpy=                  0.202796
 Thermal correction to Gibbs Free Energy=         0.157442
 Sum of electronic and zero-point Energies=           -421.405076
 Sum of electronic and thermal Energies=              -421.395442
 Sum of electronic and thermal Enthalpies=            -421.394497
 Sum of electronic and thermal Free Energies=         -421.439851

                     E (Thermal)             CV                S
                      KCal/Mol        Cal/Mol-Kelvin    Cal/Mol-Kelvin
 Total                  126.664             36.463             95.454
 Electronic               0.000              0.000              0.000
 Translational            0.889              2.981             40.637
 Rotational               0.889              2.981             29.762
 Vibrational            124.886             30.502             25.055
 Vibration     1          0.599              1.965              3.996
 Vibration     2          0.610              1.930              3.063
 Vibration     3          0.614              1.916              2.836
 Vibration     4          0.615              1.911              2.780
 Vibration     5          0.660              1.772              1.770
 Vibration     6          0.666              1.752              1.687
 Vibration     7          0.707              1.633              1.303
 Vibration     8          0.725              1.582              1.181
 Vibration     9          0.759              1.488              0.995
 Vibration    10          0.807              1.366              0.803
 Vibration    11          0.819              1.335              0.762
 Vibration    12          0.888              1.178              0.581
 Vibration    13          0.901              1.148              0.552
 Vibration    14          0.923              1.103              0.510

 Optimization completed.
    -- Stationary point found.

 1\1\GINC-NODE120\Freq\RB3LYP\6-31G(d)\C8H12N2\VSC10255\08-Dec-2020\0\\
 #N Geom=AllCheck Guess=TCheck SCRF=Check GenChk RB3LYP/6-31G(d) Freq\\
 CID_71435510_JID_229_neutraal\\0,1\C,0.3976487115,0.0680125309,-0.0953
 490373\N,0.5884423637,-1.3352440632,-0.420707769\C,0.918444592,-1.5851
 816395,-1.8317392549\C,1.3538044207,-3.0221504274,-2.0924713451\C,0.32
 57187357,-3.9910311774,-1.5125049874\C,0.1872299493,-3.7316064445,-0.0
 103450895\C,-0.0986775,-2.2795437327,0.3113205155\C,-0.9355388259,-1.9
 424817083,1.3386151922\C,-1.5524136064,-2.9196604666,2.1584292027\N,-2

 Normal termination of Gaussian 16 at Tue Dec  8 10:28:11 2020.

 ----------------------------------------------------------------------
 # B3LYP/6-311++G(d,p) empiricaldispersion=gd3bj scf=xqc pop=npa geom=c
 heck
 ----------------------------------------------------------------------

 -------------------------------------
 CID_71435510_JID_229_Energie_neutraal
 -------------------------------------
 Structure from the checkpoint file:  "JID_229.chk"
 Charge =  0 Multiplicity = 1

 SCF Done:  E(RB3LYP) =  -421.712436548     A.U. after   15 cycles
 Normal termination of Gaussian 16 at Tue Dec  8 10:30:00 2020.

 ----------------------------------------------------------------------
 # B3LYP/6-311++G(d,p) empiricaldispersion=gd3bj scf=xqc pop=npa geom=c
 heck
 ----------------------------------------------------------------------

 -----------------------------------
 CID_71435510_JID_229_Energie_kation
 -----------------------------------
 Structure from the checkpoint file:  "JID_229.chk"
 Charge =  1 Multiplicity = 2

 SCF Done:  E(UB3LYP) =  -421.420349687     A.U. after   19 cycles
 Normal termination of Gaussian 16 at Tue Dec  8 10:35:09 2020.
 Gaussian 16:  ES64L-G16RevA.03 25-Dec-2016

 ----------------------------------
 CID_71435510_JID_229_Energie_anion
 ----------------------------------
 Structure from the checkpoint file:  "JID_229.chk"
 Charge = -1 Multiplicity = 2

                         Standard orientation:
 ---------------------------------------------------------------------
 Center     Atomic      Atomic             Coordinates (Angstroms)
 Number     Number       Type             X           Y           Z
 ---------------------------------------------------------------------
      1          6           0        0.738427    2.384505    0.043525
      2          7           0        0.830994    0.942031    0.192147
      3          6           0        2.115245    0.374376   -0.244712
      4          6           0        2.279979   -1.088906    0.147806
      5          6           0        1.060040   -1.889363   -0.302826
      6          6           0       -0.193814   -1.293847    0.342292
      7          6           0       -0.324970    0.196351    0.106058
      8          6           0       -1.550774    0.767162   -0.096086
      9          6           0       -2.747284    0.008650   -0.073028
     10          7           0       -3.738622   -0.607193   -0.064340
     11          1           0       -0.002457    2.784255    0.741566
     12          1           0        0.456473    2.687070   -0.977520
     13          1           0        1.708827    2.827172    0.280503
     14          1           0        2.211769    0.475556   -1.339685
     15          1           0        2.909165    0.979963    0.204478
     16          1           0        2.388643   -1.164880    1.237337
     17          1           0        3.202739   -1.472761   -0.301678
     18          1           0        1.156172   -2.944802   -0.026901
     19          1           0        0.971541   -1.848092   -1.396815
     20          1           0       -0.145110   -1.456275    1.428582
     21          1           0       -1.098172   -1.793605   -0.010234
     22          1           0       -1.667289    1.828970   -0.272457
 ---------------------------------------------------------------------

 SCF Done:  E(UB3LYP) =  -421.706137264     A.U. after   29 cycles

 The electronic state is 2-A.
 Alpha  occ. eigenvalues --  -14.23713 -14.18050 -10.11786 -10.09668 -10.09523
 Alpha  occ. eigenvalues --  -10.08689 -10.07170 -10.06751 -10.06692 -10.06469
 Alpha  occ. eigenvalues --   -0.85583  -0.78041  -0.70756  -0.69130  -0.61565
 Alpha  occ. eigenvalues --   -0.60092  -0.54611  -0.50442  -0.44493  -0.40958
 Alpha  occ. eigenvalues --   -0.39407  -0.36978  -0.35736  -0.33872  -0.32781
 Alpha  occ. eigenvalues --   -0.31552  -0.30616  -0.28654  -0.28001  -0.24736
 Alpha  occ. eigenvalues --   -0.24506  -0.23548  -0.23139  -0.22842  -0.20732
 Alpha  occ. eigenvalues --   -0.18670  -0.10624   0.04255
 Alpha virt. eigenvalues --    0.07081   0.07968   0.08352   0.08808   0.10116
 Alpha virt. eigenvalues --    0.10694   0.10888   0.11688   0.11992   0.13171
 Alpha virt. eigenvalues --    0.13644   0.14220   0.14883   0.15022   0.16401

  Beta  occ. eigenvalues --  -14.23722 -14.17991 -10.11663 -10.09611 -10.09482
  Beta  occ. eigenvalues --  -10.08686 -10.07170 -10.06723 -10.06656 -10.06433
  Beta  occ. eigenvalues --   -0.85513  -0.77953  -0.70694  -0.68998  -0.61476
  Beta  occ. eigenvalues --   -0.59985  -0.54518  -0.50302  -0.44364  -0.40864
  Beta  occ. eigenvalues --   -0.39338  -0.36926  -0.35653  -0.33776  -0.32705
  Beta  occ. eigenvalues --   -0.31490  -0.30561  -0.28563  -0.27891  -0.24522
  Beta  occ. eigenvalues --   -0.24409  -0.23466  -0.23075  -0.22765  -0.20683
  Beta  occ. eigenvalues --   -0.18412  -0.10369
  Beta virt. eigenvalues --    0.06989   0.07842   0.09038   0.09200   0.09396
  Beta virt. eigenvalues --    0.10686   0.11088   0.11293   0.12198   0.12375
  Beta virt. eigenvalues --    0.13575   0.13927   0.14511   0.15034   0.15149

 Mulliken charges and spin densities:
               1          2
     1  C    0.552537  -0.868478
     2  N   -0.144148   0.343980
     3  C    1.357929  -1.649818
     4  C    0.183596  -0.597920
     5  C   -0.396224   0.190516
     6  C   -0.157456  -0.289329
     7  C    0.059589  -0.237324
     8  C    0.607043   0.629270
     9  C   -0.211583  -1.016857
    10  N   -0.333449   0.044510
    11  H   -0.126878   0.267700
    12  H   -0.120908   0.270731
    13  H   -0.667193   0.821645
    14  H   -0.307877   0.489916
    15  H   -0.402827   0.565888
    16  H   -0.129215   0.287771
    17  H   -0.620561   0.789658
    18  H   -0.234704   0.398144
    19  H   -0.011360   0.140787
    20  H   -0.113265   0.289468
    21  H    0.190214  -0.028330
    22  H    0.026741   0.158069
 Sum of Mulliken charges =  -1.00000   1.00000

 Dipole moment (field-independent basis, Debye):
    X=             -1.6427    Y=             -0.2236    Z=              0.0398  Tot=              1.6583
 Quadrupole moment (field-independent basis, Debye-Ang):
   XX=           -135.1494   YY=            -96.5693   ZZ=            -87.4639
   XY=             -8.0946   XZ=              1.2103   YZ=              0.2083

 Summary of Natural Population Analysis:

                                       Natural Population
                Natural  -----------------------------------------------
    Atom  No    Charge         Core      Valence    Rydberg      Total
 -----------------------------------------------------------------------
      C    1   -0.17840      0.99964     2.16989    0.00886     3.17840
      N    2   -0.24554      0.99965     2.73404    0.01185     3.74554
      C    3   -0.07556      0.99960     2.06437    0.01159     3.07556
      C    4   -0.19483      0.99963     2.18625    0.00895     3.19483
      C    5   -0.18552      0.99963     2.17715    0.00874     3.18552
      C    6   -0.21078      0.99959     2.20240    0.00879     3.21078
      C    7    0.17036      0.99949     1.81816    0.01198     2.82964
      C    8   -0.23434      0.99941     2.22739    0.00754     3.23434
      C    9    0.14655      0.99966     1.83615    0.01764     2.85345
      N   10   -0.20944      0.99979     2.69889    0.01075     3.70944
      H   11    0.09869      0.00000     0.40007    0.00125     0.40131
      H   12    0.09182      0.00000     0.40648    0.00170     0.40818
      H   13    0.10326      0.00000     0.39523    0.00151     0.39674
      H   14    0.08914      0.00000     0.40788    0.00298     0.41086
      H   15    0.10201      0.00000     0.39464    0.00335     0.39799
      H   16    0.09782      0.00000     0.40022    0.00196     0.40218
      H   17    0.10468      0.00000     0.39349    0.00184     0.39532
      H   18    0.10084      0.00000     0.39808    0.00108     0.39916
      H   19    0.09594      0.00000     0.40272    0.00134     0.40406
      H   20    0.10782      0.00000     0.39060    0.00158     0.39218
      H   21    0.11156      0.00000     0.38743    0.00101     0.38844
      H   22    0.11392      0.00000     0.38456    0.00152     0.38608
 =======================================================================
   * Total *    0.00000      9.99608    26.87611    0.12782    37.00000

 Normal termination of Gaussian 16 at Tue Dec  8 10:42:05 2020.
