 Gaussian 16, Revision A.03,

 -----------------------------------------------------------
 # opt freq B3LYP/6-31G(d) empiricaldispersion=gd3bj scf=xqc
 -----------------------------------------------------------

 ------------------------------
 CID_63986248_JID_9358_neutraal
 ------------------------------
 Symbolic Z-matrix:
 Charge =  0 Multiplicity = 1

 SCF Done:  E(RB3LYP) =  -802.690284788     A.U. after   14 cycles
 SCF Done:  E(RB3LYP) =  -802.685315987     A.U. after   14 cycles
 SCF Done:  E(RB3LYP) =  -802.698978189     A.U. after   12 cycles
 SCF Done:  E(RB3LYP) =  -802.697016977     A.U. after   13 cycles
 SCF Done:  E(RB3LYP) =  -802.699678836     A.U. after   13 cycles
 SCF Done:  E(RB3LYP) =  -802.700387114     A.U. after   12 cycles
 SCF Done:  E(RB3LYP) =  -802.700308717     A.U. after   12 cycles
 SCF Done:  E(RB3LYP) =  -802.700517724     A.U. after   12 cycles
 SCF Done:  E(RB3LYP) =  -802.700560895     A.U. after   11 cycles
 SCF Done:  E(RB3LYP) =  -802.700597774     A.U. after   11 cycles
 SCF Done:  E(RB3LYP) =  -802.702198645     A.U. after   10 cycles
 SCF Done:  E(RB3LYP) =  -802.702198994     A.U. after    9 cycles
 SCF Done:  E(RB3LYP) =  -802.702199508     A.U. after    9 cycles
 SCF Done:  E(RB3LYP) =  -802.702199630     A.U. after    7 cycles
 SCF Done:  E(RB3LYP) =  -802.702199641     A.U. after    6 cycles
 Optimization completed.
    -- Stationary point found.
 Normal termination of Gaussian 16 at Sat Dec 12 10:26:02 2020.

 --------------------------------------------------------------------
 #N Geom=AllCheck Guess=TCheck SCRF=Check GenChk RB3LYP/6-31G(d) Freq
 --------------------------------------------------------------------

 Structure from the checkpoint file:  "JID_9358.chk"
 ------------------------------
 CID_63986248_JID_9358_neutraal
 ------------------------------
 Charge =  0 Multiplicity = 1

 SCF Done:  E(RB3LYP) =  -802.702199641     A.U. after    1 cycles

  Exact polarizability: 202.886  15.573 137.772   8.221 -22.303 161.166
 Approx polarizability: 313.192  35.743 212.380  20.797 -53.966 282.746

                      1                      2                      3
                      A                      A                      A
 Frequencies --     44.4647                68.3257                81.0291
 Red. masses --      4.1684                 4.3512                 2.7003
 Frc consts  --      0.0049                 0.0120                 0.0104
 IR Inten    --      0.5533                 0.3660                 0.1321

                      4                      5                      6
                      A                      A                      A
 Frequencies --     81.8988                93.2128                94.8317
 Red. masses --      3.2117                 4.6631                 4.1744
 Frc consts  --      0.0127                 0.0239                 0.0221
 IR Inten    --      0.8238                 0.1516                 0.4731

                      7                      8                      9
                      A                      A                      A
 Frequencies --    122.0654               138.6921               175.7728
 Red. masses --      1.2562                 2.9702                 4.5048
 Frc consts  --      0.0110                 0.0337                 0.0820
 IR Inten    --      0.2695                 7.2128                 3.7546

                     10                     11                     12
                      A                      A                      A
 Frequencies --    209.5950               228.1183               233.4221
 Red. masses --      1.8517                 2.4104                 2.7093
 Frc consts  --      0.0479                 0.0739                 0.0870
 IR Inten    --     12.0195                 7.5229                 1.3288

                     13                     14                     15
                      A                      A                      A
 Frequencies --    239.2828               251.6612               282.5816
 Red. masses --      1.4891                 1.8103                 3.8924
 Frc consts  --      0.0502                 0.0676                 0.1831
 IR Inten    --      6.7615                31.9017                 1.9006

                     16                     17                     18
                      A                      A                      A
 Frequencies --    296.7233               315.0645               356.9933
 Red. masses --      4.3054                 2.3389                 2.5527
 Frc consts  --      0.2233                 0.1368                 0.1917
 IR Inten    --      5.0764                 3.6605                 1.2351

                     19                     20                     21
                      A                      A                      A
 Frequencies --    368.0026               384.2071               402.6953
 Red. masses --      3.4961                 3.1040                 3.1128
 Frc consts  --      0.2790                 0.2700                 0.2974
 IR Inten    --      0.2947                 2.6472                 2.2732

                     22                     23                     24
                      A                      A                      A
 Frequencies --    419.9766               453.5516               523.8851
 Red. masses --      2.5844                 3.0219                 3.5866
 Frc consts  --      0.2686                 0.3663                 0.5800
 IR Inten    --      0.5295                 3.6985                 4.5757

                     25                     26                     27
                      A                      A                      A
 Frequencies --    534.8700               566.8721               594.5590
 Red. masses --      4.8690                 3.2007                 3.6854
 Frc consts  --      0.8207                 0.6060                 0.7676
 IR Inten    --      0.2394                 5.9280                10.6756

                     28                     29                     30
                      A                      A                      A
 Frequencies --    633.4273               679.5274               708.5828
 Red. masses --      4.8986                 6.8054                 2.7893
 Frc consts  --      1.1580                 1.8515                 0.8251
 IR Inten    --      4.1977                12.4057                11.6286

                     31                     32                     33
                      A                      A                      A
 Frequencies --    723.7103               761.9735               780.7774
 Red. masses --      3.6365                 3.3532                 3.2931
 Frc consts  --      1.1222                 1.1471                 1.1828
 IR Inten    --      3.9142                 4.3726                 6.2991

                     34                     35                     36
                      A                      A                      A
 Frequencies --    796.8282               825.4462               837.5586
 Red. masses --      1.8199                 2.2769                 3.4029
 Frc consts  --      0.6808                 0.9140                 1.4065
 IR Inten    --     39.5707                25.1975                 6.3164

                     37                     38                     39
                      A                      A                      A
 Frequencies --    880.5689               897.4987               907.4107
 Red. masses --      1.5026                 1.3940                 1.4776
 Frc consts  --      0.6865                 0.6616                 0.7168
 IR Inten    --     19.0863                13.0462                43.6587

                     40                     41                     42
                      A                      A                      A
 Frequencies --    918.4246               953.9975               958.0799
 Red. masses --      1.4086                 2.6546                 2.5670
 Frc consts  --      0.7000                 1.4234                 1.3883
 IR Inten    --      7.8696                 1.5017                16.2465

                     43                     44                     45
                      A                      A                      A
 Frequencies --    968.6753               985.0404              1004.5377
 Red. masses --      1.2833                 1.3879                 1.9067
 Frc consts  --      0.7095                 0.7934                 1.1336
 IR Inten    --      0.0182                 0.5778                19.5907

                     46                     47                     48
                      A                      A                      A
 Frequencies --   1013.8532              1020.5837              1021.2286
 Red. masses --      2.5190                 2.3139                 2.0771
 Frc consts  --      1.5256                 1.4200                 1.2763
 IR Inten    --      1.9786                 5.7923                 9.8823

                     49                     50                     51
                      A                      A                      A
 Frequencies --   1023.8154              1041.2893              1072.0100
 Red. masses --      5.0984                 1.6066                 1.8369
 Frc consts  --      3.1487                 1.0263                 1.2438
 IR Inten    --      1.8878                 0.7623                26.1399

                     52                     53                     54
                      A                      A                      A
 Frequencies --   1081.8814              1112.8337              1132.2560
 Red. masses --      1.5205                 1.6470                 1.8095
 Frc consts  --      1.0486                 1.2018                 1.3668
 IR Inten    --     11.7879                10.9469                11.0175

                     55                     56                     57
                      A                      A                      A
 Frequencies --   1133.6403              1158.2100              1171.8517
 Red. masses --      2.3047                 1.4273                 2.4801
 Frc consts  --      1.7451                 1.1280                 2.0067
 IR Inten    --      3.3969                15.8435                20.9221

                     58                     59                     60
                      A                      A                      A
 Frequencies --   1189.9975              1196.4654              1204.7619
 Red. masses --      1.6160                 1.7477                 1.7072
 Frc consts  --      1.3483                 1.4741                 1.4599
 IR Inten    --      5.7430                 5.2582                 5.3005

                     61                     62                     63
                      A                      A                      A
 Frequencies --   1208.0062              1234.1102              1267.3764
 Red. masses --      1.1430                 3.3896                 2.0516
 Frc consts  --      0.9827                 3.0416                 1.9416
 IR Inten    --      0.8726                 3.7346                12.8076

                     64                     65                     66
                      A                      A                      A
 Frequencies --   1279.2019              1296.0022              1301.7196
 Red. masses --      2.0582                 2.4102                 2.2998
 Frc consts  --      1.9844                 2.3852                 2.2960
 IR Inten    --      5.3369                11.8874                 4.5056

                     67                     68                     69
                      A                      A                      A
 Frequencies --   1313.7382              1353.1771              1361.7142
 Red. masses --      1.6987                 1.3484                 1.4799
 Frc consts  --      1.7274                 1.4547                 1.6168
 IR Inten    --      4.2206                 2.0560                 4.0761

                     70                     71                     72
                      A                      A                      A
 Frequencies --   1370.1096              1396.7189              1411.5353
 Red. masses --      3.7950                 1.3651                 1.3800
 Frc consts  --      4.1973                 1.5690                 1.6199
 IR Inten    --      2.1160                17.7757                 5.1033

                     73                     74                     75
                      A                      A                      A
 Frequencies --   1432.0322              1434.1339              1440.9709
 Red. masses --      1.6727                 1.4821                 1.2634
 Frc consts  --      2.0211                 1.7960                 1.5456
 IR Inten    --     44.2688                28.2003                 5.0951

                     76                     77                     78
                      A                      A                      A
 Frequencies --   1446.5924              1483.9646              1491.2951
 Red. masses --      1.3848                 2.1074                 1.2321
 Frc consts  --      1.7073                 2.7343                 1.6145
 IR Inten    --      2.1237                 4.2392                 2.9423

                     79                     80                     81
                      A                      A                      A
 Frequencies --   1512.9134              1515.5535              1517.3663
 Red. masses --      1.0893                 1.5854                 1.2301
 Frc consts  --      1.4690                 2.1455                 1.6687
 IR Inten    --     11.0407                10.1325                11.8457

                     82                     83                     84
                      A                      A                      A
 Frequencies --   1525.3875              1529.7803              1537.3665
 Red. masses --      1.0797                 1.3650                 1.1013
 Frc consts  --      1.4802                 1.8821                 1.5336
 IR Inten    --      9.9695                 6.0563                 4.7325

                     85                     86                     87
                      A                      A                      A
 Frequencies --   1546.1579              1549.5066              1606.5402
 Red. masses --      1.6819                 1.1239                 5.9285
 Frc consts  --      2.3690                 1.5899                 9.0153
 IR Inten    --     11.7735                 2.5944                37.4779

                     88                     89                     90
                      A                      A                      A
 Frequencies --   1636.6722              1653.2951              1671.5010
 Red. masses --      5.7652                 5.4858                 5.6589
 Frc consts  --      9.0989                 8.8347                 9.3152
 IR Inten    --    112.3002                 2.5119                12.0623

                     91                     92                     93
                      A                      A                      A
 Frequencies --   1697.6020              2931.6110              2939.6363
 Red. masses --      1.0895                 1.0676                 1.0692
 Frc consts  --      1.8500                 5.4058                 5.4436
 IR Inten    --     43.1992                20.1649               168.9725

                     94                     95                     96
                      A                      A                      A
 Frequencies --   2982.1848              3033.7302              3046.4096
 Red. masses --      1.0718                 1.0843                 1.0364
 Frc consts  --      5.6159                 5.8794                 5.6672
 IR Inten    --     97.7079                32.7515                24.8929

                     97                     98                     99
                      A                      A                      A
 Frequencies --   3051.1007              3071.7992              3074.0285
 Red. masses --      1.0842                 1.0866                 1.0725
 Frc consts  --      5.9465                 6.0408                 5.9710
 IR Inten    --     14.6564                45.6900                31.0958

                    100                    101                    102
                      A                      A                      A
 Frequencies --   3104.5749              3122.4326              3126.1795
 Red. masses --      1.1011                 1.1029                 1.1018
 Frc consts  --      6.2529                 6.3356                 6.3445
 IR Inten    --     17.7942                29.7612                14.1601

                    103                    104                    105
                      A                      A                      A
 Frequencies --   3174.2528              3175.8232              3179.4712
 Red. masses --      1.0861                 1.0886                 1.0928
 Frc consts  --      6.4478                 6.4689                 6.5087
 IR Inten    --      4.7443                40.2608                15.1533

                    106                    107                    108
                      A                      A                      A
 Frequencies --   3188.1608              3196.2798              3203.3026
 Red. masses --      1.0901                 1.0901                 1.0959
 Frc consts  --      6.5284                 6.5614                 6.6252
 IR Inten    --     26.8872                 7.0969                23.4088

                    109                    110                    111
                      A                      A                      A
 Frequencies --   3251.1700              3480.0282              3568.6488
 Red. masses --      1.0942                 1.0513                 1.0911
 Frc consts  --      6.8146                 7.5011                 8.1871
 IR Inten    --      8.7300                 1.8271                 0.2960

 - Thermochemistry -
 -------------------
 Temperature   298.150 Kelvin.  Pressure   1.00000 Atm.
 Atom     1 has atomic number  6 and mass  12.00000

 Molecular mass:   256.16880 amu.
 Principal axes and moments of inertia in atomic units:
                           1         2         3
     Eigenvalues --  3293.789094935.587605705.43587
           X            0.99995   0.00777  -0.00579
           Y           -0.00789   0.99974  -0.02154
           Z            0.00562   0.02158   0.99975
 This molecule is an asymmetric top.
 Rotational symmetry number  1.
 Warning -- assumption of classical behavior for rotation
           may cause significant error
 Rotational temperatures (Kelvin)      0.02630     0.01755     0.01518
 Rotational constants (GHZ):           0.54792     0.36566     0.31632
 Zero-point vibrational energy     880941.8 (Joules/Mol)
                                  210.55014 (Kcal/Mol)
 Warning -- explicit consideration of  27 degrees of freedom as
           vibrations may cause significant error
 Vibrational temperatures:     63.97    98.31   116.58   117.83   134.11
          (Kelvin)            136.44   175.62   199.55   252.90   301.56
                              328.21   335.84   344.27   362.08   406.57
                              426.92   453.31   513.63   529.47   552.79
                              579.39   604.25   652.56   753.75   769.56
                              815.60   855.44   911.36   977.69  1019.49
                             1041.26  1096.31  1123.36  1146.46  1187.63
                             1205.06  1266.94  1291.30  1305.56  1321.41
                             1372.59  1378.46  1393.71  1417.25  1445.31
                             1458.71  1468.39  1469.32  1473.04  1498.18
                             1542.38  1556.59  1601.12  1629.06  1631.06
                             1666.41  1686.03  1712.14  1721.45  1733.38
                             1738.05  1775.61  1823.47  1840.49  1864.66
                             1872.88  1890.18  1946.92  1959.20  1971.28
                             2009.57  2030.88  2060.37  2063.40  2073.24
                             2081.32  2135.09  2145.64  2176.75  2180.54
                             2183.15  2194.69  2201.01  2211.93  2224.58
                             2229.39  2311.45  2354.81  2378.72  2404.92
                             2442.47  4217.93  4229.48  4290.70  4364.86
                             4383.10  4389.85  4419.63  4422.84  4466.79
                             4492.48  4497.88  4567.04  4569.30  4574.55
                             4587.05  4598.73  4608.84  4677.71  5006.98
                             5134.49

 Zero-point correction=                           0.335533 (Hartree/Particle)
 Thermal correction to Energy=                    0.353336
 Thermal correction to Enthalpy=                  0.354280
 Thermal correction to Gibbs Free Energy=         0.290466
 Sum of electronic and zero-point Energies=           -802.366667
 Sum of electronic and thermal Energies=              -802.348864
 Sum of electronic and thermal Enthalpies=            -802.347919
 Sum of electronic and thermal Free Energies=         -802.411734

                     E (Thermal)             CV                S
                      KCal/Mol        Cal/Mol-Kelvin    Cal/Mol-Kelvin
 Total                  221.722             68.738            134.309
 Electronic               0.000              0.000              0.000
 Translational            0.889              2.981             42.522
 Rotational               0.889              2.981             32.895
 Vibrational            219.944             62.777             58.892
 Vibration     1          0.595              1.980              5.050
 Vibration     2          0.598              1.969              4.201
 Vibration     3          0.600              1.962              3.866
 Vibration     4          0.600              1.962              3.845
 Vibration     5          0.602              1.954              3.591
 Vibration     6          0.603              1.953              3.558
 Vibration     7          0.610              1.931              3.067
 Vibration     8          0.614              1.915              2.822
 Vibration     9          0.628              1.872              2.373
 Vibration    10          0.642              1.826              2.047
 Vibration    11          0.651              1.798              1.894
 Vibration    12          0.654              1.790              1.852
 Vibration    13          0.657              1.780              1.808
 Vibration    14          0.664              1.760              1.719
 Vibration    15          0.682              1.706              1.518
 Vibration    16          0.690              1.680              1.435
 Vibration    17          0.702              1.645              1.336
 Vibration    18          0.732              1.561              1.135
 Vibration    19          0.741              1.538              1.088
 Vibration    20          0.753              1.504              1.023
 Vibration    21          0.768              1.464              0.953
 Vibration    22          0.783              1.427              0.892
 Vibration    23          0.812              1.353              0.785
 Vibration    24          0.879              1.197              0.601
 Vibration    25          0.890              1.173              0.576
 Vibration    26          0.923              1.103              0.510
 Vibration    27          0.952              1.043              0.459

 Optimization completed.
    -- Stationary point found.
 Normal termination of Gaussian 16 at Sat Dec 12 10:49:32 2020.

 ----------------------------------------------------------------------
 # B3LYP/6-311++G(d,p) empiricaldispersion=gd3bj scf=xqc pop=npa geom=c
 heck
 ----------------------------------------------------------------------

 --------------------------------------
 CID_63986248_JID_9358_Energie_neutraal
 --------------------------------------
 Structure from the checkpoint file:  "JID_9358.chk"
 Charge =  0 Multiplicity = 1

 SCF Done:  E(RB3LYP) =  -802.918191233     A.U. after   16 cycles
 Normal termination of Gaussian 16 at Sat Dec 12 11:00:18 2020.

 ----------------------------------------------------------------------
 # B3LYP/6-311++G(d,p) empiricaldispersion=gd3bj scf=xqc pop=npa geom=c
 heck
 ----------------------------------------------------------------------

 ------------------------------------
 CID_63986248_JID_9358_Energie_kation
 ------------------------------------
 Structure from the checkpoint file:  "JID_9358.chk"
 Charge =  1 Multiplicity = 2

 SCF Done:  E(UB3LYP) =  -802.635731667     A.U. after   30 cycles
 Normal termination of Gaussian 16 at Sat Dec 12 11:28:07 2020.
 Gaussian 16:  ES64L-G16RevA.03 25-Dec-2016

 ----------------------------------------------------------------------
 # B3LYP/6-311++G(d,p) empiricaldispersion=gd3bj scf=xqc pop=npa geom=c
 heck
 ----------------------------------------------------------------------

 -----------------------------------
 CID_63986248_JID_9358_Energie_anion
 -----------------------------------
 Structure from the checkpoint file:  "JID_9358.chk"
 Charge = -1 Multiplicity = 2

                         Standard orientation:
 ---------------------------------------------------------------------
 Center     Atomic      Atomic             Coordinates (Angstroms)
 Number     Number       Type             X           Y           Z
 ---------------------------------------------------------------------
      1          6           0        3.432619   -0.197906   -1.447264
      2          6           0        2.368942   -0.918961   -0.657339
      3          6           0        1.048643   -0.969149   -1.104476
      4          6           0        0.039843   -1.564913   -0.338404
      5          6           0        0.371136   -2.160178    0.878312
      6          6           0        1.691093   -2.139330    1.331225
      7          6           0        2.679074   -1.515861    0.574305
      8          6           0       -1.384844   -1.567734   -0.842283
      9          7           0       -1.914871   -0.250943   -1.197358
     10          6           0       -3.154127   -0.373232   -1.947712
     11          6           0       -1.972133    0.818938   -0.182664
     12          6           0       -2.905122    0.600245    1.028944
     13          7           0       -2.496541   -0.465153    1.955687
     14          6           0       -0.581118    1.340475    0.159313
     15          7           0       -0.019581    2.092769   -0.804660
     16          6           0        1.210637    2.548135   -0.569770
     17          7           0        1.959291    2.342282    0.519966
     18          6           0        1.373287    1.615001    1.480305
     19          6           0        0.086354    1.098989    1.360275
     20          1           0        4.363326   -0.775067   -1.490795
     21          1           0        3.103601   -0.002684   -2.472613
     22          1           0        3.662325    0.768105   -0.981092
     23          1           0        0.777030   -0.488909   -2.040284
     24          1           0       -0.407008   -2.612611    1.486087
     25          1           0        1.945225   -2.598660    2.282807
     26          1           0        3.703443   -1.485718    0.938326
     27          1           0       -1.423056   -2.155782   -1.769453
     28          1           0       -2.026174   -2.118385   -0.128272
     29          1           0       -3.989065   -0.824015   -1.376583
     30          1           0       -3.475721    0.614074   -2.293759
     31          1           0       -2.983542   -1.002331   -2.828374
     32          1           0       -2.424805    1.657590   -0.725449
     33          1           0       -2.916076    1.539250    1.595609
     34          1           0       -3.927631    0.464289    0.638748
     35          1           0       -3.048557   -0.393829    2.808713
     36          1           0       -2.712101   -1.375053    1.557345
     37          1           0        1.659013    3.154054   -1.355398
     38          1           0        1.963875    1.430721    2.375607
     39          1           0       -0.367904    0.485168    2.126785
 ---------------------------------------------------------------------

 SCF Done:  E(UB3LYP) =  -802.911483046     A.U. after   33 cycles
 SCF Done:  E(UB3LYP) =  -802.911483047     a.u. after    1 cycles

 The electronic state is 2-A.
 Alpha  occ. eigenvalues --  -14.19880 -14.18385 -14.18362 -14.18361 -10.11148
 Alpha  occ. eigenvalues --  -10.09331 -10.09013 -10.08689 -10.08670 -10.08354
 Alpha  occ. eigenvalues --  -10.08318 -10.07760 -10.07108 -10.07017 -10.06750
 Alpha  occ. eigenvalues --  -10.06564 -10.06306 -10.05983 -10.05162  -0.85813
 Alpha  occ. eigenvalues --   -0.82099  -0.77102  -0.76150  -0.75359  -0.67773
 Alpha  occ. eigenvalues --   -0.67078  -0.65481  -0.62313  -0.59227  -0.58224
 Alpha  occ. eigenvalues --   -0.54528  -0.52709  -0.52468  -0.49688  -0.47622
 Alpha  occ. eigenvalues --   -0.45203  -0.41025  -0.40046  -0.39780  -0.38087
 Alpha  occ. eigenvalues --   -0.36868  -0.36526  -0.34429  -0.34317  -0.33604
 Alpha  occ. eigenvalues --   -0.33251  -0.32863  -0.32291  -0.30707  -0.30197
 Alpha  occ. eigenvalues --   -0.29646  -0.29191  -0.28625  -0.28468  -0.27198
 Alpha  occ. eigenvalues --   -0.26506  -0.25748  -0.24476  -0.24065  -0.23552
 Alpha  occ. eigenvalues --   -0.22953  -0.19117  -0.17798  -0.15971  -0.14315
 Alpha  occ. eigenvalues --   -0.14043  -0.13492  -0.12814  -0.10489   0.04433
 Alpha virt. eigenvalues --    0.06302   0.07386   0.07557   0.08007   0.08645
 Alpha virt. eigenvalues --    0.08674   0.09130   0.09568   0.09793   0.10071
 Alpha virt. eigenvalues --    0.10306   0.10787   0.11397   0.11445   0.12046

  Beta  occ. eigenvalues --  -14.19839 -14.18315 -14.18298 -14.18222 -10.11168
  Beta  occ. eigenvalues --  -10.09315 -10.09031 -10.08566 -10.08432 -10.08324
  Beta  occ. eigenvalues --  -10.08296 -10.07767 -10.07086 -10.07027 -10.06748
  Beta  occ. eigenvalues --  -10.06509 -10.06286 -10.05967 -10.05213  -0.85601
  Beta  occ. eigenvalues --   -0.82026  -0.77019  -0.75870  -0.75302  -0.67718
  Beta  occ. eigenvalues --   -0.66902  -0.65429  -0.62219  -0.59177  -0.58170
  Beta  occ. eigenvalues --   -0.54424  -0.52656  -0.52156  -0.49645  -0.47560
  Beta  occ. eigenvalues --   -0.45117  -0.40954  -0.40003  -0.39645  -0.37985
  Beta  occ. eigenvalues --   -0.36817  -0.36431  -0.34360  -0.34223  -0.33560
  Beta  occ. eigenvalues --   -0.33191  -0.32782  -0.32221  -0.30688  -0.29988
  Beta  occ. eigenvalues --   -0.29562  -0.29067  -0.28582  -0.28297  -0.27159
  Beta  occ. eigenvalues --   -0.26432  -0.25644  -0.24375  -0.23928  -0.23505
  Beta  occ. eigenvalues --   -0.22903  -0.18296  -0.17610  -0.15588  -0.14234
  Beta  occ. eigenvalues --   -0.13895  -0.13218  -0.12686  -0.10420
  Beta virt. eigenvalues --    0.06887   0.07450   0.07904   0.07967   0.08370
  Beta virt. eigenvalues --    0.08897   0.09078   0.09278   0.09663   0.10077
  Beta virt. eigenvalues --    0.10210   0.10493   0.10949   0.11551   0.11703

 Mulliken charges and spin densities:
               1          2
     1  C   -0.770080   0.026280
     2  C    0.459303   0.079768
     3  C   -1.040173   0.277996
     4  C   -0.479483   1.262098
     5  C   -0.120017  -0.122850
     6  C   -0.372092  -0.236570
     7  C   -0.022426   0.080476
     8  C    1.400247  -1.936665
     9  N    0.098524   0.086371
    10  C    0.582797  -0.814686
    11  C   -0.909798   0.714962
    12  C    0.987846  -1.739531
    13  N   -0.477930   0.046294
    14  C   -0.615596   0.376880
    15  N    0.032155   0.020654
    16  C    0.036544  -0.069139
    17  N   -0.061723   0.090069
    18  C   -0.682120  -0.034326
    19  C    0.470284   0.079180
    20  H    0.111453   0.012425
    21  H    0.123562   0.005882
    22  H    0.165626   0.015278
    23  H    0.171692   0.019760
    24  H   -0.134222   0.270874
    25  H    0.091456   0.055116
    26  H    0.155784  -0.007840
    27  H    0.099444   0.060014
    28  H   -0.247930   0.328638
    29  H   -0.178752   0.305110
    30  H   -0.040062   0.166789
    31  H    0.056849   0.070416
    32  H    0.134148   0.097311
    33  H   -0.198336   0.373334
    34  H   -0.288508   0.432611
    35  H   -0.266700   0.523810
    36  H    0.061488   0.150676
    37  H    0.149019   0.005608
    38  H    0.069520   0.069105
    39  H    0.448207  -0.142176
 Sum of Mulliken charges =  -1.00000   1.00000

 Dipole moment (field-independent basis, Debye):
    X=              5.3561    Y=             -1.2027    Z=             -2.7736  Tot=              6.1504
 Quadrupole moment (field-independent basis, Debye-Ang):
   XX=           -171.0551   YY=           -153.4116   ZZ=           -145.3602
   XY=             -7.9967   XZ=              9.3091   YZ=              0.3212

 Summary of Natural Population Analysis:

                                       Natural Population
                Natural  -----------------------------------------------
    Atom  No    Charge         Core      Valence    Rydberg      Total
 -----------------------------------------------------------------------
      C    1   -0.29400      0.99964     2.28973    0.00463     3.29400
      C    2   -0.01756      0.99951     2.00951    0.00855     3.01756
      C    3   -0.09197      0.99946     2.08264    0.00987     3.09197
      C    4   -0.01471      0.99949     2.00452    0.01069     3.01471
      C    5   -0.09675      0.99950     2.08757    0.00969     3.09675
      C    6   -0.10385      0.99957     2.09479    0.00949     3.10385
      C    7   -0.09406      0.99951     2.08650    0.00805     3.09406
      C    8   -0.08479      0.99956     2.07325    0.01197     3.08479
      N    9   -0.27196      0.99971     2.76024    0.01202     3.77196
      C   10   -0.17132      0.99964     2.16376    0.00792     3.17132
      C   11   -0.02426      0.99952     2.00800    0.01674     3.02426
      C   12   -0.09548      0.99960     2.08362    0.01225     3.09548
      N   13   -0.42813      0.99977     2.91612    0.01224     3.92813
      C   14    0.16213      0.99950     1.82232    0.01605     2.83787
      N   15   -0.24708      0.99968     2.73692    0.01048     3.74708
      C   16    0.13010      0.99966     1.85187    0.01837     2.86990
      N   17   -0.24210      0.99972     2.73064    0.01174     3.74210
      C   18    0.06045      0.99959     1.92469    0.01527     2.93955
      C   19   -0.15041      0.99948     2.14194    0.00899     3.15041
      H   20    0.09627      0.00000     0.40287    0.00086     0.40373
      H   21    0.09959      0.00000     0.39960    0.00081     0.40041
      H   22    0.11356      0.00000     0.38508    0.00135     0.38644
      H   23    0.10568      0.00000     0.39268    0.00164     0.39432
      H   24    0.10168      0.00000     0.39677    0.00155     0.39832
      H   25    0.09571      0.00000     0.40306    0.00123     0.40429
      H   26    0.09417      0.00000     0.40491    0.00093     0.40583
      H   27    0.09807      0.00000     0.40077    0.00116     0.40193
      H   28    0.07904      0.00000     0.41860    0.00236     0.42096
      H   29    0.08029      0.00000     0.41824    0.00147     0.41971
      H   30    0.09588      0.00000     0.40320    0.00091     0.40412
      H   31    0.09088      0.00000     0.40821    0.00090     0.40912
      H   32    0.10871      0.00000     0.38907    0.00222     0.39129
      H   33    0.09424      0.00000     0.40435    0.00140     0.40576
      H   34    0.08363      0.00000     0.41475    0.00162     0.41637
      H   35    0.17923      0.00000     0.31704    0.00373     0.32077
      H   36    0.17430      0.00000     0.32209    0.00361     0.32570
      H   37    0.07622      0.00000     0.42267    0.00111     0.42378
      H   38    0.08502      0.00000     0.41382    0.00117     0.41498
      H   39    0.12356      0.00000     0.37430    0.00214     0.37644
 =======================================================================
   * Total *    0.00000     18.99210    49.76071    0.24718    69.00000

 Normal termination of Gaussian 16 at Sat Dec 12 11:58:59 2020.
