 Gaussian 16, Revision A.03,

 -----------------------------------------------------------
 # opt freq B3LYP/6-31G(d) empiricaldispersion=gd3bj scf=xqc
 -----------------------------------------------------------

 ------------------------------
 CID_151755067_JID_880_neutraal
 ------------------------------
 Symbolic Z-matrix:
 Charge =  0 Multiplicity = 1

 SCF Done:  E(RB3LYP) =  -920.171738441     A.U. after   18 cycles
 SCF Done:  E(RB3LYP) =  -920.187872756     A.U. after   16 cycles
 SCF Done:  E(RB3LYP) =  -920.194415917     A.U. after   16 cycles
 SCF Done:  E(RB3LYP) =  -920.194331490     A.U. after   15 cycles
 SCF Done:  E(RB3LYP) =  -920.198261047     A.U. after   15 cycles
 SCF Done:  E(RB3LYP) =  -920.198837167     A.U. after   14 cycles
 SCF Done:  E(RB3LYP) =  -920.200348632     A.U. after   15 cycles
 SCF Done:  E(RB3LYP) =  -920.201638351     A.U. after   15 cycles
 SCF Done:  E(RB3LYP) =  -920.203816600     A.U. after   16 cycles
 SCF Done:  E(RB3LYP) =  -920.205273166     A.U. after   13 cycles
 SCF Done:  E(RB3LYP) =  -920.205871767     A.U. after   14 cycles
 SCF Done:  E(RB3LYP) =  -920.205908404     A.U. after   13 cycles
 SCF Done:  E(RB3LYP) =  -920.205924685     A.U. after   11 cycles
 SCF Done:  E(RB3LYP) =  -920.205927228     A.U. after   10 cycles
 SCF Done:  E(RB3LYP) =  -920.205927676     A.U. after    9 cycles
 SCF Done:  E(RB3LYP) =  -920.205927832     A.U. after    9 cycles
 Optimization completed.
    -- Stationary point found.
 Normal termination of Gaussian 16 at Tue Dec  8 13:17:32 2020.

 --------------------------------------------------------------------
 #N Geom=AllCheck Guess=TCheck SCRF=Check GenChk RB3LYP/6-31G(d) Freq
 --------------------------------------------------------------------

 Structure from the checkpoint file:  "JID_880.chk"
 ------------------------------
 CID_151755067_JID_880_neutraal
 ------------------------------
 Charge =  0 Multiplicity = 1

 SCF Done:  E(RB3LYP) =  -920.205927832     A.U. after    1 cycles

  Exact polarizability: 123.425   0.944  60.391   1.316   0.590  40.718
 Approx polarizability: 188.224  11.795 118.942  -1.036  -2.999  62.367

                      1                      2                      3
                      A                      A                      A
 Frequencies --     22.2833                56.7939                96.3637
 Red. masses --     11.5973                 7.9437                 9.8267
 Frc consts  --      0.0034                 0.0151                 0.0538
 IR Inten    --      1.4875                 1.2749                 0.3517

                      4                      5                      6
                      A                      A                      A
 Frequencies --    117.5234               134.3625               189.7437
 Red. masses --     11.5768                 5.6824                10.7683
 Frc consts  --      0.0942                 0.0604                 0.2284
 IR Inten    --      0.9452                 3.3377                 0.2738

                      7                      8                      9
                      A                      A                      A
 Frequencies --    234.8749               303.9293               359.5310
 Red. masses --      9.3807                13.5967                 6.7190
 Frc consts  --      0.3049                 0.7400                 0.5117
 IR Inten    --     32.5272                 2.6592                 9.9018

                     10                     11                     12
                      A                      A                      A
 Frequencies --    475.9357               497.4258               543.4586
 Red. masses --     10.9390                11.7752                 8.1537
 Frc consts  --      1.4599                 1.7166                 1.4188
 IR Inten    --      6.8488                30.7518                40.2147

                     13                     14                     15
                      A                      A                      A
 Frequencies --    582.6860               590.6988               628.5407
 Red. masses --      1.4254                11.3357                 1.4774
 Frc consts  --      0.2851                 2.3304                 0.3439
 IR Inten    --    233.6317                18.8720               268.1979

                     16                     17                     18
                      A                      A                      A
 Frequencies --    644.2918               802.8004               813.3660
 Red. masses --      8.5772                12.3938                12.2203
 Frc consts  --      2.0978                 4.7062                 4.7633
 IR Inten    --     52.5134                 4.1697                60.8221

                     19                     20                     21
                      A                      A                      A
 Frequencies --    893.8096               947.6896              1075.2798
 Red. masses --     12.7202                 4.2397                13.0717
 Frc consts  --      5.9874                 2.2434                 8.9048
 IR Inten    --      3.9249                22.4424               500.3643

                     22                     23                     24
                      A                      A                      A
 Frequencies --   1109.2674              1271.3311              1319.7886
 Red. masses --      1.1394                13.2151                12.9284
 Frc consts  --      0.8260                12.5846                13.2679
 IR Inten    --      8.2806               479.3362               136.8790

                     25                     26                     27
                      A                      A                      A
 Frequencies --   1657.6030              1803.8954              1809.2031
 Red. masses --      1.0935                13.2703                12.4417
 Frc consts  --      1.7703                25.4422                23.9942
 IR Inten    --     15.6090               220.1228               208.6913

                     28                     29                     30
                      A                      A                      A
 Frequencies --   2301.4940              3509.4410              3619.9600
 Red. masses --     13.9952                 1.0427                 1.1040
 Frc consts  --     43.6766                 7.5664                 8.5235
 IR Inten    --    477.4034                11.5121                36.6085

 - Thermochemistry -
 -------------------
 Temperature   298.150 Kelvin.  Pressure   1.00000 Atm.
 Atom     1 has atomic number  6 and mass  12.00000

 Molecular mass:   161.98476 amu.
 Principal axes and moments of inertia in atomic units:
                           1         2         3
     Eigenvalues --   433.863703587.148383894.49048
           X            0.99995   0.00709   0.00745
           Y           -0.00725   0.99975   0.02101
           Z           -0.00730  -0.02107   0.99975
 This molecule is an asymmetric top.
 Rotational symmetry number  1.
 Warning -- assumption of classical behavior for rotation
           may cause significant error
 Rotational temperatures (Kelvin)      0.19963     0.02415     0.02224
 Rotational constants (GHZ):           4.15970     0.50311     0.46341
 Zero-point vibrational energy     169949.7 (Joules/Mol)
                                   40.61895 (Kcal/Mol)
 Warning -- explicit consideration of  14 degrees of freedom as
           vibrations may cause significant error
 Vibrational temperatures:     32.06    81.71   138.65   169.09   193.32
          (Kelvin)            273.00   337.93   437.29   517.28   684.77
                              715.68   781.92   838.36   849.88   904.33
                              926.99  1155.05  1170.25  1285.99  1363.51
                             1547.09  1595.99  1829.16  1898.88  2384.92
                             2595.40  2603.04  3311.34  5049.30  5208.32

 Zero-point correction=                           0.064730 (Hartree/Particle)
 Thermal correction to Energy=                    0.074855
 Thermal correction to Enthalpy=                  0.075799
 Thermal correction to Gibbs Free Energy=         0.026863
 Sum of electronic and zero-point Energies=           -920.141197
 Sum of electronic and thermal Energies=              -920.131073
 Sum of electronic and thermal Enthalpies=            -920.130129
 Sum of electronic and thermal Free Energies=         -920.179065

                     E (Thermal)             CV                S
                      KCal/Mol        Cal/Mol-Kelvin    Cal/Mol-Kelvin
 Total                   46.972             33.529            102.996
 Electronic               0.000              0.000              0.000
 Translational            0.889              2.981             41.156
 Rotational               0.889              2.981             30.184
 Vibrational             45.195             27.567             31.656
 Vibration     1          0.593              1.985              6.420
 Vibration     2          0.596              1.975              4.566
 Vibration     3          0.603              1.952              3.527
 Vibration     4          0.608              1.935              3.141
 Vibration     5          0.613              1.919              2.883
 Vibration     6          0.633              1.854              2.230
 Vibration     7          0.655              1.787              1.841
 Vibration     8          0.695              1.666              1.395
 Vibration     9          0.734              1.556              1.124
 Vibration    10          0.833              1.303              0.721
 Vibration    11          0.853              1.256              0.665
 Vibration    12          0.899              1.154              0.558
 Vibration    13          0.940              1.069              0.480
 Vibration    14          0.948              1.052              0.466

 Optimization completed.
    -- Stationary point found.
 Normal termination of Gaussian 16 at Tue Dec  8 13:26:50 2020.

 ----------------------------------------------------------------------
 # B3LYP/6-311++G(d,p) empiricaldispersion=gd3bj scf=xqc pop=npa geom=c
 heck
 ----------------------------------------------------------------------

 --------------------------------------
 CID_151755067_JID_880_Energie_neutraal
 --------------------------------------
 Structure from the checkpoint file:  "JID_880.chk"
 Charge =  0 Multiplicity = 1

 SCF Done:  E(RB3LYP) =  -920.395658560     A.U. after   18 cycles
 Normal termination of Gaussian 16 at Tue Dec  8 13:28:37 2020.

 ----------------------------------------------------------------------
 # B3LYP/6-311++G(d,p) empiricaldispersion=gd3bj scf=xqc pop=npa geom=c
 heck
 ----------------------------------------------------------------------

 ------------------------------------
 CID_151755067_JID_880_Energie_kation
 ------------------------------------
 Structure from the checkpoint file:  "JID_880.chk"
 Charge =  1 Multiplicity = 2

 SCF Done:  E(UB3LYP) =  -920.044069722     A.U. after   26 cycles
 Normal termination of Gaussian 16 at Tue Dec  8 13:30:41 2020.
 Gaussian 16:  ES64L-G16RevA.03 25-Dec-2016

 ----------------------------------------------------------------------
 # B3LYP/6-311++G(d,p) empiricaldispersion=gd3bj scf=xqc pop=npa geom=c
 heck
 ----------------------------------------------------------------------

 -----------------------------------
 CID_151755067_JID_880_Energie_anion
 -----------------------------------
 Structure from the checkpoint file:  "JID_880.chk"
 Charge = -1 Multiplicity = 2

                         Standard orientation:
 ---------------------------------------------------------------------
 Center     Atomic      Atomic             Coordinates (Angstroms)
 Number     Number       Type             X           Y           Z
 ---------------------------------------------------------------------
      1          6           0       -1.196639   -0.363814    0.051695
      2          8           0       -1.471089   -1.509415    0.315632
      3          6           0        0.236855    0.170241   -0.134802
      4          8           0        0.487104    1.339350   -0.320428
      5          8           0        1.110878   -0.833598   -0.026585
      6         16           0        2.809803   -0.419982   -0.366947
      7          7           0        3.243201    0.762673    0.687122
      8          7           0       -2.121976    0.692755   -0.131472
      9          7           0       -3.317851    0.349458   -0.006845
     10          7           0       -4.429127    0.156717    0.082315
     11          1           0        3.356541    0.509195    1.663706
     12          1           0        2.810440    1.670037    0.539292
 ---------------------------------------------------------------------

 SCF Done:  E(UB3LYP) =  -920.435436200     A.U. after   24 cycles

 The electronic state is 2-A.
 Alpha  occ. eigenvalues --  -88.78960 -19.02904 -18.94674 -18.92695 -14.32465
 Alpha  occ. eigenvalues --  -14.23504 -14.23185 -14.21108 -10.12860 -10.09810
 Alpha  occ. eigenvalues --   -7.86942  -5.83604  -5.83069  -5.82029  -0.99586
 Alpha  occ. eigenvalues --   -0.95277  -0.88474  -0.86591  -0.81813  -0.80928
 Alpha  occ. eigenvalues --   -0.59139  -0.55322  -0.46046  -0.42056  -0.38295
 Alpha  occ. eigenvalues --   -0.37029  -0.34806  -0.33539  -0.31862  -0.30883
 Alpha  occ. eigenvalues --   -0.29597  -0.28002  -0.25706  -0.23383  -0.18730
 Alpha  occ. eigenvalues --   -0.18441  -0.17789  -0.15226  -0.12828  -0.12512
 Alpha  occ. eigenvalues --   -0.09016   0.03054
 Alpha virt. eigenvalues --    0.07700   0.09108   0.11361   0.11894   0.12649
 Alpha virt. eigenvalues --    0.14206   0.14621   0.15608   0.16689   0.17165
 Alpha virt. eigenvalues --    0.18698   0.18918   0.19337   0.20320   0.21770

  Beta  occ. eigenvalues --  -88.78948 -19.02845 -18.94274 -18.92078 -14.32228
  Beta  occ. eigenvalues --  -14.23481 -14.22797 -14.21310 -10.12648 -10.09456
  Beta  occ. eigenvalues --   -7.86931  -5.83564  -5.83064  -5.82020  -0.99114
  Beta  occ. eigenvalues --   -0.94934  -0.87610  -0.86029  -0.81480  -0.80834
  Beta  occ. eigenvalues --   -0.58804  -0.54509  -0.45683  -0.42018  -0.38014
  Beta  occ. eigenvalues --   -0.35712  -0.34342  -0.33166  -0.30985  -0.30137
  Beta  occ. eigenvalues --   -0.28862  -0.27194  -0.25293  -0.21178  -0.18523
  Beta  occ. eigenvalues --   -0.17718  -0.16864  -0.14853  -0.12418  -0.11376
  Beta  occ. eigenvalues --   -0.08494
  Beta virt. eigenvalues --    0.07629   0.09260   0.10718   0.11679   0.11964
  Beta virt. eigenvalues --    0.12705   0.14575   0.15443   0.16448   0.16825
  Beta virt. eigenvalues --    0.17159   0.18722   0.19075   0.19360   0.20379

 Mulliken charges and spin densities:
               1          2
     1  C    0.024097   0.250539
     2  O   -0.431463   0.217482
     3  C   -0.135484   0.149438
     4  O   -0.339132   0.136341
     5  O   -0.065093   0.005428
     6  S    0.133443   0.039249
     7  N   -0.560755  -0.011555
     8  N    0.006444  -0.136635
     9  N    0.149550   0.077887
    10  N   -0.304502   0.236914
    11  H    0.247370   0.018643
    12  H    0.275525   0.016270
 Sum of Mulliken charges =  -1.00000   1.00000

 Dipole moment (field-independent basis, Debye):
    X=              5.5864    Y=              1.5856    Z=              1.0947  Tot=              5.9093
 Quadrupole moment (field-independent basis, Debye-Ang):
   XX=           -101.5724   YY=            -78.2293   ZZ=            -64.0191
   XY=             -2.0352   XZ=              5.4895   YZ=              4.1496

 Summary of Natural Population Analysis:

                                       Natural Population
                Natural  -----------------------------------------------
    Atom  No    Charge         Core      Valence    Rydberg      Total
 -----------------------------------------------------------------------
      C    1    0.32223      0.99968     1.65170    0.02639     2.67777
      O    2   -0.23382      0.99987     3.22675    0.00720     4.23382
      C    3    0.39101      0.99971     1.58276    0.02652     2.60899
      O    4   -0.27683      0.99987     3.27087    0.00609     4.27683
      O    5   -0.31870      0.99987     3.30805    0.01078     4.31870
      S    6    0.30659      4.99965     2.66143    0.03233     7.69341
      N    7   -0.48816      0.99979     2.97830    0.01006     3.98816
      N    8   -0.23627      0.99967     2.72157    0.01503     3.73627
      N    9    0.15079      0.99971     2.33213    0.01737     3.34921
      N   10    0.00508      0.99981     2.48145    0.01366     3.49492
      H   11    0.18172      0.00000     0.31578    0.00250     0.31828
      H   12    0.19635      0.00000     0.30034    0.00330     0.30365
 =======================================================================
   * Total *    0.00000     13.99762    26.83112    0.17126    41.00000

 Normal termination of Gaussian 16 at Tue Dec  8 13:34:11 2020.
