 Gaussian 16, Revision A.03,

 -----------------------------------------------------------
 # opt freq B3LYP/6-31G(d) empiricaldispersion=gd3bj scf=xqc
 -----------------------------------------------------------

 ------------------------------
 CID_64160607_JID_5544_neutraal
 ------------------------------
 Symbolic Z-matrix:
 Charge =  0 Multiplicity = 1

 SCF Done:  E(RB3LYP) =  -620.591321666     A.U. after   13 cycles
 SCF Done:  E(RB3LYP) =  -620.596776693     A.U. after   11 cycles
 SCF Done:  E(RB3LYP) =  -620.595595621     A.U. after   11 cycles
 SCF Done:  E(RB3LYP) =  -620.597067966     A.U. after   10 cycles
 SCF Done:  E(RB3LYP) =  -620.598004132     A.U. after   10 cycles
 SCF Done:  E(RB3LYP) =  -620.598121924     A.U. after   11 cycles
 SCF Done:  E(RB3LYP) =  -620.598197257     A.U. after    9 cycles
 SCF Done:  E(RB3LYP) =  -620.598220644     A.U. after    9 cycles
 SCF Done:  E(RB3LYP) =  -620.598243891     A.U. after   10 cycles
 SCF Done:  E(RB3LYP) =  -620.598257134     A.U. after   10 cycles
 SCF Done:  E(RB3LYP) =  -620.598314387     A.U. after    9 cycles
 SCF Done:  E(RB3LYP) =  -620.598321264     A.U. after    8 cycles
 SCF Done:  E(RB3LYP) =  -620.598321694     A.U. after    9 cycles
 SCF Done:  E(RB3LYP) =  -620.598321786     A.U. after    6 cycles
 SCF Done:  E(RB3LYP) =  -620.598321788     A.U. after    6 cycles
 SCF Done:  E(RB3LYP) =  -620.598321802     A.U. after    6 cycles
 Optimization completed.
    -- Stationary point found.
 Normal termination of Gaussian 16 at Thu Dec 10 17:10:13 2020.

 --------------------------------------------------------------------
 #N Geom=AllCheck Guess=TCheck SCRF=Check GenChk RB3LYP/6-31G(d) Freq
 --------------------------------------------------------------------

 Structure from the checkpoint file:  "JID_5544.chk"
 ------------------------------
 CID_64160607_JID_5544_neutraal
 ------------------------------
 Charge =  0 Multiplicity = 1

 SCF Done:  E(RB3LYP) =  -620.598321802     A.U. after    1 cycles

  Exact polarizability: 170.529   2.421 140.541  -2.314   0.975 125.506
 Approx polarizability: 203.185   2.529 201.573  -1.399  -1.171 196.717

                      1                      2                      3
                      A                      A                      A
 Frequencies --     25.2023                56.5712                79.0591
 Red. masses --      3.1865                 2.9802                 1.7402
 Frc consts  --      0.0012                 0.0056                 0.0064
 IR Inten    --      0.4270                 0.2834                 0.1797

                      4                      5                      6
                      A                      A                      A
 Frequencies --    101.5041               126.7114               148.4729
 Red. masses --      2.7532                 2.6728                 2.2772
 Frc consts  --      0.0167                 0.0253                 0.0296
 IR Inten    --      0.0330                 0.5604                 0.1339

                      7                      8                      9
                      A                      A                      A
 Frequencies --    183.0440               199.2295               211.3012
 Red. masses --      2.4344                 2.5476                 1.3819
 Frc consts  --      0.0481                 0.0596                 0.0364
 IR Inten    --      1.2465                 0.3087                 0.1374

                     10                     11                     12
                      A                      A                      A
 Frequencies --    249.3130               271.2990               284.5546
 Red. masses --      1.9887                 2.0351                 1.4059
 Frc consts  --      0.0728                 0.0883                 0.0671
 IR Inten    --      1.4649                 3.8841                30.5121

                     13                     14                     15
                      A                      A                      A
 Frequencies --    301.9681               315.1751               355.8236
 Red. masses --      2.2268                 2.4649                 2.8280
 Frc consts  --      0.1196                 0.1443                 0.2110
 IR Inten    --     13.9187                 1.1262                 1.1542

                     16                     17                     18
                      A                      A                      A
 Frequencies --    385.2535               404.0328               414.7896
 Red. masses --      2.6510                 2.2182                 2.3624
 Frc consts  --      0.2318                 0.2133                 0.2395
 IR Inten    --      2.3848                 2.5196                 6.5402

                     19                     20                     21
                      A                      A                      A
 Frequencies --    426.6176               484.8999               489.0108
 Red. masses --      2.4227                 1.8665                 2.2115
 Frc consts  --      0.2598                 0.2586                 0.3116
 IR Inten    --      2.8213                 0.5414                 1.1558

                     22                     23                     24
                      A                      A                      A
 Frequencies --    547.8260               577.0343               649.4143
 Red. masses --      2.1531                 2.5378                 2.6984
 Frc consts  --      0.3807                 0.4979                 0.6705
 IR Inten    --      2.5962                 1.1709                 2.1921

                     25                     26                     27
                      A                      A                      A
 Frequencies --    668.4773               707.7979               740.6576
 Red. masses --      2.6065                 2.5397                 1.7882
 Frc consts  --      0.6862                 0.7496                 0.5780
 IR Inten    --     16.6804                 1.8647                 3.1549

                     28                     29                     30
                      A                      A                      A
 Frequencies --    770.5375               814.8136               826.1927
 Red. masses --      1.3923                 1.7266                 2.0642
 Frc consts  --      0.4871                 0.6754                 0.8302
 IR Inten    --      1.9459                 3.8538                 4.0746

                     31                     32                     33
                      A                      A                      A
 Frequencies --    845.0334               855.1996               891.2182
 Red. masses --      2.6557                 1.9848                 1.8752
 Frc consts  --      1.1173                 0.8552                 0.8775
 IR Inten    --      1.8620                 7.5941                35.8812

                     34                     35                     36
                      A                      A                      A
 Frequencies --    899.3758               908.8436               943.6470
 Red. masses --      2.6307                 1.9239                 1.6958
 Frc consts  --      1.2537                 0.9363                 0.8897
 IR Inten    --      1.5854                24.4049                40.3585

                     37                     38                     39
                      A                      A                      A
 Frequencies --    947.5317               957.4427               976.1221
 Red. masses --      1.6588                 1.6034                 2.0283
 Frc consts  --      0.8775                 0.8660                 1.1387
 IR Inten    --      3.7324                 2.9187                 8.7698

                     40                     41                     42
                      A                      A                      A
 Frequencies --    979.5825               999.2959              1001.9694
 Red. masses --      1.9147                 2.0457                 2.1783
 Frc consts  --      1.0825                 1.2036                 1.2885
 IR Inten    --      4.7308                13.2897                 8.2243

                     43                     44                     45
                      A                      A                      A
 Frequencies --   1020.7463              1049.2902              1063.6563
 Red. masses --      1.9733                 1.8499                 2.2313
 Frc consts  --      1.2114                 1.2000                 1.4874
 IR Inten    --      3.5395                 9.3899                 2.8514

                     46                     47                     48
                      A                      A                      A
 Frequencies --   1068.9793              1073.4176              1077.0041
 Red. masses --      2.0458                 1.6842                 1.5792
 Frc consts  --      1.3774                 1.1434                 1.0792
 IR Inten    --      3.5841                 8.0185                 1.9853

                     49                     50                     51
                      A                      A                      A
 Frequencies --   1105.2390              1126.8018              1136.9038
 Red. masses --      2.2615                 2.0988                 2.4463
 Frc consts  --      1.6277                 1.5701                 1.8630
 IR Inten    --     28.3887                14.3484                 3.2297

                     52                     53                     54
                      A                      A                      A
 Frequencies --   1147.6969              1171.0623              1213.1872
 Red. masses --      1.9339                 2.0091                 1.7432
 Frc consts  --      1.5008                 1.6234                 1.5116
 IR Inten    --      1.8238                32.9177                18.5035

                     55                     56                     57
                      A                      A                      A
 Frequencies --   1221.1140              1227.4165              1243.3363
 Red. masses --      1.4473                 1.4776                 1.3778
 Frc consts  --      1.2716                 1.3115                 1.2549
 IR Inten    --     10.8081                15.0128                 3.0121

                     58                     59                     60
                      A                      A                      A
 Frequencies --   1249.3970              1268.3891              1274.6791
 Red. masses --      1.3663                 1.1850                 1.4061
 Frc consts  --      1.2566                 1.1232                 1.3461
 IR Inten    --      0.1670                 2.4436                 8.6729

                     61                     62                     63
                      A                      A                      A
 Frequencies --   1282.4943              1308.4057              1318.8472
 Red. masses --      1.5950                 1.3685                 1.1585
 Frc consts  --      1.5457                 1.3804                 1.1872
 IR Inten    --      6.3096                 3.9186                 1.3921

                     64                     65                     66
                      A                      A                      A
 Frequencies --   1324.1219              1339.0841              1348.1315
 Red. masses --      1.2789                 1.4046                 1.3744
 Frc consts  --      1.3211                 1.4840                 1.4717
 IR Inten    --      4.5953                 6.5698                 2.5551

                     67                     68                     69
                      A                      A                      A
 Frequencies --   1351.0897              1357.8015              1383.5884
 Red. masses --      1.4050                 1.2860                 1.3519
 Frc consts  --      1.5111                 1.3969                 1.5248
 IR Inten    --      1.7392                 2.1107                13.8493

                     70                     71                     72
                      A                      A                      A
 Frequencies --   1384.9603              1390.3094              1403.7867
 Red. masses --      1.4487                 1.3772                 1.3305
 Frc consts  --      1.6372                 1.5684                 1.5448
 IR Inten    --      6.5273                 1.7671                23.1072

                     73                     74                     75
                      A                      A                      A
 Frequencies --   1404.6437              1416.7686              1418.9482
 Red. masses --      1.4913                 1.4692                 1.3748
 Frc consts  --      1.7336                 1.7375                 1.6308
 IR Inten    --      6.2847                 2.0604                 2.9075

                     76                     77                     78
                      A                      A                      A
 Frequencies --   1423.7118              1435.4836              1441.1072
 Red. masses --      1.4772                 1.2445                 1.3090
 Frc consts  --      1.7642                 1.5109                 1.6017
 IR Inten    --      8.6346                11.5348                 0.9527

                     79                     80                     81
                      A                      A                      A
 Frequencies --   1504.7543              1506.0430              1509.9297
 Red. masses --      1.0804                 1.0844                 1.0837
 Frc consts  --      1.4413                 1.4492                 1.4557
 IR Inten    --      4.2407                 2.3099                 1.0640

                     82                     83                     84
                      A                      A                      A
 Frequencies --   1516.0583              1520.6547              1524.0739
 Red. masses --      1.0756                 1.0865                 1.0728
 Frc consts  --      1.4566                 1.4802                 1.4681
 IR Inten    --      1.6628                 3.8833                 7.5259

                     85                     86                     87
                      A                      A                      A
 Frequencies --   1527.1826              1528.6773              1535.5760
 Red. masses --      1.0799                 1.0735                 1.0926
 Frc consts  --      1.4840                 1.4781                 1.5180
 IR Inten    --      3.0944                 0.8163                 5.7662

                     88                     89                     90
                      A                      A                      A
 Frequencies --   1545.5613              1550.7847              1555.7976
 Red. masses --      1.0676                 1.0963                 1.0751
 Frc consts  --      1.5026                 1.5534                 1.5332
 IR Inten    --      2.9014                 0.5042                 6.9048

                     91                     92                     93
                      A                      A                      A
 Frequencies --   1695.6689              2948.2945              3014.2989
 Red. masses --      1.0909                 1.0806                 1.0658
 Frc consts  --      1.8481                 5.5345                 5.7053
 IR Inten    --     35.9695                43.3483                26.5359

                     94                     95                     96
                      A                      A                      A
 Frequencies --   3028.5506              3030.5834              3036.4355
 Red. masses --      1.0613                 1.0658                 1.0612
 Frc consts  --      5.7354                 5.7671                 5.7647
 IR Inten    --     12.9536                 5.7058                18.5021

                     97                     98                     99
                      A                      A                      A
 Frequencies --   3036.6800              3039.0482              3046.4195
 Red. masses --      1.0667                 1.0649                 1.0688
 Frc consts  --      5.7954                 5.7946                 5.8442
 IR Inten    --     82.0363                 1.8400                58.9059

                    100                    101                    102
                      A                      A                      A
 Frequencies --   3053.4589              3058.2281              3061.0888
 Red. masses --      1.0675                 1.0950                 1.0464
 Frc consts  --      5.8643                 6.0340                 5.7767
 IR Inten    --     16.9585                22.0548                16.2925

                    103                    104                    105
                      A                      A                      A
 Frequencies --   3065.8408              3070.3250              3072.7102
 Red. masses --      1.0670                 1.0708                 1.0941
 Frc consts  --      5.9088                 5.9473                 6.0863
 IR Inten    --     66.7637                17.3919                72.9337

                    106                    107                    108
                      A                      A                      A
 Frequencies --   3076.1209              3079.2418              3081.5371
 Red. masses --      1.1008                 1.0979                 1.0929
 Frc consts  --      6.1370                 6.1337                 6.1143
 IR Inten    --     58.3374                19.0565                10.3278

                    109                    110                    111
                      A                      A                      A
 Frequencies --   3087.6682              3093.6445              3093.9341
 Red. masses --      1.0953                 1.0995                 1.1003
 Frc consts  --      6.1523                 6.1997                 6.2056
 IR Inten    --     76.1618                 3.1061                69.5185

                    112                    113                    114
                      A                      A                      A
 Frequencies --   3113.5426              3122.7800              3133.9062
 Red. masses --      1.1015                 1.1019                 1.1013
 Frc consts  --      6.2914                 6.3309                 6.3730
 IR Inten    --     61.1419                33.3899                31.7166

                    115                    116                    117
                      A                      A                      A
 Frequencies --   3164.4876              3455.5078              3539.1121
 Red. masses --      1.0946                 1.0493                 1.0919
 Frc consts  --      6.4584                 7.3822                 8.0580
 IR Inten    --     39.6858                 2.7993                 2.5034

 - Thermochemistry -
 -------------------
 Temperature   298.150 Kelvin.  Pressure   1.00000 Atm.
 Atom     1 has atomic number  6 and mass  12.00000

 Molecular mass:   210.20960 amu.
 Principal axes and moments of inertia in atomic units:
                           1         2         3
     Eigenvalues --  1520.311745347.762945879.46938
           X            1.00000   0.00031  -0.00170
           Y           -0.00032   0.99999  -0.00404
           Z            0.00170   0.00404   0.99999
 This molecule is an asymmetric top.
 Rotational symmetry number  1.
 Warning -- assumption of classical behavior for rotation
           may cause significant error
 Rotational temperatures (Kelvin)      0.05697     0.01620     0.01473
 Rotational constants (GHZ):           1.18709     0.33748     0.30696
 Zero-point vibrational energy    1011548.2 (Joules/Mol)
                                  241.76582 (Kcal/Mol)
 Warning -- explicit consideration of  23 degrees of freedom as
           vibrations may cause significant error
 Vibrational temperatures:     36.26    81.39   113.75   146.04   182.31
          (Kelvin)            213.62   263.36   286.65   304.02   358.71
                              390.34   409.41   434.46   453.47   511.95
                              554.29   581.31   596.79   613.81   697.66
                              703.58   788.20   830.22   934.36   961.79
                             1018.36  1065.64  1108.63  1172.34  1188.71
                             1215.81  1230.44  1282.26  1294.00  1307.62
                             1357.70  1363.29  1377.55  1404.42  1409.40
                             1437.76  1441.61  1468.63  1509.69  1530.36
                             1538.02  1544.41  1549.57  1590.19  1621.22
                             1635.75  1651.28  1684.90  1745.51  1756.91
                             1765.98  1788.88  1797.60  1824.93  1833.98
                             1845.22  1882.50  1897.53  1905.12  1926.64
                             1939.66  1943.92  1953.57  1990.68  1992.65
                             2000.35  2019.74  2020.97  2038.41  2041.55
                             2048.40  2065.34  2073.43  2165.01  2166.86
                             2172.45  2181.27  2187.88  2192.80  2197.28
                             2199.43  2209.35  2223.72  2231.23  2238.45
                             2439.69  4241.94  4336.90  4357.41  4360.33
                             4368.75  4369.11  4372.51  4383.12  4393.25
                             4400.11  4404.22  4411.06  4417.51  4420.94
                             4425.85  4430.34  4433.64  4442.47  4451.06
                             4451.48  4479.69  4492.98  4508.99  4552.99
                             4971.71  5091.99

 Zero-point correction=                           0.385278 (Hartree/Particle)
 Thermal correction to Energy=                    0.400821
 Thermal correction to Enthalpy=                  0.401766
 Thermal correction to Gibbs Free Energy=         0.342786
 Sum of electronic and zero-point Energies=           -620.213043
 Sum of electronic and thermal Energies=              -620.197500
 Sum of electronic and thermal Enthalpies=            -620.196556
 Sum of electronic and thermal Free Energies=         -620.255536

                     E (Thermal)             CV                S
                      KCal/Mol        Cal/Mol-Kelvin    Cal/Mol-Kelvin
 Total                  251.519             62.062            124.133
 Electronic               0.000              0.000              0.000
 Translational            0.889              2.981             41.933
 Rotational               0.889              2.981             32.236
 Vibrational            249.742             56.100             49.965
 Vibration     1          0.593              1.985              6.175
 Vibration     2          0.596              1.975              4.573
 Vibration     3          0.600              1.963              3.914
 Vibration     4          0.604              1.948              3.425
 Vibration     5          0.611              1.926              2.995
 Vibration     6          0.618              1.904              2.692
 Vibration     7          0.631              1.863              2.297
 Vibration     8          0.637              1.841              2.140
 Vibration     9          0.643              1.824              2.032
 Vibration    10          0.662              1.764              1.735
 Vibration    11          0.675              1.726              1.588
 Vibration    12          0.683              1.702              1.506
 Vibration    13          0.694              1.670              1.406
 Vibration    14          0.703              1.645              1.335
 Vibration    15          0.731              1.563              1.140
 Vibration    16          0.754              1.502              1.018
 Vibration    17          0.769              1.461              0.948
 Vibration    18          0.778              1.438              0.910
 Vibration    19          0.788              1.412              0.870
 Vibration    20          0.841              1.284              0.697
 Vibration    21          0.845              1.274              0.686
 Vibration    22          0.903              1.144              0.549
 Vibration    23          0.934              1.081              0.491

 Optimization completed.
    -- Stationary point found.
 Normal termination of Gaussian 16 at Thu Dec 10 17:27:49 2020.

 ----------------------------------------------------------------------
 # B3LYP/6-311++G(d,p) empiricaldispersion=gd3bj scf=xqc pop=npa geom=c
 heck
 ----------------------------------------------------------------------

 --------------------------------------
 CID_64160607_JID_5544_Energie_neutraal
 --------------------------------------
 Structure from the checkpoint file:  "JID_5544.chk"
 Charge =  0 Multiplicity = 1

 SCF Done:  E(RB3LYP) =  -620.772871001     A.U. after   13 cycles
 Normal termination of Gaussian 16 at Thu Dec 10 17:34:47 2020.

 ----------------------------------------------------------------------
 # B3LYP/6-311++G(d,p) empiricaldispersion=gd3bj scf=xqc pop=npa geom=c
 heck
 ----------------------------------------------------------------------

 ------------------------------------
 CID_64160607_JID_5544_Energie_kation
 ------------------------------------
 Structure from the checkpoint file:  "JID_5544.chk"
 Charge =  1 Multiplicity = 2

 SCF Done:  E(UB3LYP) =  -620.509682258     A.U. after   17 cycles
 Normal termination of Gaussian 16 at Thu Dec 10 17:49:01 2020.
 Gaussian 16:  ES64L-G16RevA.03 25-Dec-2016

 ----------------------------------------------------------------------
 # B3LYP/6-311++G(d,p) empiricaldispersion=gd3bj scf=xqc pop=npa geom=c
 heck
 ----------------------------------------------------------------------

 -----------------------------------
 CID_64160607_JID_5544_Energie_anion
 -----------------------------------
 Structure from the checkpoint file:  "JID_5544.chk"
 Charge = -1 Multiplicity = 2

                         Standard orientation:
 ---------------------------------------------------------------------
 Center     Atomic      Atomic             Coordinates (Angstroms)
 Number     Number       Type             X           Y           Z
 ---------------------------------------------------------------------
      1          6           0       -0.684738    2.377099   -0.865184
      2          6           0       -1.140010    1.149824   -0.059914
      3          6           0       -2.648679    1.331621    0.221248
      4          6           0       -3.292303    0.334853    1.196348
      5          6           0       -3.826494   -0.938189    0.524942
      6          6           0       -2.899993   -1.476204   -0.577224
      7          6           0       -1.402099   -1.332865   -0.266225
      8          7           0       -0.812544   -0.088382   -0.783443
      9          6           0        0.584765   -0.243047   -1.183146
     10          6           0        1.723935   -0.342177   -0.128872
     11          6           0        2.203368    0.990236    0.486629
     12          6           0        3.633670    0.711464    1.005993
     13          6           0        4.163896   -0.480055    0.153567
     14          6           0        3.024560   -0.817083   -0.830333
     15          7           0        1.309749   -1.228487    0.974420
     16          1           0        0.396148    2.430546   -0.999313
     17          1           0       -0.992050    3.294222   -0.352220
     18          1           0       -1.151572    2.362673   -1.856772
     19          1           0       -0.638635    1.164993    0.925343
     20          1           0       -2.748933    2.337772    0.645567
     21          1           0       -3.195284    1.346198   -0.731331
     22          1           0       -4.115319    0.825855    1.730469
     23          1           0       -2.553468    0.070977    1.964104
     24          1           0       -4.816992   -0.740515    0.094384
     25          1           0       -3.976499   -1.708265    1.293058
     26          1           0       -3.086591   -0.960374   -1.525804
     27          1           0       -3.132896   -2.535009   -0.749269
     28          1           0       -0.874286   -2.148942   -0.771174
     29          1           0       -1.214067   -1.470084    0.808813
     30          1           0        0.625489   -1.160762   -1.784823
     31          1           0        0.853557    0.565439   -1.871543
     32          1           0        2.246011    1.749533   -0.301329
     33          1           0        1.529532    1.353773    1.265997
     34          1           0        3.618940    0.451509    2.070675
     35          1           0        4.270300    1.597202    0.916753
     36          1           0        4.386698   -1.341244    0.793391
     37          1           0        5.093226   -0.234725   -0.369157
     38          1           0        2.980061   -1.880906   -1.092698
     39          1           0        3.156631   -0.259437   -1.767686
     40          1           0        1.149852   -2.168741    0.613525
     41          1           0        2.070446   -1.316461    1.647240
 ---------------------------------------------------------------------

 SCF Done:  E(UB3LYP) =  -620.758660785     A.U. after   30 cycles

 The electronic state is 2-A.
 Alpha  occ. eigenvalues --  -14.19514 -14.18145 -10.09693 -10.09445 -10.08368
 Alpha  occ. eigenvalues --  -10.07958 -10.06731 -10.06705 -10.06679 -10.06005
 Alpha  occ. eigenvalues --  -10.05936 -10.05825 -10.05820 -10.05559 -10.05457
 Alpha  occ. eigenvalues --   -0.81951  -0.78508  -0.70527  -0.70031  -0.68176
 Alpha  occ. eigenvalues --   -0.62860  -0.60728  -0.60460  -0.57508  -0.53929
 Alpha  occ. eigenvalues --   -0.52649  -0.46510  -0.46140  -0.45631  -0.43905
 Alpha  occ. eigenvalues --   -0.39587  -0.39057  -0.37319  -0.36883  -0.35846
 Alpha  occ. eigenvalues --   -0.35474  -0.34412  -0.33540  -0.31147  -0.30965
 Alpha  occ. eigenvalues --   -0.30066  -0.29759  -0.29174  -0.27761  -0.27163
 Alpha  occ. eigenvalues --   -0.26141  -0.25228  -0.24378  -0.23660  -0.23463
 Alpha  occ. eigenvalues --   -0.23307  -0.22594  -0.22278  -0.21765  -0.21494
 Alpha  occ. eigenvalues --   -0.21192  -0.20892  -0.13813  -0.09978   0.04456
 Alpha virt. eigenvalues --    0.06277   0.06876   0.07622   0.08125   0.08569
 Alpha virt. eigenvalues --    0.08698   0.09501   0.09823   0.10309   0.10615
 Alpha virt. eigenvalues --    0.11019   0.11329   0.11724   0.12698   0.12860

  Beta  occ. eigenvalues --  -14.19512 -14.18104 -10.09688 -10.09445 -10.08357
  Beta  occ. eigenvalues --  -10.07942 -10.06723 -10.06696 -10.06669 -10.05996
  Beta  occ. eigenvalues --  -10.05911 -10.05812 -10.05794 -10.05542 -10.05434
  Beta  occ. eigenvalues --   -0.81934  -0.78457  -0.70506  -0.69974  -0.68157
  Beta  occ. eigenvalues --   -0.62826  -0.60695  -0.60415  -0.57471  -0.53893
  Beta  occ. eigenvalues --   -0.52613  -0.46440  -0.46107  -0.45592  -0.43852
  Beta  occ. eigenvalues --   -0.39559  -0.39011  -0.37275  -0.36852  -0.35825
  Beta  occ. eigenvalues --   -0.35449  -0.34372  -0.33505  -0.31122  -0.30939
  Beta  occ. eigenvalues --   -0.30041  -0.29724  -0.29155  -0.27741  -0.27139
  Beta  occ. eigenvalues --   -0.26118  -0.25196  -0.24356  -0.23625  -0.23421
  Beta  occ. eigenvalues --   -0.23263  -0.22573  -0.22254  -0.21732  -0.21471
  Beta  occ. eigenvalues --   -0.21161  -0.20864  -0.13768  -0.09961
  Beta virt. eigenvalues --    0.06354   0.07046   0.07510   0.07926   0.08664
  Beta virt. eigenvalues --    0.08930   0.09062   0.09814   0.09984   0.10605
  Beta virt. eigenvalues --    0.10957   0.11238   0.11619   0.11821   0.12953

 Mulliken charges and spin densities:
               1          2
     1  C   -0.152402  -0.365601
     2  C    0.352168  -0.442207
     3  C   -1.065425   0.563536
     4  C   -0.232751   0.180406
     5  C    0.178085  -0.782822
     6  C   -0.258180  -0.045410
     7  C    0.060063  -0.201536
     8  N    0.440568   0.120425
     9  C    0.493098  -1.677407
    10  C   -0.879078   1.980655
    11  C   -0.273493   0.067809
    12  C    0.757959  -1.448542
    13  C    0.487994  -0.878765
    14  C    0.480007  -1.138615
    15  N   -0.416026   0.103644
    16  H   -0.447615   0.550339
    17  H    0.010514   0.113682
    18  H    0.139614   0.013470
    19  H    0.196801  -0.106583
    20  H    0.061472   0.091023
    21  H    0.055197   0.075982
    22  H   -0.093434   0.254263
    23  H   -0.024442   0.169270
    24  H   -0.012289   0.142946
    25  H   -0.014623   0.152236
    26  H    0.150898  -0.008077
    27  H   -0.110037   0.259978
    28  H   -0.198680   0.336071
    29  H    0.273315  -0.092767
    30  H    0.094219   0.065259
    31  H    0.052784   0.122181
    32  H    0.098052   0.027301
    33  H    0.064346   0.099060
    34  H   -0.152116   0.306835
    35  H   -0.250252   0.408051
    36  H   -0.093726   0.248986
    37  H   -0.239440   0.395327
    38  H   -0.207995   0.370997
    39  H   -0.119065   0.254947
    40  H   -0.188862   0.431989
    41  H   -0.017224   0.281662
 Sum of Mulliken charges =  -1.00000   1.00000

 Dipole moment (field-independent basis, Debye):
    X=             -4.5279    Y=              2.2448    Z=             -0.9936  Tot=              5.1505
 Quadrupole moment (field-independent basis, Debye-Ang):
   XX=           -176.9904   YY=           -142.6472   ZZ=           -131.1774
   XY=             -1.4629   XZ=              1.1990   YZ=              1.2886

 Summary of Natural Population Analysis:

                                       Natural Population
                Natural  -----------------------------------------------
    Atom  No    Charge         Core      Valence    Rydberg      Total
 -----------------------------------------------------------------------
      C    1   -0.28785      0.99964     2.28211    0.00610     3.28785
      C    2   -0.00253      0.99958     1.99181    0.01114     3.00253
      C    3   -0.19337      0.99961     2.18503    0.00873     3.19337
      C    4   -0.19407      0.99963     2.18653    0.00791     3.19407
      C    5   -0.18758      0.99963     2.17999    0.00796     3.18758
      C    6   -0.19832      0.99962     2.19006    0.00864     3.19832
      C    7   -0.08896      0.99960     2.07696    0.01241     3.08896
      N    8   -0.28587      0.99970     2.77250    0.01368     3.78587
      C    9   -0.07910      0.99954     2.06600    0.01356     3.07910
      C   10    0.04783      0.99954     1.93677    0.01586     2.95217
      C   11   -0.19503      0.99958     2.18582    0.00962     3.19503
      C   12   -0.19454      0.99965     2.18692    0.00797     3.19454
      C   13   -0.19566      0.99965     2.18801    0.00800     3.19566
      C   14   -0.19659      0.99959     2.18724    0.00976     3.19659
      N   15   -0.42772      0.99975     2.91660    0.01136     3.92772
      H   16    0.10183      0.00000     0.39722    0.00095     0.39817
      H   17    0.09719      0.00000     0.40202    0.00079     0.40281
      H   18    0.09811      0.00000     0.40090    0.00098     0.40189
      H   19    0.08336      0.00000     0.41428    0.00236     0.41664
      H   20    0.09873      0.00000     0.40034    0.00093     0.40127
      H   21    0.09505      0.00000     0.40364    0.00131     0.40495
      H   22    0.09671      0.00000     0.40238    0.00091     0.40329
      H   23    0.09792      0.00000     0.40067    0.00141     0.40208
      H   24    0.09249      0.00000     0.40652    0.00099     0.40751
      H   25    0.09510      0.00000     0.40390    0.00100     0.40490
      H   26    0.09773      0.00000     0.40065    0.00162     0.40227
      H   27    0.09817      0.00000     0.40092    0.00091     0.40183
      H   28    0.09575      0.00000     0.40269    0.00156     0.40425
      H   29    0.09372      0.00000     0.40446    0.00182     0.40628
      H   30    0.09536      0.00000     0.40308    0.00156     0.40464
      H   31    0.09726      0.00000     0.40127    0.00147     0.40274
      H   32    0.09707      0.00000     0.40139    0.00155     0.40293
      H   33    0.10479      0.00000     0.39375    0.00146     0.39521
      H   34    0.09541      0.00000     0.40337    0.00121     0.40459
      H   35    0.09969      0.00000     0.39910    0.00121     0.40031
      H   36    0.09706      0.00000     0.40131    0.00163     0.40294
      H   37    0.09983      0.00000     0.39894    0.00122     0.40017
      H   38    0.10147      0.00000     0.39691    0.00162     0.39853
      H   39    0.09699      0.00000     0.40164    0.00138     0.40301
      H   40    0.17561      0.00000     0.32169    0.00271     0.32439
      H   41    0.17696      0.00000     0.32067    0.00237     0.32304
 =======================================================================
   * Total *    0.00000     14.99431    43.81605    0.18963    59.00000

 Normal termination of Gaussian 16 at Thu Dec 10 18:08:59 2020.
