 Gaussian 16, Revision A.03,

 -----------------------------------------------------------
 # opt freq B3LYP/6-31G(d) empiricaldispersion=gd3bj scf=xqc
 -----------------------------------------------------------

 ------------------------------
 CID_68122250_JID_2396_neutraal
 ------------------------------
 Symbolic Z-matrix:
 Charge =  0 Multiplicity = 1

 SCF Done:  E(RB3LYP) =  -563.296981764     A.U. after   17 cycles
 SCF Done:  E(RB3LYP) =  -563.308596266     A.U. after   14 cycles
 SCF Done:  E(RB3LYP) =  -563.310623468     A.U. after   13 cycles
 SCF Done:  E(RB3LYP) =  -563.310938951     A.U. after   12 cycles
 SCF Done:  E(RB3LYP) =  -563.311004715     A.U. after   11 cycles
 SCF Done:  E(RB3LYP) =  -563.311023047     A.U. after   10 cycles
 SCF Done:  E(RB3LYP) =  -563.311027739     A.U. after    9 cycles
 Optimization completed.
    -- Stationary point found.
 Normal termination of Gaussian 16 at Wed Dec  9 17:16:46 2020.

 --------------------------------------------------------------------
 #N Geom=AllCheck Guess=TCheck SCRF=Check GenChk RB3LYP/6-31G(d) Freq
 --------------------------------------------------------------------

 Structure from the checkpoint file:  "JID_2396.chk"
 ------------------------------
 CID_68122250_JID_2396_neutraal
 ------------------------------
 Charge =  0 Multiplicity = 1

 SCF Done:  E(RB3LYP) =  -563.311027739     A.U. after    1 cycles

  Exact polarizability: 170.701  -4.397  93.961  -0.000   0.000  40.664
 Approx polarizability: 393.572  -7.811 160.000  -0.000   0.000  65.083

                      1                      2                      3
                      A                      A                      A
 Frequencies --    118.2342               178.0584               254.5080
 Red. masses --      7.0061                 7.7820                 4.4532
 Frc consts  --      0.0577                 0.1454                 0.1700
 IR Inten    --      1.7091                 1.9479                 6.5046

                      4                      5                      6
                      A                      A                      A
 Frequencies --    281.1077               296.4670               400.1174
 Red. masses --      3.1120                 8.8081                 3.5809
 Frc consts  --      0.1449                 0.4561                 0.3378
 IR Inten    --      5.5602                 1.8853                 6.8999

                      7                      8                      9
                      A                      A                      A
 Frequencies --    456.2100               484.3526               546.9333
 Red. masses --      9.2409                 9.7133                 6.0362
 Frc consts  --      1.1332                 1.3426                 1.0639
 IR Inten    --      1.6945                 1.4640                 3.2676

                     10                     11                     12
                      A                      A                      A
 Frequencies --    590.9906               658.9777               680.5680
 Red. masses --      4.7268                 4.9878                 8.0690
 Frc consts  --      0.9727                 1.2762                 2.2020
 IR Inten    --      1.0131                 4.3269                10.2166

                     13                     14                     15
                      A                      A                      A
 Frequencies --    688.0893               750.1231               790.9008
 Red. masses --      6.6592                 9.2829                11.1007
 Frc consts  --      1.8577                 3.0775                 4.0911
 IR Inten    --      3.3765                 0.3325                13.1077

                     16                     17                     18
                      A                      A                      A
 Frequencies --    813.5715               829.2956               837.6136
 Red. masses --     12.7528                 1.7332                 6.6287
 Frc consts  --      4.9733                 0.7023                 2.7401
 IR Inten    --    101.2503                29.7021                 4.5238

                     19                     20                     21
                      A                      A                      A
 Frequencies --    910.7602               998.7742              1002.3479
 Red. masses --      8.6450                 1.2777                12.4583
 Frc consts  --      4.2250                 0.7510                 7.3747
 IR Inten    --     54.7008                 0.0285                12.4592

                     22                     23                     24
                      A                      A                      A
 Frequencies --   1037.3803              1064.0076              1076.4881
 Red. masses --      1.7056                 4.9260                 5.6777
 Frc consts  --      1.0815                 3.2858                 3.8765
 IR Inten    --      3.4200                44.0606                 4.4090

                     25                     26                     27
                      A                      A                      A
 Frequencies --   1126.3278              1173.7236              1194.8033
 Red. masses --      2.0770                 2.1122                 1.0549
 Frc consts  --      1.5525                 1.7145                 0.8873
 IR Inten    --     35.3610                36.9852                 0.0319

                     28                     29                     30
                      A                      A                      A
 Frequencies --   1261.6549              1333.0602              1339.3403
 Red. masses --      2.6713                 5.6139                 2.4666
 Frc consts  --      2.5053                 5.8778                 2.6069
 IR Inten    --     10.9114                39.5034                17.6891

                     31                     32                     33
                      A                      A                      A
 Frequencies --   1393.0319              1416.6373              1452.5313
 Red. masses --      2.7480                 2.5447                 7.9740
 Frc consts  --      3.1419                 3.0088                 9.9124
 IR Inten    --      1.6356                71.0526                 3.5887

                     34                     35                     36
                      A                      A                      A
 Frequencies --   1493.7860              1541.8436              1632.9271
 Red. masses --      1.1402                 8.0541                 6.7590
 Frc consts  --      1.4990                11.2810                10.6185
 IR Inten    --      3.0189                20.6378                13.0679

                     37                     38                     39
                      A                      A                      A
 Frequencies --   1661.6222              1733.6870              3082.8642
 Red. masses --      8.6945                10.9829                 1.0563
 Frc consts  --     14.1436                19.4496                 5.9147
 IR Inten    --     49.4026               303.3051                 6.7404

                     40                     41                     42
                      A                      A                      A
 Frequencies --   3130.6029              3224.8703              3243.5852
 Red. masses --      1.1114                 1.0890                 1.0967
 Frc consts  --      6.4175                 6.6730                 6.7982
 IR Inten    --      2.8766                 1.5128                 1.4106

 - Thermochemistry -
 -------------------
 Temperature   298.150 Kelvin.  Pressure   1.00000 Atm.
 Atom     1 has atomic number  6 and mass  12.00000

 Molecular mass:   160.03851 amu.
 Principal axes and moments of inertia in atomic units:
                           1         2         3
     Eigenvalues --   844.290372084.322412917.04809
           X            0.99972  -0.02378  -0.00000
           Y            0.02378   0.99972  -0.00000
           Z            0.00000   0.00000   1.00000
 This molecule is an asymmetric top.
 Rotational symmetry number  1.
 Warning -- assumption of classical behavior for rotation
           may cause significant error
 Rotational temperatures (Kelvin)      0.10259     0.04155     0.02969
 Rotational constants (GHZ):           2.13758     0.86586     0.61869
 Zero-point vibrational energy     288197.0 (Joules/Mol)
                                   68.88074 (Kcal/Mol)
 Warning -- explicit consideration of  10 degrees of freedom as
           vibrations may cause significant error
 Vibrational temperatures:    170.11   256.19   366.18   404.45   426.55
          (Kelvin)            575.68   656.38   696.88   786.91   850.30
                              948.12   979.19   990.01  1079.26  1137.93
                             1170.55  1193.17  1205.14  1310.38  1437.01
                             1442.16  1492.56  1530.87  1548.83  1620.53
                             1688.73  1719.06  1815.24  1917.98  1927.01
                             2004.26  2038.23  2089.87  2149.22  2218.37
                             2349.42  2390.70  2494.39  4435.55  4504.24
                             4639.87  4666.80

 Zero-point correction=                           0.109768 (Hartree/Particle)
 Thermal correction to Energy=                    0.117504
 Thermal correction to Enthalpy=                  0.118448
 Thermal correction to Gibbs Free Energy=         0.076816
 Sum of electronic and zero-point Energies=           -563.201259
 Sum of electronic and thermal Energies=              -563.193523
 Sum of electronic and thermal Enthalpies=            -563.192579
 Sum of electronic and thermal Free Energies=         -563.234211

                     E (Thermal)             CV                S
                      KCal/Mol        Cal/Mol-Kelvin    Cal/Mol-Kelvin
 Total                   73.735             30.931             87.622
 Electronic               0.000              0.000              0.000
 Translational            0.889              2.981             41.120
 Rotational               0.889              2.981             30.019
 Vibrational             71.958             24.970             16.484
 Vibration     1          0.608              1.934              3.129
 Vibration     2          0.628              1.869              2.349
 Vibration     3          0.665              1.755              1.699
 Vibration     4          0.681              1.709              1.527
 Vibration     5          0.690              1.680              1.437
 Vibration     6          0.766              1.470              0.962
 Vibration     7          0.814              1.347              0.777
 Vibration     8          0.840              1.285              0.698
 Vibration     9          0.902              1.146              0.551
 Vibration    10          0.948              1.051              0.465

 Optimization completed.
    -- Stationary point found.
 Normal termination of Gaussian 16 at Wed Dec  9 17:20:14 2020.

 ----------------------------------------------------------------------
 # B3LYP/6-311++G(d,p) empiricaldispersion=gd3bj scf=xqc pop=npa geom=c
 heck
 ----------------------------------------------------------------------

 --------------------------------------
 CID_68122250_JID_2396_Energie_neutraal
 --------------------------------------
 Structure from the checkpoint file:  "JID_2396.chk"
 Charge =  0 Multiplicity = 1

 SCF Done:  E(RB3LYP) =  -563.453697244     A.U. after   16 cycles
 Normal termination of Gaussian 16 at Wed Dec  9 17:22:22 2020.

 ----------------------------------------------------------------------
 # B3LYP/6-311++G(d,p) empiricaldispersion=gd3bj scf=xqc pop=npa geom=c
 heck
 ----------------------------------------------------------------------

 ------------------------------------
 CID_68122250_JID_2396_Energie_kation
 ------------------------------------
 Structure from the checkpoint file:  "JID_2396.chk"
 Charge =  1 Multiplicity = 2

 SCF Done:  E(UB3LYP) =  -563.102432521     A.U. after   33 cycles
 SCF Done:  E(UB3LYP) =  -563.102432521     a.u. after    1 cycles
 Normal termination of Gaussian 16 at Wed Dec  9 17:28:08 2020.
 Gaussian 16:  ES64L-G16RevA.03 25-Dec-2016

 ----------------------------------------------------------------------
 # B3LYP/6-311++G(d,p) empiricaldispersion=gd3bj scf=xqc pop=npa geom=c
 heck
 ----------------------------------------------------------------------

 -----------------------------------
 CID_68122250_JID_2396_Energie_anion
 -----------------------------------
 Structure from the checkpoint file:  "JID_2396.chk"
 Charge = -1 Multiplicity = 2

                         Standard orientation:
 ---------------------------------------------------------------------
 Center     Atomic      Atomic             Coordinates (Angstroms)
 Number     Number       Type             X           Y           Z
 ---------------------------------------------------------------------
      1          6           0        2.831968   -0.825759   -0.000001
      2          7           0        2.595559    0.584956    0.000003
      3          6           0        1.313267    0.756265    0.000000
      4          6           0        0.566067    1.999453   -0.000000
      5          6           0       -0.789369    1.940596   -0.000000
      6          6           0       -1.453322    0.651468    0.000000
      7          7           0       -2.740611    0.391151   -0.000005
      8          7           0       -2.847355   -1.023615    0.000011
      9          7           0       -1.698220   -1.604172   -0.000007
     10          6           0       -0.740992   -0.598220    0.000000
     11          6           0        0.620473   -0.557751    0.000001
     12          8           0        1.535232   -1.514236   -0.000001
     13          1           0        3.373823   -1.145604   -0.896286
     14          1           0        3.373826   -1.145609    0.896281
     15          1           0        1.116047    2.932991   -0.000000
     16          1           0       -1.399708    2.837558   -0.000001
 ---------------------------------------------------------------------

 SCF Done:  E(UB3LYP) =  -563.541329706     A.U. after   20 cycles

 The electronic state is 2-A.
 Alpha  occ. eigenvalues --  -19.04657 -14.19894 -14.17790 -14.17214 -14.16084
 Alpha  occ. eigenvalues --  -10.13849 -10.11094 -10.08076 -10.05157 -10.05105
 Alpha  occ. eigenvalues --  -10.04851 -10.04801  -0.98173  -0.90289  -0.80013
 Alpha  occ. eigenvalues --   -0.72204  -0.70052  -0.62939  -0.60910  -0.52423
 Alpha  occ. eigenvalues --   -0.50039  -0.46648  -0.41860  -0.39529  -0.38760
 Alpha  occ. eigenvalues --   -0.38335  -0.34816  -0.32278  -0.29943  -0.29393
 Alpha  occ. eigenvalues --   -0.27297  -0.25583  -0.23415  -0.23322  -0.18106
 Alpha  occ. eigenvalues --   -0.17645  -0.16514  -0.12451  -0.12421  -0.10630
 Alpha  occ. eigenvalues --   -0.10452  -0.02150
 Alpha virt. eigenvalues --    0.08688   0.09793   0.10544   0.11378   0.12158
 Alpha virt. eigenvalues --    0.13687   0.14817   0.15838   0.17337   0.17751
 Alpha virt. eigenvalues --    0.18502   0.18630   0.19457   0.20070   0.20606

  Beta  occ. eigenvalues --  -19.04436 -14.19864 -14.17581 -14.16401 -14.15949
  Beta  occ. eigenvalues --  -10.13906 -10.10724 -10.08089 -10.05058 -10.05000
  Beta  occ. eigenvalues --  -10.04899 -10.04771  -0.97712  -0.90041  -0.78869
  Beta  occ. eigenvalues --   -0.71830  -0.69619  -0.62653  -0.60636  -0.51820
  Beta  occ. eigenvalues --   -0.49665  -0.46318  -0.41383  -0.39334  -0.38106
  Beta  occ. eigenvalues --   -0.37797  -0.34660  -0.31945  -0.29198  -0.29152
  Beta  occ. eigenvalues --   -0.26993  -0.24262  -0.23092  -0.21753  -0.17929
  Beta  occ. eigenvalues --   -0.15913  -0.15608  -0.12243  -0.10883  -0.10273
  Beta  occ. eigenvalues --   -0.09654
  Beta virt. eigenvalues --    0.04636   0.08716   0.09798   0.11384   0.12176
  Beta virt. eigenvalues --    0.12193   0.13724   0.14847   0.16628   0.17349
  Beta virt. eigenvalues --    0.18359   0.18513   0.19472   0.19491   0.20099

 Mulliken charges and spin densities:
               1          2
     1  C   -0.090877  -0.039371
     2  N   -0.115651   0.386145
     3  C    0.247626   0.022840
     4  C   -0.894568  -0.030282
     5  C    0.365642   0.074835
     6  C   -0.737850   0.065182
     7  N   -0.209760   0.068244
     8  N    0.064408   0.009316
     9  N   -0.281882   0.101827
    10  C   -0.577895  -0.112731
    11  C    0.834469   0.324011
    12  O   -0.185710   0.058045
    13  H    0.148548   0.041884
    14  H    0.148547   0.041883
    15  H    0.137339  -0.005837
    16  H    0.147615  -0.005991
 Sum of Mulliken charges =  -1.00000   1.00000

 Dipole moment (field-independent basis, Debye):
    X=              6.2831    Y=              1.7850    Z=             -0.0000  Tot=              6.5317
 Quadrupole moment (field-independent basis, Debye-Ang):
   XX=           -108.2749   YY=            -83.0705   ZZ=            -71.8619
   XY=            -10.8319   XZ=             -0.0000   YZ=             -0.0000

 Summary of Natural Population Analysis:

                                       Natural Population
                Natural  -----------------------------------------------
    Atom  No    Charge         Core      Valence    Rydberg      Total
 -----------------------------------------------------------------------
      C    1    0.05413      0.99963     1.93319    0.01305     2.94587
      N    2   -0.08722      0.99967     2.57433    0.01322     3.58722
      C    3    0.06478      0.99955     1.92198    0.01369     2.93522
      C    4   -0.10177      0.99954     2.09251    0.00971     3.10177
      C    5   -0.06711      0.99954     2.05856    0.00902     3.06711
      C    6    0.07838      0.99953     1.90735    0.01474     2.92162
      N    7   -0.15931      0.99968     2.64309    0.01654     3.65931
      N    8   -0.05266      0.99981     2.53106    0.02178     3.55266
      N    9   -0.10257      0.99973     2.58548    0.01736     3.60257
      C   10   -0.04010      0.99941     2.02798    0.01271     3.04010
      C   11    0.26530      0.99937     1.72085    0.01448     2.73470
      O   12   -0.23160      0.99986     3.22226    0.00948     4.23160
      H   13    0.09380      0.00000     0.40493    0.00127     0.40620
      H   14    0.09380      0.00000     0.40493    0.00127     0.40620
      H   15    0.09635      0.00000     0.40183    0.00182     0.40365
      H   16    0.09581      0.00000     0.40211    0.00209     0.40419
 =======================================================================
   * Total *    0.00000     11.99534    28.83242    0.17224    41.00000

 Normal termination of Gaussian 16 at Wed Dec  9 17:31:13 2020.
