 Gaussian 16, Revision A.03,

 -----------------------------------------------------------
 # opt freq B3LYP/6-31G(d) empiricaldispersion=gd3bj scf=xqc
 -----------------------------------------------------------

 ------------------------------
 CID_129938075_JID_384_neutraal
 ------------------------------
 Symbolic Z-matrix:
 Charge =  0 Multiplicity = 1

 SCF Done:  E(RB3LYP) =  -855.880012723     A.U. after   14 cycles
 SCF Done:  E(RB3LYP) =  -855.883726411     A.U. after   13 cycles
 SCF Done:  E(RB3LYP) =  -855.883206782     A.U. after   13 cycles
 SCF Done:  E(RB3LYP) =  -855.884285033     A.U. after   12 cycles
 SCF Done:  E(RB3LYP) =  -855.884518709     A.U. after   12 cycles
 SCF Done:  E(RB3LYP) =  -855.884627186     A.U. after   12 cycles
 SCF Done:  E(RB3LYP) =  -855.884650573     A.U. after   11 cycles
 SCF Done:  E(RB3LYP) =  -855.884648849     A.U. after   10 cycles
 SCF Done:  E(RB3LYP) =  -855.884641624     A.U. after   11 cycles
 SCF Done:  E(RB3LYP) =  -855.884655549     A.U. after   10 cycles
 SCF Done:  E(RB3LYP) =  -855.884658157     A.U. after    9 cycles
 SCF Done:  E(RB3LYP) =  -855.884658137     A.U. after    9 cycles
 SCF Done:  E(RB3LYP) =  -855.884658723     A.U. after    8 cycles
 SCF Done:  E(RB3LYP) =  -855.884658881     A.U. after    8 cycles
 Optimization completed.
    -- Stationary point found.
 Normal termination of Gaussian 16 at Tue Dec  8 10:31:07 2020.

 --------------------------------------------------------------------
 #N Geom=AllCheck Guess=TCheck SCRF=Check GenChk RB3LYP/6-31G(d) Freq
 --------------------------------------------------------------------

 Structure from the checkpoint file:  "JID_384.chk"
 ------------------------------
 CID_129938075_JID_384_neutraal
 ------------------------------
 Charge =  0 Multiplicity = 1

 SCF Done:  E(RB3LYP) =  -855.884658881     A.U. after    1 cycles

  Exact polarizability:  91.086   1.178  87.307  -2.806  -4.979  85.650
 Approx polarizability: 116.808   2.940 125.682  -6.948  -6.248 142.173

                      1                      2                      3
                      A                      A                      A
 Frequencies --     51.6495                59.0144                82.4304
 Red. masses --      5.0128                 5.2015                 3.3134
 Frc consts  --      0.0079                 0.0107                 0.0133
 IR Inten    --      4.7593                 0.3903                 2.7758

                      4                      5                      6
                      A                      A                      A
 Frequencies --     89.7420               167.1319               173.2598
 Red. masses --      4.8638                 2.5155                 3.7314
 Frc consts  --      0.0231                 0.0414                 0.0660
 IR Inten    --      0.5615                 2.6571                 1.4164

                      7                      8                      9
                      A                      A                      A
 Frequencies --    190.9524               242.9116               277.6400
 Red. masses --      1.3262                 5.2893                 3.4315
 Frc consts  --      0.0285                 0.1839                 0.1558
 IR Inten    --      1.2175                 5.3423                 2.1513

                     10                     11                     12
                      A                      A                      A
 Frequencies --    287.3543               306.4729               363.2423
 Red. masses --      2.8055                 2.2721                 1.2223
 Frc consts  --      0.1365                 0.1257                 0.0950
 IR Inten    --      6.3233                 0.3103                73.4601

                     13                     14                     15
                      A                      A                      A
 Frequencies --    390.3137               459.7562               495.0645
 Red. masses --      3.9272                 3.2587                 3.0624
 Frc consts  --      0.3525                 0.4058                 0.4422
 IR Inten    --      3.6032                 4.7573                18.1106

                     16                     17                     18
                      A                      A                      A
 Frequencies --    597.0740               601.0696               616.2832
 Red. masses --      1.6431                 2.0360                 1.2247
 Frc consts  --      0.3451                 0.4334                 0.2741
 IR Inten    --    212.0850                26.7147                58.5979

                     19                     20                     21
                      A                      A                      A
 Frequencies --    669.3682               715.9004               739.3986
 Red. masses --      4.1609                 4.9786                 2.9273
 Frc consts  --      1.0984                 1.5034                 0.9429
 IR Inten    --      4.6569                 4.9453                14.5195

                     22                     23                     24
                      A                      A                      A
 Frequencies --    782.6061               865.2829               892.7539
 Red. masses --      2.5306                 2.0289                 3.6650
 Frc consts  --      0.9132                 0.8950                 1.7210
 IR Inten    --     12.0699                17.6307                36.1491

                     25                     26                     27
                      A                      A                      A
 Frequencies --    968.7700               991.5610              1002.1460
 Red. masses --      1.7813                 1.3088                 1.4406
 Frc consts  --      0.9850                 0.7582                 0.8524
 IR Inten    --     22.7007                 6.1598                 8.8798

                     28                     29                     30
                      A                      A                      A
 Frequencies --   1016.9498              1068.5562              1114.5657
 Red. masses --      3.2805                 1.7976                 2.6747
 Frc consts  --      1.9989                 1.2093                 1.9576
 IR Inten    --     35.5611                 7.6388                12.2951

                     31                     32                     33
                      A                      A                      A
 Frequencies --   1138.6561              1151.4093              1207.1491
 Red. masses --      1.7562                 1.6030                 1.2644
 Frc consts  --      1.3415                 1.2521                 1.0856
 IR Inten    --     20.6944                 5.6334                 3.2065

                     34                     35                     36
                      A                      A                      A
 Frequencies --   1260.7619              1308.5648              1314.8353
 Red. masses --      1.4065                 1.4374                 1.1780
 Frc consts  --      1.3172                 1.4502                 1.1999
 IR Inten    --      3.4418                60.5625                21.5376

                     37                     38                     39
                      A                      A                      A
 Frequencies --   1344.1693              1379.8880              1398.9766
 Red. masses --      1.2892                 1.4265                 1.1981
 Frc consts  --      1.3724                 1.6003                 1.3816
 IR Inten    --     43.3541                13.8618                 0.4709

                     40                     41                     42
                      A                      A                      A
 Frequencies --   1408.7882              1427.0333              1496.1216
 Red. masses --      1.4809                 1.6571                 1.0764
 Frc consts  --      1.7317                 1.9882                 1.4196
 IR Inten    --      7.1339                35.8799                 6.8991

                     43                     44                     45
                      A                      A                      A
 Frequencies --   1501.9317              1504.6716              1512.2268
 Red. masses --      1.0596                 1.0898                 1.0944
 Frc consts  --      1.4083                 1.4537                 1.4745
 IR Inten    --      9.7994                 9.8721                 4.2484

                     46                     47                     48
                      A                      A                      A
 Frequencies --   1520.1407              1651.4308              1794.5637
 Red. masses --      1.0535                 1.2268                 8.4397
 Frc consts  --      1.4343                 1.9713                16.0139
 IR Inten    --      8.5366                97.7498               234.7957

                     49                     50                     51
                      A                      A                      A
 Frequencies --   3055.6028              3065.6771              3088.1621
 Red. masses --      1.0624                 1.0302                 1.0624
 Frc consts  --      5.8446                 5.7047                 5.9694
 IR Inten    --     18.5001                19.2580                24.3544

                     52                     53                     54
                      A                      A                      A
 Frequencies --   3091.2289              3110.6127              3149.2355
 Red. masses --      1.0836                 1.1011                 1.1056
 Frc consts  --      6.1009                 6.2773                 6.4606
 IR Inten    --      3.8952                14.8093                 9.4113

                     55                     56                     57
                      A                      A                      A
 Frequencies --   3150.3641              3156.1241              3450.5539
 Red. masses --      1.1042                 1.1051                 1.0756
 Frc consts  --      6.4570                 6.4858                 7.5455
 IR Inten    --      5.9039                 6.2056                 0.5953

                     58                     59                     60
                      A                      A                      A
 Frequencies --   3535.5522              3661.2520              3745.3582
 Red. masses --      1.0460                 1.1028                 1.0683
 Frc consts  --      7.7039                 8.7095                 8.8290
 IR Inten    --     49.6126                54.4843                44.4806

 - Thermochemistry -
 -------------------
 Temperature   298.150 Kelvin.  Pressure   1.00000 Atm.
 Atom     1 has atomic number  6 and mass  12.00000

 Molecular mass:   164.06195 amu.
 Principal axes and moments of inertia in atomic units:
                           1         2         3
     Eigenvalues --  1170.773782554.678822775.52347
           X            0.99977  -0.01886  -0.00977
           Y            0.01720   0.98867  -0.14909
           Z            0.01247   0.14889   0.98878
 This molecule is an asymmetric top.
 Rotational symmetry number  1.
 Warning -- assumption of classical behavior for rotation
           may cause significant error
 Rotational temperatures (Kelvin)      0.07398     0.03390     0.03121
 Rotational constants (GHZ):           1.54149     0.70645     0.65023
 Zero-point vibrational energy     483651.8 (Joules/Mol)
                                  115.59555 (Kcal/Mol)
 Warning -- explicit consideration of  18 degrees of freedom as
           vibrations may cause significant error
 Vibrational temperatures:     74.31    84.91   118.60   129.12   240.47
          (Kelvin)            249.28   274.74   349.50   399.46   413.44
                              440.95   522.62   561.57   661.49   712.29
                              859.06   864.81   886.69   963.07  1030.02
                             1063.83  1126.00  1244.95  1284.47  1393.84
                             1426.64  1441.86  1463.16  1537.41  1603.61
                             1638.27  1656.62  1736.82  1813.96  1882.73
                             1891.75  1933.96  1985.35  2012.82  2026.93
                             2053.18  2152.59  2160.94  2164.89  2175.76
                             2187.14  2376.04  2581.98  4396.33  4410.83
                             4443.18  4447.59  4475.48  4531.05  4532.67
                             4540.96  4964.58  5086.87  5267.73  5388.74

 Zero-point correction=                           0.184213 (Hartree/Particle)
 Thermal correction to Energy=                    0.196317
 Thermal correction to Enthalpy=                  0.197261
 Thermal correction to Gibbs Free Energy=         0.145515
 Sum of electronic and zero-point Energies=           -855.700446
 Sum of electronic and thermal Energies=              -855.688342
 Sum of electronic and thermal Enthalpies=            -855.687398
 Sum of electronic and thermal Free Energies=         -855.739144

                     E (Thermal)             CV                S
                      KCal/Mol        Cal/Mol-Kelvin    Cal/Mol-Kelvin
 Total                  123.190             43.408            108.909
 Electronic               0.000              0.000              0.000
 Translational            0.889              2.981             41.194
 Rotational               0.889              2.981             30.496
 Vibrational            121.413             37.446             37.219
 Vibration     1          0.596              1.977              4.753
 Vibration     2          0.596              1.974              4.490
 Vibration     3          0.600              1.961              3.832
 Vibration     4          0.602              1.956              3.666
 Vibration     5          0.624              1.883              2.467
 Vibration     6          0.627              1.875              2.400
 Vibration     7          0.634              1.852              2.219
 Vibration     8          0.659              1.774              1.781
 Vibration     9          0.679              1.715              1.548
 Vibration    10          0.685              1.697              1.489
 Vibration    11          0.697              1.661              1.381
 Vibration    12          0.737              1.548              1.108
 Vibration    13          0.758              1.491              0.999
 Vibration    14          0.818              1.339              0.767
 Vibration    15          0.851              1.261              0.671
 Vibration    16          0.955              1.038              0.455
 Vibration    17          0.959              1.030              0.448
 Vibration    18          0.976              0.997              0.422

 Optimization completed.
    -- Stationary point found.
 Normal termination of Gaussian 16 at Tue Dec  8 10:35:09 2020.

 ----------------------------------------------------------------------
 # B3LYP/6-311++G(d,p) empiricaldispersion=gd3bj scf=xqc pop=npa geom=c
 heck
 ----------------------------------------------------------------------

 --------------------------------------
 CID_129938075_JID_384_Energie_neutraal
 --------------------------------------
 Structure from the checkpoint file:  "JID_384.chk"
 Charge =  0 Multiplicity = 1

 SCF Done:  E(RB3LYP) =  -856.068242307     A.U. after   14 cycles
 Normal termination of Gaussian 16 at Tue Dec  8 10:38:08 2020.

 ----------------------------------------------------------------------
 # B3LYP/6-311++G(d,p) empiricaldispersion=gd3bj scf=xqc pop=npa geom=c
 heck
 ----------------------------------------------------------------------

 ------------------------------------
 CID_129938075_JID_384_Energie_kation
 ------------------------------------
 Structure from the checkpoint file:  "JID_384.chk"
 Charge =  1 Multiplicity = 2

 SCF Done:  E(UB3LYP) =  -855.765917265     A.U. after   22 cycles
 Normal termination of Gaussian 16 at Tue Dec  8 10:42:05 2020.
 Gaussian 16:  ES64L-G16RevA.03 25-Dec-2016

 ----------------------------------------------------------------------
 # B3LYP/6-311++G(d,p) empiricaldispersion=gd3bj scf=xqc pop=npa geom=c
 heck
 ----------------------------------------------------------------------

 -----------------------------------
 CID_129938075_JID_384_Energie_anion
 -----------------------------------
 Structure from the checkpoint file:  "JID_384.chk"
 Charge = -1 Multiplicity = 2

                         Standard orientation:
 ---------------------------------------------------------------------
 Center     Atomic      Atomic             Coordinates (Angstroms)
 Number     Number       Type             X           Y           Z
 ---------------------------------------------------------------------
      1          6           0       -2.151219    1.323796   -0.901548
      2         16           0       -2.504593   -0.444747   -0.591065
      3          6           0       -1.612055   -0.709193    0.996665
      4          6           0       -0.209612   -1.314346    0.866049
      5          6           0        0.745672   -0.508241   -0.011220
      6          6           0        1.015875    0.894573    0.565067
      7          8           0        0.705673    1.214760    1.706364
      8          7           0        1.625227    1.752668   -0.311048
      9          7           0        1.987741   -1.294529   -0.174176
     10          8           0        2.839661   -0.641114   -1.151087
     11          1           0       -2.746482    1.612539   -1.771931
     12          1           0       -1.096602    1.510639   -1.117908
     13          1           0       -2.459006    1.932249   -0.046641
     14          1           0       -1.566869    0.243288    1.528735
     15          1           0       -2.239706   -1.387404    1.582144
     16          1           0        0.210641   -1.400313    1.876103
     17          1           0       -0.274248   -2.321214    0.441841
     18          1           0        0.316403   -0.419281   -1.014123
     19          1           0        2.153893    1.336676   -1.070174
     20          1           0        1.987101    2.608251    0.092621
     21          1           0        2.535575   -1.217432    0.685409
     22          1           0        2.867381   -1.297727   -1.864767
 ---------------------------------------------------------------------

 SCF Done:  E(UB3LYP) =  -856.055278361     A.U. after   32 cycles

 The electronic state is 2-A.
 Alpha  occ. eigenvalues --  -88.73822 -19.04228 -18.98851 -14.25474 -14.21606
 Alpha  occ. eigenvalues --  -10.16626 -10.10471 -10.09962 -10.08990 -10.07648
 Alpha  occ. eigenvalues --   -7.82419  -5.78822  -5.78454  -5.77782  -0.95568
 Alpha  occ. eigenvalues --   -0.93445  -0.79483  -0.75360  -0.70511  -0.64797
 Alpha  occ. eigenvalues --   -0.58947  -0.54108  -0.49368  -0.45914  -0.43196
 Alpha  occ. eigenvalues --   -0.41120  -0.39196  -0.37116  -0.35211  -0.33882
 Alpha  occ. eigenvalues --   -0.33067  -0.31995  -0.31438  -0.30194  -0.28172
 Alpha  occ. eigenvalues --   -0.27838  -0.26360  -0.24289  -0.20890  -0.19472
 Alpha  occ. eigenvalues --   -0.17777  -0.16962  -0.13722  -0.12525   0.04967
 Alpha virt. eigenvalues --    0.07454   0.07926   0.08458   0.09529   0.09912
 Alpha virt. eigenvalues --    0.10502   0.11464   0.11877   0.12714   0.13213
 Alpha virt. eigenvalues --    0.13370   0.14261   0.15251   0.15436   0.16323

  Beta  occ. eigenvalues --  -88.73817 -19.04142 -18.98827 -14.25439 -14.21553
  Beta  occ. eigenvalues --  -10.16613 -10.10457 -10.09959 -10.08959 -10.07641
  Beta  occ. eigenvalues --   -7.82415  -5.78814  -5.78447  -5.77779  -0.95428
  Beta  occ. eigenvalues --   -0.93392  -0.79396  -0.75257  -0.70469  -0.64749
  Beta  occ. eigenvalues --   -0.58877  -0.54046  -0.49314  -0.45846  -0.43144
  Beta  occ. eigenvalues --   -0.41011  -0.39104  -0.37058  -0.35182  -0.33824
  Beta  occ. eigenvalues --   -0.33022  -0.31962  -0.31400  -0.30134  -0.28131
  Beta  occ. eigenvalues --   -0.27781  -0.26336  -0.24254  -0.20859  -0.19385
  Beta  occ. eigenvalues --   -0.17735  -0.16881  -0.13658  -0.12507
  Beta virt. eigenvalues --    0.07555   0.07934   0.08647   0.09571   0.09919
  Beta virt. eigenvalues --    0.10068   0.11106   0.11630   0.11974   0.12903
  Beta virt. eigenvalues --    0.13317   0.14295   0.14565   0.15447   0.15609

 Mulliken charges and spin densities:
               1          2
     1  C    0.133654  -0.864227
     2  S   -0.039294   0.207401
     3  C   -0.269272   0.096767
     4  C    0.012498  -0.471632
     5  C    1.053317  -1.492273
     6  C   -0.097647  -0.078638
     7  O   -0.342693   0.026280
     8  N   -0.273138   0.064809
     9  N   -0.244082   0.165339
    10  O   -0.197640  -0.016015
    11  H   -0.249243   0.431343
    12  H   -0.229556   0.411565
    13  H    0.009296   0.165506
    14  H    0.169232  -0.014844
    15  H    0.210373   0.016516
    16  H    0.138824   0.021578
    17  H    0.133733   0.045161
    18  H   -0.082908   0.330883
    19  H   -0.025718   0.310329
    20  H   -0.360025   0.626539
    21  H    0.026046   0.237063
    22  H   -0.475760   0.780551
 Sum of Mulliken charges =  -1.00000   1.00000

 Dipole moment (field-independent basis, Debye):
    X=             -5.6007    Y=             -2.2083    Z=              5.3519  Tot=              8.0552
 Quadrupole moment (field-independent basis, Debye-Ang):
   XX=           -123.0249   YY=           -104.0238   ZZ=           -105.5197
   XY=              3.1853   XZ=              8.8664   YZ=             -6.3058

 Summary of Natural Population Analysis:

                                       Natural Population
                Natural  -----------------------------------------------
    Atom  No    Charge         Core      Valence    Rydberg      Total
 -----------------------------------------------------------------------
      C    1   -0.34887      0.99962     2.34264    0.00661     3.34887
      S    2    0.07433      4.99965     2.90628    0.01975     7.92567
      C    3   -0.24952      0.99958     2.24131    0.00863     3.24952
      C    4   -0.19799      0.99959     2.18686    0.01153     3.19799
      C    5   -0.06611      0.99953     2.05028    0.01630     3.06611
      C    6    0.33160      0.99968     1.64401    0.02471     2.66840
      O    7   -0.32755      0.99988     3.32133    0.00634     4.32755
      N    8   -0.40183      0.99970     2.89286    0.00927     3.90183
      N    9   -0.17303      0.99973     2.65827    0.01504     3.67303
      O   10   -0.30572      0.99991     3.29785    0.00796     4.30572
      H   11    0.10618      0.00000     0.39255    0.00127     0.39382
      H   12    0.10735      0.00000     0.39026    0.00239     0.39265
      H   13    0.10053      0.00000     0.39802    0.00145     0.39947
      H   14    0.11374      0.00000     0.38484    0.00141     0.38626
      H   15    0.10135      0.00000     0.39768    0.00097     0.39865
      H   16    0.10394      0.00000     0.39485    0.00121     0.39606
      H   17    0.10489      0.00000     0.39373    0.00139     0.39511
      H   18    0.11263      0.00000     0.38422    0.00315     0.38737
      H   19    0.20982      0.00000     0.28307    0.00712     0.29018
      H   20    0.19221      0.00000     0.30447    0.00332     0.30779
      H   21    0.16595      0.00000     0.33101    0.00304     0.33405
      H   22    0.24610      0.00000     0.21743    0.03647     0.25390
 =======================================================================
   * Total *    0.00000     13.99686    29.81382    0.18932    44.00000

 Normal termination of Gaussian 16 at Tue Dec  8 10:47:55 2020.
