 Gaussian 16, Revision A.03,

 -----------------------------------------------------------
 # opt freq B3LYP/6-31G(d) empiricaldispersion=gd3bj scf=xqc
 -----------------------------------------------------------

 ------------------------------
 CID_79952274_JID_4366_neutraal
 ------------------------------
 Symbolic Z-matrix:
 Charge =  0 Multiplicity = 1

 SCF Done:  E(RB3LYP) =  -995.951794138     A.U. after   14 cycles
 SCF Done:  E(RB3LYP) =  -995.956609136     A.U. after   13 cycles
 SCF Done:  E(RB3LYP) =  -995.956588455     A.U. after   12 cycles
 SCF Done:  E(RB3LYP) =  -995.956702911     A.U. after   12 cycles
 SCF Done:  E(RB3LYP) =  -995.958028345     A.U. after   12 cycles
 SCF Done:  E(RB3LYP) =  -995.958302204     A.U. after   11 cycles
 SCF Done:  E(RB3LYP) =  -995.958351021     A.U. after   11 cycles
 SCF Done:  E(RB3LYP) =  -995.958408492     A.U. after   11 cycles
 SCF Done:  E(RB3LYP) =  -995.958413506     A.U. after   11 cycles
 SCF Done:  E(RB3LYP) =  -995.958425457     A.U. after    9 cycles
 SCF Done:  E(RB3LYP) =  -995.958427646     A.U. after    9 cycles
 SCF Done:  E(RB3LYP) =  -995.958428562     A.U. after    8 cycles
 SCF Done:  E(RB3LYP) =  -995.958428892     A.U. after    7 cycles
 SCF Done:  E(RB3LYP) =  -995.958428884     A.U. after    6 cycles
 Optimization completed.
    -- Stationary point found.
 Normal termination of Gaussian 16 at Thu Dec 10 09:29:23 2020.

 --------------------------------------------------------------------
 #N Geom=AllCheck Guess=TCheck SCRF=Check GenChk RB3LYP/6-31G(d) Freq
 --------------------------------------------------------------------

 Structure from the checkpoint file:  "JID_4366.chk"
 ------------------------------
 CID_79952274_JID_4366_neutraal
 ------------------------------
 Charge =  0 Multiplicity = 1

 SCF Done:  E(RB3LYP) =  -995.958428884     A.U. after    1 cycles

  Exact polarizability: 145.898  -4.688 122.234  -4.519  -4.567 120.140
 Approx polarizability: 204.754  -5.101 184.143  -2.716  -8.360 181.887

                      1                      2                      3
                      A                      A                      A
 Frequencies --     59.9612                62.9543                82.4443
 Red. masses --      4.3209                 4.7261                 3.9463
 Frc consts  --      0.0092                 0.0110                 0.0158
 IR Inten    --      0.8165                 1.5653                 0.8697

                      4                      5                      6
                      A                      A                      A
 Frequencies --    125.3458               159.8314               171.4399
 Red. masses --      4.1056                 2.9715                 2.8371
 Frc consts  --      0.0380                 0.0447                 0.0491
 IR Inten    --      0.2572                 0.5854                 0.7963

                      7                      8                      9
                      A                      A                      A
 Frequencies --    192.7625               197.4053               237.7016
 Red. masses --      1.4339                 1.8496                 1.4623
 Frc consts  --      0.0314                 0.0425                 0.0487
 IR Inten    --      0.5219                 0.4652                 0.5687

                     10                     11                     12
                      A                      A                      A
 Frequencies --    245.9726               254.8099               282.0218
 Red. masses --      2.0171                 1.6343                 2.2517
 Frc consts  --      0.0719                 0.0625                 0.1055
 IR Inten    --      1.1039                 0.1316                 0.8183

                     13                     14                     15
                      A                      A                      A
 Frequencies --    285.4043               334.1959               349.9758
 Red. masses --      2.8053                 3.0782                 3.8531
 Frc consts  --      0.1346                 0.2026                 0.2781
 IR Inten    --      1.4354                 0.4154                 0.5087

                     16                     17                     18
                      A                      A                      A
 Frequencies --    365.4113               370.6578               422.0622
 Red. masses --      2.1216                 4.2699                 3.1217
 Frc consts  --      0.1669                 0.3456                 0.3276
 IR Inten    --      1.9511                 4.2676                 3.7167

                     19                     20                     21
                      A                      A                      A
 Frequencies --    435.2369               463.8061               467.4530
 Red. masses --      2.5241                 2.3546                 3.0406
 Frc consts  --      0.2817                 0.2984                 0.3915
 IR Inten    --      1.8719                 1.1396                 3.0006

                     22                     23                     24
                      A                      A                      A
 Frequencies --    509.4441               553.4611               598.0854
 Red. masses --      2.5885                 2.3852                 2.8736
 Frc consts  --      0.3958                 0.4305                 0.6056
 IR Inten    --      4.5413                 7.2295                32.5551

                     25                     26                     27
                      A                      A                      A
 Frequencies --    645.8454               668.9532               693.2108
 Red. masses --      1.8487                 2.3176                 3.0960
 Frc consts  --      0.4543                 0.6111                 0.8766
 IR Inten    --     37.4359                32.4807                34.1774

                     28                     29                     30
                      A                      A                      A
 Frequencies --    718.6563               775.6019               827.3947
 Red. masses --      3.5946                 3.6035                 2.5800
 Frc consts  --      1.0938                 1.2772                 1.0406
 IR Inten    --     19.5314                 9.1885                 8.0970

                     31                     32                     33
                      A                      A                      A
 Frequencies --    854.5343               880.8903               918.8374
 Red. masses --      1.7034                 2.6717                 2.1950
 Frc consts  --      0.7329                 1.2214                 1.0918
 IR Inten    --      7.3333                 2.7825                 2.2991

                     34                     35                     36
                      A                      A                      A
 Frequencies --    928.5852               958.5264               996.9638
 Red. masses --      2.3494                 2.6919                 2.3696
 Frc consts  --      1.1936                 1.4572                 1.3877
 IR Inten    --      1.5823                12.0171                18.8329

                     37                     38                     39
                      A                      A                      A
 Frequencies --   1014.0873              1050.8106              1065.6044
 Red. masses --      1.9813                 1.9161                 2.0667
 Frc consts  --      1.2005                 1.2466                 1.3827
 IR Inten    --     13.5467                14.8673                25.6986

                     40                     41                     42
                      A                      A                      A
 Frequencies --   1077.1469              1082.4624              1092.2515
 Red. masses --      1.7374                 1.7953                 2.0028
 Frc consts  --      1.1876                 1.2394                 1.4077
 IR Inten    --     13.2401                20.4933                10.8511

                     43                     44                     45
                      A                      A                      A
 Frequencies --   1124.9836              1132.7502              1148.9789
 Red. masses --      1.8177                 1.3032                 2.0072
 Frc consts  --      1.3554                 0.9852                 1.5612
 IR Inten    --     22.0055                 2.6829                70.9303

                     46                     47                     48
                      A                      A                      A
 Frequencies --   1178.0441              1198.5509              1211.2461
 Red. masses --      1.8672                 1.4413                 1.8815
 Frc consts  --      1.5268                 1.2199                 1.6263
 IR Inten    --     59.1766                 1.7787                18.4586

                     49                     50                     51
                      A                      A                      A
 Frequencies --   1227.9963              1262.7088              1284.2529
 Red. masses --      1.4062                 1.7660                 1.4189
 Frc consts  --      1.2494                 1.6590                 1.3788
 IR Inten    --     14.5437                67.7882                12.1148

                     52                     53                     54
                      A                      A                      A
 Frequencies --   1306.3133              1311.0443              1326.7480
 Red. masses --      1.8911                 1.3260                 1.3401
 Frc consts  --      1.9014                 1.3428                 1.3898
 IR Inten    --      5.7706                24.9903                 6.2646

                     55                     56                     57
                      A                      A                      A
 Frequencies --   1342.7766              1354.5626              1365.2522
 Red. masses --      1.2967                 1.3838                 1.4931
 Frc consts  --      1.3775                 1.4959                 1.6397
 IR Inten    --      6.1549                 6.1712                 2.2168

                     58                     59                     60
                      A                      A                      A
 Frequencies --   1382.6257              1402.5982              1414.6487
 Red. masses --      1.8598                 1.5460                 1.4237
 Frc consts  --      2.0947                 1.7920                 1.6787
 IR Inten    --     36.0873                15.5108                 6.9254

                     61                     62                     63
                      A                      A                      A
 Frequencies --   1439.2451              1475.0207              1497.9707
 Red. masses --      1.2125                 1.1494                 1.0937
 Frc consts  --      1.4798                 1.4734                 1.4459
 IR Inten    --      8.8477                 0.7748                15.8499

                     64                     65                     66
                      A                      A                      A
 Frequencies --   1501.5495              1507.6458              1514.4615
 Red. masses --      1.0991                 1.1208                 1.0990
 Frc consts  --      1.4601                 1.5010                 1.4851
 IR Inten    --      6.6140                 2.9141                 0.6352

                     67                     68                     69
                      A                      A                      A
 Frequencies --   1516.8750              1520.4083              1532.3933
 Red. masses --      1.0449                 1.0812                 1.0627
 Frc consts  --      1.4165                 1.4726                 1.4703
 IR Inten    --      3.7701                 3.6666                16.2728

                     70                     71                     72
                      A                      A                      A
 Frequencies --   1535.8137              1545.1229              1545.8354
 Red. masses --      1.0613                 1.0543                 1.0526
 Frc consts  --      1.4750                 1.4829                 1.4820
 IR Inten    --      5.8499                 2.1628                 1.0831

                     73                     74                     75
                      A                      A                      A
 Frequencies --   1562.5470              1834.0080              2988.6652
 Red. masses --      1.0503                 9.0015                 1.0574
 Frc consts  --      1.5109                17.8388                 5.5646
 IR Inten    --      2.5715               277.0482                43.4699

                     76                     77                     78
                      A                      A                      A
 Frequencies --   3016.6684              3038.1432              3063.5669
 Red. masses --      1.0525                 1.0651                 1.0655
 Frc consts  --      5.6432                 5.7924                 5.8921
 IR Inten    --     63.7676                36.8484                13.4557

                     79                     80                     81
                      A                      A                      A
 Frequencies --   3070.1899              3077.4406              3079.5510
 Red. masses --      1.0625                 1.0431                 1.0894
 Frc consts  --      5.9007                 5.8207                 6.0873
 IR Inten    --     12.8361                15.7886                26.5350

                     82                     83                     84
                      A                      A                      A
 Frequencies --   3085.5429              3089.9654              3093.6233
 Red. masses --      1.0843                 1.0784                 1.0639
 Frc consts  --      6.0820                 6.0667                 5.9988
 IR Inten    --     22.5314                58.8050                17.1698

                     85                     86                     87
                      A                      A                      A
 Frequencies --   3114.6181              3119.3612              3126.4085
 Red. masses --      1.1025                 1.1033                 1.0886
 Frc consts  --      6.3013                 6.3255                 6.2690
 IR Inten    --     27.7271                24.7065                 6.0808

                     88                     89                     90
                      A                      A                      A
 Frequencies --   3145.0857              3146.4915              3155.0415
 Red. masses --      1.0981                 1.1034                 1.1018
 Frc consts  --      6.3996                 6.4361                 6.4617
 IR Inten    --     19.7556                 5.6204                20.2459

                     91                     92                     93
                      A                      A                      A
 Frequencies --   3157.3643              3170.4461              3679.3762
 Red. masses --      1.0941                 1.0930                 1.0639
 Frc consts  --      6.4263                 6.4729                 8.4862
 IR Inten    --     30.8717                19.9331                50.1313

 - Thermochemistry -
 -------------------
 Temperature   298.150 Kelvin.  Pressure   1.00000 Atm.
 Atom     1 has atomic number  6 and mass  12.00000

 Molecular mass:   217.11365 amu.
 Principal axes and moments of inertia in atomic units:
                           1         2         3
     Eigenvalues --  2158.579623520.504083982.21270
           X            0.99969  -0.01103  -0.02221
           Y            0.01099   0.99994  -0.00191
           Z            0.02223   0.00166   0.99975
 This molecule is an asymmetric top.
 Rotational symmetry number  1.
 Warning -- assumption of classical behavior for rotation
           may cause significant error
 Rotational temperatures (Kelvin)      0.04013     0.02460     0.02175
 Rotational constants (GHZ):           0.83608     0.51264     0.45320
 Zero-point vibrational energy     762025.6 (Joules/Mol)
                                  182.12850 (Kcal/Mol)
 Warning -- explicit consideration of  24 degrees of freedom as
           vibrations may cause significant error
 Vibrational temperatures:     86.27    90.58   118.62   180.34   229.96
          (Kelvin)            246.66   277.34   284.02   342.00   353.90
                              366.61   405.77   410.63   480.83   503.54
                              525.75   533.29   607.25   626.21   667.31
                              672.56   732.98   796.31   860.51   929.23
                              962.47   997.38  1033.99  1115.92  1190.44
                             1229.48  1267.40  1322.00  1336.03  1379.11
                             1434.41  1459.05  1511.88  1533.17  1549.77
                             1557.42  1571.51  1618.60  1629.77  1653.12
                             1694.94  1724.45  1742.71  1766.81  1816.76
                             1847.75  1879.49  1886.30  1908.89  1931.96
                             1948.91  1964.29  1989.29  2018.03  2035.36
                             2070.75  2122.23  2155.25  2160.39  2169.17
                             2178.97  2182.44  2187.53  2204.77  2209.69
                             2223.09  2224.11  2248.16  2638.73  4300.02
                             4340.31  4371.21  4407.79  4417.32  4427.75
                             4430.79  4439.41  4445.77  4451.03  4481.24
                             4488.06  4498.20  4525.08  4527.10  4539.40
                             4542.74  4561.56  5293.80

 Zero-point correction=                           0.290240 (Hartree/Particle)
 Thermal correction to Energy=                    0.305349
 Thermal correction to Enthalpy=                  0.306293
 Thermal correction to Gibbs Free Energy=         0.249172
 Sum of electronic and zero-point Energies=           -995.668189
 Sum of electronic and thermal Energies=              -995.653080
 Sum of electronic and thermal Enthalpies=            -995.652136
 Sum of electronic and thermal Free Energies=         -995.709257

                     E (Thermal)             CV                S
                      KCal/Mol        Cal/Mol-Kelvin    Cal/Mol-Kelvin
 Total                  191.609             58.524            120.220
 Electronic               0.000              0.000              0.000
 Translational            0.889              2.981             42.029
 Rotational               0.889              2.981             31.782
 Vibrational            189.832             52.563             46.410
 Vibration     1          0.597              1.973              4.458
 Vibration     2          0.597              1.972              4.362
 Vibration     3          0.600              1.961              3.832
 Vibration     4          0.610              1.928              3.016
 Vibration     5          0.622              1.892              2.552
 Vibration     6          0.626              1.878              2.420
 Vibration     7          0.635              1.850              2.201
 Vibration     8          0.637              1.844              2.157
 Vibration     9          0.656              1.783              1.820
 Vibration    10          0.660              1.769              1.759
 Vibration    11          0.665              1.755              1.697
 Vibration    12          0.681              1.707              1.521
 Vibration    13          0.683              1.701              1.501
 Vibration    14          0.716              1.607              1.240
 Vibration    15          0.727              1.575              1.166
 Vibration    16          0.739              1.543              1.099
 Vibration    17          0.743              1.532              1.077
 Vibration    18          0.784              1.422              0.885
 Vibration    19          0.796              1.393              0.842
 Vibration    20          0.821              1.330              0.755
 Vibration    21          0.825              1.322              0.745
 Vibration    22          0.865              1.229              0.635
 Vibration    23          0.909              1.132              0.537
 Vibration    24          0.956              1.036              0.453

 Optimization completed.
    -- Stationary point found.
 Normal termination of Gaussian 16 at Thu Dec 10 09:42:28 2020.

 ----------------------------------------------------------------------
 # B3LYP/6-311++G(d,p) empiricaldispersion=gd3bj scf=xqc pop=npa geom=c
 heck
 ----------------------------------------------------------------------

 --------------------------------------
 CID_79952274_JID_4366_Energie_neutraal
 --------------------------------------
 Structure from the checkpoint file:  "JID_4366.chk"
 Charge =  0 Multiplicity = 1

 SCF Done:  E(RB3LYP) =  -996.163644804     A.U. after   14 cycles
 Normal termination of Gaussian 16 at Thu Dec 10 09:48:33 2020.

 ----------------------------------------------------------------------
 # B3LYP/6-311++G(d,p) empiricaldispersion=gd3bj scf=xqc pop=npa geom=c
 heck
 ----------------------------------------------------------------------

 ------------------------------------
 CID_79952274_JID_4366_Energie_kation
 ------------------------------------
 Structure from the checkpoint file:  "JID_4366.chk"
 Charge =  1 Multiplicity = 2

 SCF Done:  E(UB3LYP) =  -995.879710276     A.U. after   26 cycles
 Normal termination of Gaussian 16 at Thu Dec 10 10:04:23 2020.
 Gaussian 16:  ES64L-G16RevA.03 25-Dec-2016

 ----------------------------------------------------------------------
 # B3LYP/6-311++G(d,p) empiricaldispersion=gd3bj scf=xqc pop=npa geom=c
 heck
 ----------------------------------------------------------------------

 -----------------------------------
 CID_79952274_JID_4366_Energie_anion
 -----------------------------------
 Structure from the checkpoint file:  "JID_4366.chk"
 Charge = -1 Multiplicity = 2

                         Standard orientation:
 ---------------------------------------------------------------------
 Center     Atomic      Atomic             Coordinates (Angstroms)
 Number     Number       Type             X           Y           Z
 ---------------------------------------------------------------------
      1          6           0        1.300922    0.898745    2.002417
      2          6           0        0.720252   -0.130489    1.024321
      3          6           0       -0.066145    0.504145   -0.170152
      4          6           0        0.927969    1.301455   -1.061614
      5          6           0        2.110858    0.512626   -1.643880
      6          6           0        2.994566   -0.149830   -0.590609
      7         16           0        2.034243   -1.298726    0.461129
      8          6           0       -0.720709   -0.591522   -1.079025
      9          6           0       -1.886362   -1.359649   -0.514358
     10          8           0       -3.030898   -1.303232   -0.912040
     11          8           0       -1.525828   -2.182284    0.507487
     12          7           0       -1.049169    1.475339    0.376548
     13          6           0       -1.853032    2.189959   -0.613266
     14          6           0       -1.935363    1.010921    1.444492
     15          1           0        1.699747    0.385598    2.881713
     16          1           0        0.541202    1.617956    2.316269
     17          1           0        2.117623    1.471165    1.554487
     18          1           0        0.050778   -0.801590    1.563883
     19          1           0        1.297424    2.144764   -0.468109
     20          1           0        0.385049    1.733526   -1.906214
     21          1           0        2.722670    1.206913   -2.235802
     22          1           0        1.749530   -0.252304   -2.340957
     23          1           0        3.490846    0.600602    0.034431
     24          1           0        3.776734   -0.756110   -1.057352
     25          1           0       -1.081712   -0.120892   -1.995663
     26          1           0        0.048778   -1.320993   -1.344870
     27          1           0       -2.345358   -2.632774    0.786716
     28          1           0       -2.570318    1.543366   -1.146985
     29          1           0       -2.429099    2.961696   -0.091634
     30          1           0       -1.226965    2.699122   -1.347132
     31          1           0       -2.756190    0.365128    1.096932
     32          1           0       -1.386098    0.481411    2.222485
     33          1           0       -2.392279    1.891621    1.910358
 ---------------------------------------------------------------------

 SCF Done:  E(UB3LYP) =  -996.151138646     A.U. after   31 cycles

 The electronic state is 2-A.
 Alpha  occ. eigenvalues --  -88.73600 -19.07401 -19.02043 -14.21022 -10.21254
 Alpha  occ. eigenvalues --  -10.13013 -10.10614 -10.09825 -10.08724 -10.08668
 Alpha  occ. eigenvalues --  -10.08361 -10.07566 -10.07115 -10.06367  -7.82251
 Alpha  occ. eigenvalues --   -5.78630  -5.78285  -5.77617  -1.01485  -0.92498
 Alpha  occ. eigenvalues --   -0.83157  -0.74258  -0.68308  -0.67664  -0.63808
 Alpha  occ. eigenvalues --   -0.60748  -0.58764  -0.55131  -0.51798  -0.51323
 Alpha  occ. eigenvalues --   -0.48628  -0.43269  -0.41312  -0.39943  -0.38832
 Alpha  occ. eigenvalues --   -0.38725  -0.36087  -0.35747  -0.34115  -0.33517
 Alpha  occ. eigenvalues --   -0.33236  -0.32707  -0.31562  -0.30652  -0.30362
 Alpha  occ. eigenvalues --   -0.29272  -0.28324  -0.27521  -0.27147  -0.26753
 Alpha  occ. eigenvalues --   -0.25978  -0.24247  -0.23903  -0.23248  -0.21675
 Alpha  occ. eigenvalues --   -0.19765  -0.18766  -0.12747  -0.11860   0.04233
 Alpha virt. eigenvalues --    0.06011   0.07147   0.07483   0.08328   0.08514
 Alpha virt. eigenvalues --    0.09143   0.09347   0.10138   0.10619   0.11270
 Alpha virt. eigenvalues --    0.11961   0.12305   0.12785   0.12940   0.13223

  Beta  occ. eigenvalues --  -88.73598 -19.07358 -19.02033 -14.21017 -10.21252
  Beta  occ. eigenvalues --  -10.13014 -10.10609 -10.09803 -10.08703 -10.08640
  Beta  occ. eigenvalues --  -10.08345 -10.07537 -10.07098 -10.06350  -7.82248
  Beta  occ. eigenvalues --   -5.78628  -5.78284  -5.77615  -1.01430  -0.92453
  Beta  occ. eigenvalues --   -0.83142  -0.74233  -0.68276  -0.67635  -0.63769
  Beta  occ. eigenvalues --   -0.60705  -0.58727  -0.55088  -0.51721  -0.51273
  Beta  occ. eigenvalues --   -0.48573  -0.43227  -0.41284  -0.39910  -0.38809
  Beta  occ. eigenvalues --   -0.38698  -0.36061  -0.35720  -0.34087  -0.33473
  Beta  occ. eigenvalues --   -0.33201  -0.32675  -0.31535  -0.30624  -0.30335
  Beta  occ. eigenvalues --   -0.29244  -0.28299  -0.27489  -0.27116  -0.26729
  Beta  occ. eigenvalues --   -0.25948  -0.24218  -0.23868  -0.23222  -0.21651
  Beta  occ. eigenvalues --   -0.19742  -0.18734  -0.12734  -0.11843
  Beta virt. eigenvalues --    0.06500   0.07349   0.07817   0.07942   0.08533
  Beta virt. eigenvalues --    0.09002   0.09609   0.09812   0.10341   0.10768
  Beta virt. eigenvalues --    0.11701   0.12213   0.12752   0.13039   0.13182

 Mulliken charges and spin densities:
               1          2
     1  C    0.246618  -0.710168
     2  C   -1.607103   1.082749
     3  C    1.317718  -0.994232
     4  C   -0.687493   0.497576
     5  C    0.474104  -0.595610
     6  C   -0.006500  -0.799127
     7  S    0.321373  -0.431369
     8  C   -0.826832   0.305474
     9  C    0.701174  -1.049967
    10  O   -0.254285   0.054755
    11  O   -0.172793   0.045989
    12  N    0.179217   0.071119
    13  C    0.501129  -0.742879
    14  C    0.373034  -0.735943
    15  H   -0.049060   0.209656
    16  H    0.125436   0.029369
    17  H   -0.016558   0.142920
    18  H    0.392627  -0.084332
    19  H   -0.190617   0.404717
    20  H    0.216527  -0.081861
    21  H   -0.938432   1.140140
    22  H    0.010986   0.138949
    23  H    0.174886   0.007451
    24  H   -0.212391   0.433650
    25  H   -0.097074   0.336283
    26  H    0.196252  -0.058818
    27  H   -0.294585   0.600672
    28  H    0.149390   0.015038
    29  H    0.025972   0.111330
    30  H   -0.381316   0.507220
    31  H   -0.139908   0.322802
    32  H   -0.253557   0.387274
    33  H   -0.277937   0.439173
 Sum of Mulliken charges =  -1.00000   1.00000

 Dipole moment (field-independent basis, Debye):
    X=              0.2567    Y=             -0.6721    Z=              0.8846  Tot=              1.1403
 Quadrupole moment (field-independent basis, Debye-Ang):
   XX=           -158.8065   YY=           -141.4924   ZZ=           -137.7175
   XY=             -8.3140   XZ=              9.9832   YZ=              7.2913

 Summary of Natural Population Analysis:

                                       Natural Population
                Natural  -----------------------------------------------
    Atom  No    Charge         Core      Valence    Rydberg      Total
 -----------------------------------------------------------------------
      C    1   -0.29221      0.99962     2.28540    0.00719     3.29221
      C    2   -0.17712      0.99950     2.16264    0.01498     3.17712
      C    3    0.08560      0.99950     1.89739    0.01751     2.91440
      C    4   -0.19922      0.99957     2.18642    0.01323     3.19922
      C    5   -0.19490      0.99961     2.18497    0.01032     3.19490
      C    6   -0.25064      0.99959     2.24022    0.01083     3.25064
      S    7    0.09580      4.99962     2.88893    0.01566     7.90420
      C    8   -0.26178      0.99951     2.25099    0.01129     3.26178
      C    9    0.41100      0.99970     1.56335    0.02594     2.58900
      O   10   -0.30810      0.99987     3.30239    0.00584     4.30810
      O   11   -0.34757      0.99988     3.34066    0.00704     4.34757
      N   12   -0.29277      0.99970     2.77879    0.01429     3.79277
      C   13   -0.17979      0.99963     2.17182    0.00834     3.17979
      C   14   -0.18164      0.99962     2.17323    0.00878     3.18164
      H   15    0.10216      0.00000     0.39677    0.00107     0.39784
      H   16    0.10843      0.00000     0.39032    0.00125     0.39157
      H   17    0.09861      0.00000     0.40031    0.00108     0.40139
      H   18    0.11819      0.00000     0.38003    0.00178     0.38181
      H   19    0.10662      0.00000     0.39152    0.00186     0.39338
      H   20    0.10416      0.00000     0.39428    0.00155     0.39584
      H   21    0.10622      0.00000     0.39108    0.00270     0.39378
      H   22    0.09656      0.00000     0.40205    0.00139     0.40344
      H   23    0.09834      0.00000     0.40017    0.00149     0.40166
      H   24    0.10817      0.00000     0.39075    0.00107     0.39183
      H   25    0.11326      0.00000     0.38567    0.00106     0.38674
      H   26    0.12619      0.00000     0.37183    0.00198     0.37381
      H   27    0.24345      0.00000     0.24785    0.00869     0.25655
      H   28    0.08729      0.00000     0.41157    0.00113     0.41271
      H   29    0.09595      0.00000     0.40316    0.00089     0.40405
      H   30    0.09713      0.00000     0.40170    0.00117     0.40287
      H   31    0.08861      0.00000     0.40989    0.00151     0.41139
      H   32    0.09776      0.00000     0.40091    0.00133     0.40224
      H   33    0.09624      0.00000     0.40277    0.00099     0.40376
 =======================================================================
   * Total *    0.00000     17.99491    40.79986    0.20524    59.00000

 Normal termination of Gaussian 16 at Thu Dec 10 10:23:19 2020.
