 Gaussian 16, Revision A.03,

 -----------------------------------------------------------
 # opt freq B3LYP/6-31G(d) empiricaldispersion=gd3bj scf=xqc
 -----------------------------------------------------------

 --------------------------------
 CID_106372390_JID_10252_neutraal
 --------------------------------
 Symbolic Z-matrix:
 Charge =  0 Multiplicity = 1

 SCF Done:  E(RB3LYP) =  -1651.39504108     A.U. after   15 cycles
 SCF Done:  E(RB3LYP) =  -1651.39344558     A.U. after   14 cycles
 SCF Done:  E(RB3LYP) =  -1651.40105537     A.U. after   14 cycles
 SCF Done:  E(RB3LYP) =  -1651.40307485     A.U. after   13 cycles
 SCF Done:  E(RB3LYP) =  -1651.40279225     A.U. after   14 cycles
 SCF Done:  E(RB3LYP) =  -1651.40508221     A.U. after   13 cycles
 SCF Done:  E(RB3LYP) =  -1651.40613342     A.U. after   13 cycles
 SCF Done:  E(RB3LYP) =  -1651.40650939     A.U. after   13 cycles
 SCF Done:  E(RB3LYP) =  -1651.40655758     A.U. after   14 cycles
 SCF Done:  E(RB3LYP) =  -1651.40727895     A.U. after   13 cycles
 SCF Done:  E(RB3LYP) =  -1651.41179178     A.U. after   11 cycles
 SCF Done:  E(RB3LYP) =  -1651.41179271     A.U. after    9 cycles
 SCF Done:  E(RB3LYP) =  -1651.41179392     A.U. after   10 cycles
 SCF Done:  E(RB3LYP) =  -1651.41179404     A.U. after    8 cycles
 SCF Done:  E(RB3LYP) =  -1651.41179417     A.U. after    8 cycles
 SCF Done:  E(RB3LYP) =  -1651.41179420     A.U. after    7 cycles
 Optimization completed.
    -- Stationary point found.
 Normal termination of Gaussian 16 at Sat Dec 12 15:27:21 2020.

 --------------------------------------------------------------------
 #N Geom=AllCheck Guess=TCheck SCRF=Check GenChk RB3LYP/6-31G(d) Freq
 --------------------------------------------------------------------

 Structure from the checkpoint file:  "JID_10252.chk"
 --------------------------------
 CID_106372390_JID_10252_neutraal
 --------------------------------
 Charge =  0 Multiplicity = 1

 SCF Done:  E(RB3LYP) =  -1651.41179420     A.U. after    1 cycles

  Exact polarizability: 214.248   3.859 194.549 -22.919   1.039 138.341
 Approx polarizability: 290.848  19.242 321.169 -52.504  -3.078 265.049

                      1                      2                      3
                      A                      A                      A
 Frequencies --     16.1197                20.3522                31.3629
 Red. masses --      6.0214                 6.1640                 5.1323
 Frc consts  --      0.0009                 0.0015                 0.0030
 IR Inten    --      0.5213                 0.6393                 1.3113

                      4                      5                      6
                      A                      A                      A
 Frequencies --     51.5328                68.8395                89.2789
 Red. masses --      8.7218                 5.6819                 6.0632
 Frc consts  --      0.0136                 0.0159                 0.0285
 IR Inten    --      3.3673                 1.3844                 1.2381

                      7                      8                      9
                      A                      A                      A
 Frequencies --    109.5373               142.2561               152.4878
 Red. masses --      4.9746                 1.3387                 2.7618
 Frc consts  --      0.0352                 0.0160                 0.0378
 IR Inten    --      2.4883                 0.5565                 1.7560

                     10                     11                     12
                      A                      A                      A
 Frequencies --    173.4854               180.1088               218.3560
 Red. masses --      6.1098                 6.8845                 6.2490
 Frc consts  --      0.1083                 0.1316                 0.1755
 IR Inten    --      1.8969                 1.2680                 7.4877

                     13                     14                     15
                      A                      A                      A
 Frequencies --    234.6975               265.0284               281.7308
 Red. masses --      7.4431                 4.1919                 5.6088
 Frc consts  --      0.2416                 0.1735                 0.2623
 IR Inten    --      0.3429                 1.1326                 6.5121

                     16                     17                     18
                      A                      A                      A
 Frequencies --    285.9410               310.6167               349.3574
 Red. masses --      2.6904                 5.8505                 3.6725
 Frc consts  --      0.1296                 0.3326                 0.2641
 IR Inten    --      1.8225                 8.3982                10.0046

                     19                     20                     21
                      A                      A                      A
 Frequencies --    381.9015               383.3527               393.2492
 Red. masses --      3.4331                 3.0904                 4.5760
 Frc consts  --      0.2950                 0.2676                 0.4169
 IR Inten    --      7.2309                 2.6499                18.8127

                     22                     23                     24
                      A                      A                      A
 Frequencies --    461.5011               493.0541               508.6535
 Red. masses --      4.3583                 7.0220                 4.9436
 Frc consts  --      0.5469                 1.0058                 0.7536
 IR Inten    --     25.8934                30.7863                11.3372

                     25                     26                     27
                      A                      A                      A
 Frequencies --    530.3313               551.2868               591.7662
 Red. masses --      4.9839                 3.8621                 2.2409
 Frc consts  --      0.8259                 0.6916                 0.4624
 IR Inten    --      4.4586                18.9214               128.8536

                     28                     29                     30
                      A                      A                      A
 Frequencies --    598.8482               624.8801               638.7908
 Red. masses --      1.9261                 3.2836                 1.9191
 Frc consts  --      0.4070                 0.7554                 0.4614
 IR Inten    --    179.8278                 6.3420                89.1226

                     31                     32                     33
                      A                      A                      A
 Frequencies --    642.4458               650.4711               656.9484
 Red. masses --      3.1740                 2.8903                 3.3247
 Frc consts  --      0.7718                 0.7205                 0.8454
 IR Inten    --     21.3445                 4.8678                51.2670

                     34                     35                     36
                      A                      A                      A
 Frequencies --    692.1288               694.7974               740.0093
 Red. masses --      4.0330                 6.4633                 4.0076
 Frc consts  --      1.1383                 1.8383                 1.2930
 IR Inten    --      6.8402                19.0070                 2.1891

                     37                     38                     39
                      A                      A                      A
 Frequencies --    758.4644               770.1751               787.0315
 Red. masses --      4.1984                 4.8659                 1.3918
 Frc consts  --      1.4230                 1.7006                 0.5079
 IR Inten    --      8.1471                52.4826                28.8935

                     40                     41                     42
                      A                      A                      A
 Frequencies --    841.5080               845.1633               903.8970
 Red. masses --      1.6290                 2.0016                 1.3722
 Frc consts  --      0.6796                 0.8424                 0.6606
 IR Inten    --    123.6895               109.3514                 2.3075

                     43                     44                     45
                      A                      A                      A
 Frequencies --    935.6701               957.7558               980.5306
 Red. masses --      2.9893                 2.7713                 1.3545
 Frc consts  --      1.5419                 1.4978                 0.7673
 IR Inten    --     36.3649                 3.0465                 0.9075

                     46                     47                     48
                      A                      A                      A
 Frequencies --    987.4690              1006.3163              1011.7371
 Red. masses --      4.3075                 1.3019                 2.6099
 Frc consts  --      2.4747                 0.7768                 1.5740
 IR Inten    --      2.6033                 0.2752                61.4748

                     49                     50                     51
                      A                      A                      A
 Frequencies --   1043.0240              1061.3099              1079.4196
 Red. masses --      2.2266                 6.6453                 2.4610
 Frc consts  --      1.4272                 4.4101                 1.6894
 IR Inten    --     25.0669                21.6643                 4.8876

                     52                     53                     54
                      A                      A                      A
 Frequencies --   1083.0772              1083.9001              1122.0269
 Red. masses --      1.5713                 4.0660                 5.7472
 Frc consts  --      1.0860                 2.8144                 4.2630
 IR Inten    --      1.9368                74.8309                73.8778

                     55                     56                     57
                      A                      A                      A
 Frequencies --   1152.5285              1158.4016              1183.0669
 Red. masses --      2.5377                 2.2533                 1.7788
 Frc consts  --      1.9861                 1.7815                 1.4669
 IR Inten    --     25.0339                53.3537                 1.3957

                     58                     59                     60
                      A                      A                      A
 Frequencies --   1202.7683              1238.2440              1240.7741
 Red. masses --      1.0992                 3.5918                 1.7793
 Frc consts  --      0.9369                 3.2447                 1.6139
 IR Inten    --      0.8661                21.4455                 3.0033

                     61                     62                     63
                      A                      A                      A
 Frequencies --   1278.2301              1297.5446              1300.2540
 Red. masses --      2.0091                 1.6483                 3.5521
 Frc consts  --      1.9341                 1.6351                 3.5383
 IR Inten    --     40.3024                18.4492               123.7525

                     64                     65                     66
                      A                      A                      A
 Frequencies --   1331.9050              1363.2761              1367.7500
 Red. masses --      3.6093                 3.4278                 1.6756
 Frc consts  --      3.7724                 3.7535                 1.8468
 IR Inten    --     29.7653                73.0178                19.5938

                     67                     68                     69
                      A                      A                      A
 Frequencies --   1382.5157              1430.8659              1447.3101
 Red. masses --      2.2124                 3.5643                 1.2888
 Frc consts  --      2.4915                 4.2996                 1.5906
 IR Inten    --     30.0021               138.4386                 1.7611

                     70                     71                     72
                      A                      A                      A
 Frequencies --   1462.6043              1484.9476              1492.5301
 Red. masses --      1.2802                 2.2243                 1.0876
 Frc consts  --      1.6136                 2.8898                 1.4275
 IR Inten    --     48.6757                27.2414                10.2515

                     73                     74                     75
                      A                      A                      A
 Frequencies --   1502.4286              1515.0613              1519.1310
 Red. masses --      1.0422                 2.5522                 1.0936
 Frc consts  --      1.3861                 3.4516                 1.4869
 IR Inten    --      7.3597                10.0510                 4.9941

                     76                     77                     78
                      A                      A                      A
 Frequencies --   1620.7614              1628.6746              1650.2064
 Red. masses --      5.4806                 8.0446                 5.6021
 Frc consts  --      8.4824                12.5726                 8.9884
 IR Inten    --      2.7151                25.8477                 0.5655

                     79                     80                     81
                      A                      A                      A
 Frequencies --   1664.2367              1690.0335              3050.5511
 Red. masses --      6.7924                 1.2288                 1.0376
 Frc consts  --     11.0842                 2.0678                 5.6890
 IR Inten    --     16.6737               121.9222                22.8610

                     82                     83                     84
                      A                      A                      A
 Frequencies --   3078.3661              3103.7879              3145.2139
 Red. masses --      1.0703                 1.1019                 1.0999
 Frc consts  --      5.9758                 6.2542                 6.4108
 IR Inten    --      9.1786                12.3284                 9.2096

                     85                     86                     87
                      A                      A                      A
 Frequencies --   3175.7643              3201.9656              3216.8305
 Red. masses --      1.0948                 1.0872                 1.0928
 Frc consts  --      6.5056                 6.5671                 6.6625
 IR Inten    --      0.3340                 3.5601                13.4645

                     88                     89                     90
                      A                      A                      A
 Frequencies --   3233.7398              3237.5348              3279.9810
 Red. masses --      1.0927                 1.0937                 1.0982
 Frc consts  --      6.7323                 6.7540                 6.9613
 IR Inten    --      1.0695                 6.4137                 7.2004

                     91                     92                     93
                      A                      A                      A
 Frequencies --   3495.8241              3519.9767              3649.7392
 Red. masses --      1.0522                 1.0748                 1.0985
 Frc consts  --      7.5763                 7.8463                 8.6210
 IR Inten    --    160.5329                24.2729                76.6177

 - Thermochemistry -
 -------------------
 Temperature   298.150 Kelvin.  Pressure   1.00000 Atm.
 Atom     1 has atomic number  6 and mass  12.00000

 Molecular mass:   311.03984 amu.
 Principal axes and moments of inertia in atomic units:
                           1         2         3
     Eigenvalues --  3378.88726********************
           X            0.99996  -0.00204   0.00850
           Y            0.00170   0.99922   0.03946
           Z           -0.00857  -0.03945   0.99918
 This molecule is an asymmetric top.
 Rotational symmetry number  1.
 Warning -- assumption of classical behavior for rotation
           may cause significant error
 Rotational temperatures (Kelvin)      0.02563     0.00848     0.00741
 Rotational constants (GHZ):           0.53412     0.17679     0.15435
 Zero-point vibrational energy     654771.9 (Joules/Mol)
                                  156.49423 (Kcal/Mol)
 Warning -- explicit consideration of  28 degrees of freedom as
           vibrations may cause significant error
 Vibrational temperatures:     23.19    29.28    45.12    74.14    99.04
          (Kelvin)            128.45   157.60   204.67   219.40   249.61
                              259.14   314.17   337.68   381.32   405.35
                              411.41   446.91   502.65   549.47   551.56
                              565.80   664.00   709.39   731.84   763.03
                              793.18   851.42   861.61   899.06   919.08
                              924.34   935.88   945.20   995.82   999.66
                             1064.71  1091.26  1108.11  1132.36  1210.74
                             1216.00  1300.51  1346.22  1378.00  1410.76
                             1420.75  1447.86  1455.66  1500.68  1526.99
                             1553.04  1558.31  1559.49  1614.35  1658.23
                             1666.68  1702.17  1730.52  1781.56  1785.20
                             1839.09  1866.88  1870.78  1916.31  1961.45
                             1967.89  1989.13  2058.70  2082.36  2104.36
                             2136.51  2147.42  2161.66  2179.84  2185.69
                             2331.91  2343.30  2374.28  2394.47  2431.58
                             4389.06  4429.08  4465.66  4525.26  4569.22
                             4606.91  4628.30  4652.63  4658.09  4719.16
                             5029.71  5064.46  5251.16

 Zero-point correction=                           0.249389 (Hartree/Particle)
 Thermal correction to Energy=                    0.268137
 Thermal correction to Enthalpy=                  0.269081
 Thermal correction to Gibbs Free Energy=         0.199421
 Sum of electronic and zero-point Energies=          -1651.162405
 Sum of electronic and thermal Energies=             -1651.143657
 Sum of electronic and thermal Enthalpies=           -1651.142713
 Sum of electronic and thermal Free Energies=        -1651.212374

                     E (Thermal)             CV                S
                      KCal/Mol        Cal/Mol-Kelvin    Cal/Mol-Kelvin
 Total                  168.258             70.183            146.613
 Electronic               0.000              0.000              0.000
 Translational            0.889              2.981             43.100
 Rotational               0.889              2.981             34.355
 Vibrational            166.481             64.222             69.157
 Vibration     1          0.593              1.986              7.063
 Vibration     2          0.593              1.986              6.600
 Vibration     3          0.594              1.983              5.741
 Vibration     4          0.596              1.977              4.758
 Vibration     5          0.598              1.969              4.186
 Vibration     6          0.602              1.957              3.676
 Vibration     7          0.606              1.942              3.277
 Vibration     8          0.616              1.911              2.773
 Vibration     9          0.619              1.900              2.641
 Vibration    10          0.627              1.875              2.397
 Vibration    11          0.629              1.867              2.327
 Vibration    12          0.646              1.813              1.973
 Vibration    13          0.655              1.788              1.843
 Vibration    14          0.671              1.737              1.628
 Vibration    15          0.681              1.707              1.523
 Vibration    16          0.684              1.700              1.498
 Vibration    17          0.699              1.653              1.359
 Vibration    18          0.727              1.577              1.169
 Vibration    19          0.751              1.509              1.032
 Vibration    20          0.753              1.506              1.026
 Vibration    21          0.760              1.485              0.988
 Vibration    22          0.819              1.335              0.762
 Vibration    23          0.849              1.265              0.676
 Vibration    24          0.864              1.231              0.637
 Vibration    25          0.885              1.183              0.586
 Vibration    26          0.907              1.137              0.542
 Vibration    27          0.949              1.049              0.464
 Vibration    28          0.957              1.034              0.452

 Optimization completed.
    -- Stationary point found.
 Normal termination of Gaussian 16 at Sat Dec 12 15:44:28 2020.

 ----------------------------------------------------------------------
 # B3LYP/6-311++G(d,p) empiricaldispersion=gd3bj scf=xqc pop=npa geom=c
 heck
 ----------------------------------------------------------------------

 ----------------------------------------
 CID_106372390_JID_10252_Energie_neutraal
 ----------------------------------------
 Structure from the checkpoint file:  "JID_10252.chk"
 Charge =  0 Multiplicity = 1

 SCF Done:  E(RB3LYP) =  -1651.70448195     A.U. after   17 cycles
 Normal termination of Gaussian 16 at Sat Dec 12 15:52:58 2020.

 ----------------------------------------------------------------------
 # B3LYP/6-311++G(d,p) empiricaldispersion=gd3bj scf=xqc pop=npa geom=c
 heck
 ----------------------------------------------------------------------

 --------------------------------------
 CID_106372390_JID_10252_Energie_kation
 --------------------------------------
 Structure from the checkpoint file:  "JID_10252.chk"
 Charge =  1 Multiplicity = 2

 SCF Done:  E(UB3LYP) =  -1651.41641365     A.U. after   31 cycles
 Normal termination of Gaussian 16 at Sat Dec 12 16:15:22 2020.
 Gaussian 16:  ES64L-G16RevA.03 25-Dec-2016

 ----------------------------------------------------------------------
 # B3LYP/6-311++G(d,p) empiricaldispersion=gd3bj scf=xqc pop=npa geom=c
 heck
 ----------------------------------------------------------------------

 -------------------------------------
 CID_106372390_JID_10252_Energie_anion
 -------------------------------------
 Structure from the checkpoint file:  "JID_10252.chk"
 Charge = -1 Multiplicity = 2

                         Standard orientation:
 ---------------------------------------------------------------------
 Center     Atomic      Atomic             Coordinates (Angstroms)
 Number     Number       Type             X           Y           Z
 ---------------------------------------------------------------------
      1          6           0       -5.182316   -1.155958   -1.644254
      2          6           0       -4.485403   -0.296932   -0.655487
      3          6           0       -4.774315    0.187455    0.580551
      4          7           0       -3.701725    0.936787    1.058464
      5          6           0       -2.823873    0.884717    0.108334
      6          8           0       -3.222927    0.157691   -0.977571
      7          6           0       -1.460990    1.492891    0.052748
      8          7           0       -0.399786    0.557339   -0.352561
      9         16           0        0.009487   -0.652160    0.749802
     10          8           0        0.043344   -0.002266    2.073352
     11          8           0       -0.796118   -1.863648    0.572327
     12          6           0        1.681255   -1.014140    0.206725
     13          6           0        1.973679   -2.371158    0.049747
     14          6           0        3.250229   -2.766954   -0.337909
     15          6           0        4.222585   -1.799122   -0.587450
     16          6           0        3.918793   -0.447257   -0.453559
     17          6           0        2.649794   -0.018504   -0.039663
     18          6           0        2.432569    1.463232    0.069878
     19         16           0        2.825913    2.474107   -1.196815
     20          7           0        1.980313    1.912625    1.250513
     21          1           0       -5.318783   -0.638734   -2.601455
     22          1           0       -4.618033   -2.075663   -1.838988
     23          1           0       -6.167584   -1.433034   -1.260095
     24          1           0       -5.670584    0.043624    1.166521
     25          1           0       -1.421307    2.317433   -0.667652
     26          1           0       -1.220117    1.888392    1.039295
     27          1           0       -0.578955    0.134852   -1.262737
     28          1           0        1.188556   -3.097892    0.223043
     29          1           0        3.477164   -3.821992   -0.454206
     30          1           0        5.220160   -2.093665   -0.898859
     31          1           0        4.662937    0.308503   -0.676649
     32          1           0        1.550127    1.285297    1.926082
     33          1           0        1.771968    2.900637    1.320158
 ---------------------------------------------------------------------

 SCF Done:  E(UB3LYP) =  -1651.72844661     A.U. after   26 cycles

 The electronic state is 2-A.
 Alpha  occ. eigenvalues --  -88.94503 -88.64497 -19.11795 -19.00187 -19.00171
 Alpha  occ. eigenvalues --  -14.23869 -14.22968 -14.19662 -10.17776 -10.16046
 Alpha  occ. eigenvalues --  -10.13308 -10.11979 -10.11932 -10.10142 -10.06637
 Alpha  occ. eigenvalues --  -10.05565 -10.05093 -10.04438 -10.04068 -10.04003
 Alpha  occ. eigenvalues --   -8.00666  -7.73284  -5.96985  -5.96926  -5.96705
 Alpha  occ. eigenvalues --   -5.69639  -5.69180  -5.68843  -1.05304  -1.00405
 Alpha  occ. eigenvalues --   -0.89415  -0.84327  -0.82882  -0.80465  -0.73523
 Alpha  occ. eigenvalues --   -0.72698  -0.66715  -0.64058  -0.63747  -0.60376
 Alpha  occ. eigenvalues --   -0.58282  -0.54534  -0.53909  -0.50055  -0.49441
 Alpha  occ. eigenvalues --   -0.47504  -0.44920  -0.44333  -0.42850  -0.41530
 Alpha  occ. eigenvalues --   -0.40653  -0.38330  -0.37983  -0.36806  -0.36102
 Alpha  occ. eigenvalues --   -0.35607  -0.35145  -0.34356  -0.33654  -0.32960
 Alpha  occ. eigenvalues --   -0.31785  -0.31630  -0.31067  -0.30279  -0.26530
 Alpha  occ. eigenvalues --   -0.24639  -0.24550  -0.24428  -0.24015  -0.23420
 Alpha  occ. eigenvalues --   -0.21757  -0.21308  -0.20929  -0.19600  -0.19280
 Alpha  occ. eigenvalues --   -0.17157  -0.16125  -0.13924  -0.13594  -0.09316
 Alpha  occ. eigenvalues --   -0.06846   0.03150
 Alpha virt. eigenvalues --    0.05185   0.06627   0.07740   0.08381   0.08687
 Alpha virt. eigenvalues --    0.09488   0.09811   0.10044   0.10770   0.10948
 Alpha virt. eigenvalues --    0.11511   0.12067   0.12228   0.12541   0.12882

  Beta  occ. eigenvalues --  -88.94497 -88.64458 -19.11789 -19.00160 -19.00117
  Beta  occ. eigenvalues --  -14.23850 -14.22964 -14.19508 -10.17766 -10.16039
  Beta  occ. eigenvalues --  -10.13295 -10.11981 -10.11933 -10.09786 -10.06383
  Beta  occ. eigenvalues --  -10.05618 -10.04807 -10.04490 -10.03879 -10.03817
  Beta  occ. eigenvalues --   -8.00658  -7.73249  -5.96970  -5.96901  -5.96707
  Beta  occ. eigenvalues --   -5.69626  -5.69063  -5.68808  -1.05292  -1.00301
  Beta  occ. eigenvalues --   -0.89326  -0.84313  -0.82813  -0.79999  -0.73181
  Beta  occ. eigenvalues --   -0.72629  -0.66598  -0.63551  -0.63355  -0.60283
  Beta  occ. eigenvalues --   -0.57901  -0.54493  -0.53718  -0.49718  -0.49321
  Beta  occ. eigenvalues --   -0.47319  -0.44646  -0.44299  -0.42622  -0.41407
  Beta  occ. eigenvalues --   -0.40569  -0.38225  -0.37893  -0.36736  -0.36070
  Beta  occ. eigenvalues --   -0.35476  -0.35034  -0.34247  -0.33580  -0.32730
  Beta  occ. eigenvalues --   -0.31775  -0.31415  -0.31027  -0.30070  -0.25700
  Beta  occ. eigenvalues --   -0.24483  -0.24381  -0.24129  -0.23730  -0.22656
  Beta  occ. eigenvalues --   -0.21596  -0.21255  -0.20446  -0.19343  -0.19031
  Beta  occ. eigenvalues --   -0.16983  -0.16040  -0.12946  -0.12157  -0.08435
  Beta  occ. eigenvalues --   -0.06594
  Beta virt. eigenvalues --    0.05175   0.06672   0.07730   0.08399   0.08682
  Beta virt. eigenvalues --    0.08874   0.09561   0.10017   0.10332   0.10802
  Beta virt. eigenvalues --    0.10971   0.11525   0.12122   0.12500   0.12851

 Mulliken charges and spin densities:
               1          2
     1  C   -0.590180  -0.002160
     2  C    0.334149   0.007546
     3  C   -0.055039  -0.001622
     4  N    0.133056  -0.002308
     5  C   -0.255620   0.009754
     6  O    0.051791   0.001584
     7  C   -0.844209  -0.001535
     8  N   -0.174197  -0.013621
     9  S    0.272328   0.057078
    10  O   -0.218810  -0.017357
    11  O   -0.048843   0.002507
    12  C   -0.714067   0.173276
    13  C   -0.133930  -0.028736
    14  C   -0.124058   0.151357
    15  C   -0.562770   0.155436
    16  C   -0.177020  -0.013423
    17  C    0.664047   0.105707
    18  C    0.115811   0.187255
    19  S   -0.850415   0.134380
    20  N   -0.264990   0.077287
    21  H    0.151112   0.001599
    22  H    0.170983   0.000250
    23  H    0.155898   0.000273
    24  H    0.150399   0.000143
    25  H    0.187225   0.003887
    26  H    0.261153   0.000703
    27  H    0.279884   0.016458
    28  H    0.189081   0.003485
    29  H    0.126946  -0.012212
    30  H    0.112572  -0.013884
    31  H    0.135578   0.017274
    32  H    0.284662   0.000178
    33  H    0.237472  -0.000557
 Sum of Mulliken charges =  -1.00000   1.00000

 Dipole moment (field-independent basis, Debye):
    X=             -9.8932    Y=             -2.2089    Z=             -1.1205  Tot=             10.1985
 Quadrupole moment (field-independent basis, Debye-Ang):
   XX=           -169.5204   YY=           -160.0301   ZZ=           -150.2390
   XY=             -8.1941   XZ=             16.9594   YZ=              9.7040

 Summary of Natural Population Analysis:

                                       Natural Population
                Natural  -----------------------------------------------
    Atom  No    Charge         Core      Valence    Rydberg      Total
 -----------------------------------------------------------------------
      C    1   -0.30679      0.99964     2.30290    0.00425     3.30679
      C    2    0.13353      0.99949     1.85492    0.01206     2.86647
      C    3   -0.04941      0.99950     2.03709    0.01282     3.04941
      N    4   -0.24366      0.99968     2.73413    0.00984     3.74366
      C    5    0.26393      0.99961     1.71766    0.01880     2.73607
      O    6   -0.24538      0.99985     3.23630    0.00923     4.24538
      C    7   -0.12207      0.99957     2.11154    0.01096     3.12207
      N    8   -0.41997      0.99977     2.90606    0.01413     3.91997
      S    9    1.10785      4.99919     1.79587    0.09710     6.89215
      O   10   -0.47509      0.99990     3.46956    0.00563     4.47509
      O   11   -0.46671      0.99990     3.46147    0.00533     4.46671
      C   12   -0.09870      0.99932     2.08240    0.01699     3.09870
      C   13   -0.10709      0.99952     2.09823    0.00934     3.10709
      C   14   -0.07967      0.99957     2.07085    0.00926     3.07967
      C   15   -0.06468      0.99957     2.05608    0.00903     3.06468
      C   16   -0.09382      0.99953     2.08615    0.00813     3.09382
      C   17    0.00716      0.99940     1.98013    0.01331     2.99284
      C   18    0.11916      0.99961     1.86038    0.02085     2.88084
      S   19   -0.13546      4.99954     3.12143    0.01449     8.13546
      N   20   -0.36510      0.99965     2.85389    0.01155     3.86510
      H   21    0.10556      0.00000     0.39329    0.00115     0.39444
      H   22    0.11078      0.00000     0.38812    0.00110     0.38922
      H   23    0.10656      0.00000     0.39273    0.00072     0.39344
      H   24    0.09911      0.00000     0.40001    0.00088     0.40089
      H   25    0.11090      0.00000     0.38809    0.00101     0.38910
      H   26    0.12384      0.00000     0.37498    0.00118     0.37616
      H   27    0.19515      0.00000     0.30307    0.00178     0.30485
      H   28    0.11009      0.00000     0.38881    0.00110     0.38991
      H   29    0.09072      0.00000     0.40829    0.00099     0.40928
      H   30    0.09035      0.00000     0.40867    0.00098     0.40965
      H   31    0.10754      0.00000     0.39135    0.00112     0.39246
      H   32    0.20461      0.00000     0.29394    0.00145     0.29539
      H   33    0.18677      0.00000     0.31132    0.00192     0.31323
 =======================================================================
   * Total *   -0.00000     27.99182    52.67971    0.32847    81.00000

 Normal termination of Gaussian 16 at Sat Dec 12 16:33:14 2020.
