 Gaussian 16, Revision A.03,

 -----------------------------------------------------------
 # opt freq B3LYP/6-31G(d) empiricaldispersion=gd3bj scf=xqc
 -----------------------------------------------------------

 ------------------------------
 CID_84816766_JID_7020_neutraal
 ------------------------------
 Symbolic Z-matrix:
 Charge =  0 Multiplicity = 1

 SCF Done:  E(RB3LYP) =  -1106.63443385     A.U. after   15 cycles
 SCF Done:  E(RB3LYP) =  -1106.63879255     A.U. after   12 cycles
 SCF Done:  E(RB3LYP) =  -1106.63984257     A.U. after   13 cycles
 SCF Done:  E(RB3LYP) =  -1106.63956306     A.U. after   14 cycles
 SCF Done:  E(RB3LYP) =  -1106.64106235     A.U. after   14 cycles
 SCF Done:  E(RB3LYP) =  -1106.64168700     A.U. after   13 cycles
 SCF Done:  E(RB3LYP) =  -1106.64223055     A.U. after   15 cycles
 SCF Done:  E(RB3LYP) =  -1106.64287254     A.U. after   16 cycles
 SCF Done:  E(RB3LYP) =  -1106.64279882     A.U. after   15 cycles
 SCF Done:  E(RB3LYP) =  -1106.64349530     A.U. after   13 cycles
 SCF Done:  E(RB3LYP) =  -1106.64523175     A.U. after   13 cycles
 SCF Done:  E(RB3LYP) =  -1106.64523245     A.U. after    9 cycles
 SCF Done:  E(RB3LYP) =  -1106.64523252     A.U. after   10 cycles
 SCF Done:  E(RB3LYP) =  -1106.64523253     A.U. after    7 cycles
 SCF Done:  E(RB3LYP) =  -1106.64523255     A.U. after   10 cycles
 Optimization completed.
    -- Stationary point found.
 Normal termination of Gaussian 16 at Fri Dec 11 12:08:58 2020.

 --------------------------------------------------------------------
 #N Geom=AllCheck Guess=TCheck SCRF=Check GenChk RB3LYP/6-31G(d) Freq
 --------------------------------------------------------------------

 Structure from the checkpoint file:  "JID_7020.chk"
 ------------------------------
 CID_84816766_JID_7020_neutraal
 ------------------------------
 Charge =  0 Multiplicity = 1

 SCF Done:  E(RB3LYP) =  -1106.64523255     A.U. after    1 cycles

  Exact polarizability: 240.779  20.928 132.535   5.126   0.473 117.806
 Approx polarizability: 323.894  47.281 236.163  10.176   3.284 206.557

                      1                      2                      3
                      A                      A                      A
 Frequencies --     10.3891                17.2295                38.7528
 Red. masses --      7.1931                 6.4495                 4.0354
 Frc consts  --      0.0005                 0.0011                 0.0036
 IR Inten    --      0.5976                 0.1972                 0.7370

                      4                      5                      6
                      A                      A                      A
 Frequencies --     57.3885               108.0682               125.0294
 Red. masses --      5.4301                 5.1005                 3.5144
 Frc consts  --      0.0105                 0.0351                 0.0324
 IR Inten    --      0.7195                 1.8660                 0.9057

                      7                      8                      9
                      A                      A                      A
 Frequencies --    146.6101               195.9401               217.1859
 Red. masses --      7.6403                 1.3970                 4.6024
 Frc consts  --      0.0968                 0.0316                 0.1279
 IR Inten    --      1.9891                 0.0494                 6.1435

                     10                     11                     12
                      A                      A                      A
 Frequencies --    226.1763               234.4853               238.2792
 Red. masses --      4.1352                 2.7610                 2.9125
 Frc consts  --      0.1246                 0.0894                 0.0974
 IR Inten    --      4.5564                 0.8711                 6.6266

                     13                     14                     15
                      A                      A                      A
 Frequencies --    261.0571               289.8949               341.7510
 Red. masses --      5.1306                 2.6945                 2.4377
 Frc consts  --      0.2060                 0.1334                 0.1677
 IR Inten    --      3.9982                 4.2977                 1.4128

                     16                     17                     18
                      A                      A                      A
 Frequencies --    396.3092               453.6777               480.4223
 Red. masses --      2.9492                 3.6114                 5.1029
 Frc consts  --      0.2729                 0.4379                 0.6939
 IR Inten    --      2.5703                 0.8315                 3.2793

                     19                     20                     21
                      A                      A                      A
 Frequencies --    490.7525               512.8214               555.3373
 Red. masses --      4.9431                 5.3093                 4.6930
 Frc consts  --      0.7014                 0.8227                 0.8527
 IR Inten    --      0.3840                 0.9142                 0.9570

                     22                     23                     24
                      A                      A                      A
 Frequencies --    570.2365               595.2031               636.2423
 Red. masses --      5.3797                 4.9328                 5.7378
 Frc consts  --      1.0307                 1.0296                 1.3685
 IR Inten    --      2.8166                10.6439                25.6688

                     25                     26                     27
                      A                      A                      A
 Frequencies --    647.4424               683.8345               710.0173
 Red. masses --      6.2396                 5.3051                 3.7228
 Frc consts  --      1.5410                 1.4617                 1.1057
 IR Inten    --      1.0176                 2.0457                38.1779

                     28                     29                     30
                      A                      A                      A
 Frequencies --    731.8627               763.2918               796.6282
 Red. masses --      3.5375                 3.0480                 1.4713
 Frc consts  --      1.1164                 1.0463                 0.5501
 IR Inten    --     47.0120                12.4977                28.1509

                     31                     32                     33
                      A                      A                      A
 Frequencies --    798.9138               827.4257               878.9112
 Red. masses --      1.4229                 1.1676                 1.8897
 Frc consts  --      0.5351                 0.4710                 0.8601
 IR Inten    --     23.0051                 0.6403                 1.6414

                     34                     35                     36
                      A                      A                      A
 Frequencies --    885.5727               887.2100               894.3365
 Red. masses --      2.4626                 1.9094                 1.7516
 Frc consts  --      1.1379                 0.8855                 0.8254
 IR Inten    --      1.8735                 3.0015                17.9107

                     37                     38                     39
                      A                      A                      A
 Frequencies --    932.2046               966.3627               977.8145
 Red. masses --      1.9986                 1.2624                 2.7866
 Frc consts  --      1.0233                 0.6946                 1.5698
 IR Inten    --      3.8665                 0.5618                 9.6074

                     40                     41                     42
                      A                      A                      A
 Frequencies --   1005.0399              1017.5777              1028.9294
 Red. masses --      3.4298                 6.0264                 1.7894
 Frc consts  --      2.0412                 3.6766                 1.1161
 IR Inten    --      8.7831                 1.9875                 0.0175

                     43                     44                     45
                      A                      A                      A
 Frequencies --   1083.8679              1126.0666              1133.0909
 Red. masses --      3.1352                 1.8791                 1.9764
 Frc consts  --      2.1701                 1.4039                 1.4951
 IR Inten    --     60.0177                 5.5532                47.0716

                     46                     47                     48
                      A                      A                      A
 Frequencies --   1139.0415              1176.0794              1188.3055
 Red. masses --      2.3790                 1.6909                 1.7131
 Frc consts  --      1.8185                 1.3779                 1.4252
 IR Inten    --     69.8189                13.0372                77.7352

                     49                     50                     51
                      A                      A                      A
 Frequencies --   1208.0546              1215.6671              1222.4170
 Red. masses --      1.2596                 1.5168                 1.5716
 Frc consts  --      1.0831                 1.3207                 1.3836
 IR Inten    --     10.6331                12.4825                16.7878

                     52                     53                     54
                      A                      A                      A
 Frequencies --   1300.9830              1312.4212              1330.4677
 Red. masses --      2.4778                 2.6523                 1.4154
 Frc consts  --      2.4710                 2.6916                 1.4762
 IR Inten    --    172.5514                 9.1290                14.3073

                     55                     56                     57
                      A                      A                      A
 Frequencies --   1344.9464              1351.0942              1377.1139
 Red. masses --      1.4197                 1.6439                 3.7676
 Frc consts  --      1.5130                 1.7681                 4.2097
 IR Inten    --     19.9119                48.6783                59.5975

                     58                     59                     60
                      A                      A                      A
 Frequencies --   1422.4036              1437.3206              1443.9376
 Red. masses --      1.2894                 1.5223                 1.2984
 Frc consts  --      1.5371                 1.8530                 1.5950
 IR Inten    --      0.0509                 5.9686                28.6568

                     61                     62                     63
                      A                      A                      A
 Frequencies --   1498.5698              1503.7394              1516.7522
 Red. masses --      1.2904                 2.1663                 1.0555
 Frc consts  --      1.7074                 2.8861                 1.4307
 IR Inten    --     13.7949                30.6419                 8.0706

                     64                     65                     66
                      A                      A                      A
 Frequencies --   1531.4722              1532.1960              1540.5547
 Red. masses --      6.9617                 1.0701                 1.9856
 Frc consts  --      9.6202                 1.4801                 2.7764
 IR Inten    --    123.9276                 0.3350                44.2008

                     67                     68                     69
                      A                      A                      A
 Frequencies --   1549.7019              1569.6093              1645.2226
 Red. masses --      1.2183                10.6578                 5.6993
 Frc consts  --      1.7238                15.4703                 9.0891
 IR Inten    --     16.2716                26.1485                64.4814

                     70                     71                     72
                      A                      A                      A
 Frequencies --   1672.5592              1797.1590              2957.6435
 Red. masses --      6.0940                 9.6552                 1.0855
 Frc consts  --     10.0442                18.3731                 5.5944
 IR Inten    --     94.4529               279.2841               112.4576

                     73                     74                     75
                      A                      A                      A
 Frequencies --   3050.1671              3052.4262              3062.3744
 Red. masses --      1.0674                 1.0644                 1.0362
 Frc consts  --      5.8510                 5.8433                 5.7253
 IR Inten    --     39.2086                11.9761                16.3892

                     76                     77                     78
                      A                      A                      A
 Frequencies --   3107.4928              3114.6532              3131.8432
 Red. masses --      1.0983                 1.0986                 1.1012
 Frc consts  --      6.2486                 6.2796                 6.3635
 IR Inten    --      3.8043                13.9024                30.4876

                     79                     80                     81
                      A                      A                      A
 Frequencies --   3146.3829              3188.0755              3202.3716
 Red. masses --      1.1034                 1.0867                 1.0910
 Frc consts  --      6.4361                 6.5074                 6.5922
 IR Inten    --     40.1800                 5.2498                13.0354

                     82                     83                     84
                      A                      A                      A
 Frequencies --   3204.8988              3233.3518              3288.0775
 Red. masses --      1.0938                 1.0917                 1.0943
 Frc consts  --      6.6191                 6.7244                 6.9705
 IR Inten    --      8.5664                13.5020                 4.4094

 - Thermochemistry -
 -------------------
 Temperature   298.150 Kelvin.  Pressure   1.00000 Atm.
 Atom     1 has atomic number  6 and mass  12.00000

 Molecular mass:   247.06670 amu.
 Principal axes and moments of inertia in atomic units:
                           1         2         3
     Eigenvalues --  1285.99459********************
           X            0.99999   0.00394   0.00339
           Y           -0.00391   0.99995  -0.00876
           Z           -0.00343   0.00875   0.99996
 This molecule is an asymmetric top.
 Rotational symmetry number  1.
 Warning -- assumption of classical behavior for rotation
           may cause significant error
 Rotational temperatures (Kelvin)      0.06735     0.00784     0.00758
 Rotational constants (GHZ):           1.40338     0.16327     0.15795
 Zero-point vibrational energy     619325.8 (Joules/Mol)
                                  148.02242 (Kcal/Mol)
 Warning -- explicit consideration of  23 degrees of freedom as
           vibrations may cause significant error
 Vibrational temperatures:     14.95    24.79    55.76    82.57   155.49
          (Kelvin)            179.89   210.94   281.91   312.48   325.42
                              337.37   342.83   375.60   417.09   491.70
                              570.20   652.74   691.22   706.08   737.84
                              799.01   820.44   856.36   915.41   931.53
                              983.89  1021.56  1052.99  1098.21  1146.17
                             1149.46  1190.48  1264.56  1274.14  1276.50
                             1286.75  1341.23  1390.38  1406.86  1446.03
                             1464.07  1480.40  1559.44  1620.16  1630.27
                             1638.83  1692.12  1709.71  1738.12  1749.07
                             1758.79  1871.82  1888.28  1914.25  1935.08
                             1943.92  1981.36  2046.52  2067.98  2077.50
                             2156.11  2163.55  2182.27  2203.45  2204.49
                             2216.51  2229.68  2258.32  2367.11  2406.44
                             2585.71  4255.39  4388.51  4391.76  4406.07
                             4470.99  4481.29  4506.02  4526.94  4586.93
                             4607.50  4611.13  4652.07  4730.81

 Zero-point correction=                           0.235889 (Hartree/Particle)
 Thermal correction to Energy=                    0.251654
 Thermal correction to Enthalpy=                  0.252598
 Thermal correction to Gibbs Free Energy=         0.189228
 Sum of electronic and zero-point Energies=          -1106.409344
 Sum of electronic and thermal Energies=             -1106.393578
 Sum of electronic and thermal Enthalpies=           -1106.392634
 Sum of electronic and thermal Free Energies=        -1106.456005

                     E (Thermal)             CV                S
                      KCal/Mol        Cal/Mol-Kelvin    Cal/Mol-Kelvin
 Total                  157.915             58.792            133.374
 Electronic               0.000              0.000              0.000
 Translational            0.889              2.981             42.414
 Rotational               0.889              2.981             33.451
 Vibrational            156.138             52.830             57.508
 Vibration     1          0.593              1.987              7.935
 Vibration     2          0.593              1.986              6.930
 Vibration     3          0.594              1.981              5.322
 Vibration     4          0.596              1.975              4.545
 Vibration     5          0.606              1.943              3.303
 Vibration     6          0.610              1.928              3.021
 Vibration     7          0.617              1.906              2.716
 Vibration     8          0.636              1.846              2.171
 Vibration     9          0.646              1.815              1.982
 Vibration    10          0.650              1.801              1.909
 Vibration    11          0.654              1.788              1.844
 Vibration    12          0.656              1.782              1.816
 Vibration    13          0.669              1.744              1.655
 Vibration    14          0.686              1.693              1.475
 Vibration    15          0.721              1.592              1.204
 Vibration    16          0.763              1.478              0.976
 Vibration    17          0.812              1.353              0.785
 Vibration    18          0.837              1.293              0.709
 Vibration    19          0.847              1.271              0.682
 Vibration    20          0.868              1.222              0.627
 Vibration    21          0.911              1.128              0.533
 Vibration    22          0.926              1.096              0.504
 Vibration    23          0.953              1.042              0.458

                           ! Non-Optimized Parameters !
 Normal termination of Gaussian 16 at Fri Dec 11 12:18:15 2020.

 ----------------------------------------------------------------------
 # B3LYP/6-311++G(d,p) empiricaldispersion=gd3bj scf=xqc pop=npa geom=c
 heck
 ----------------------------------------------------------------------

 --------------------------------------
 CID_84816766_JID_7020_Energie_neutraal
 --------------------------------------
 Structure from the checkpoint file:  "JID_7020.chk"
 Charge =  0 Multiplicity = 1

 SCF Done:  E(RB3LYP) =  -1106.86365337     A.U. after   17 cycles
 Normal termination of Gaussian 16 at Fri Dec 11 12:22:44 2020.

 ----------------------------------------------------------------------
 # B3LYP/6-311++G(d,p) empiricaldispersion=gd3bj scf=xqc pop=npa geom=c
 heck
 ----------------------------------------------------------------------

 ------------------------------------
 CID_84816766_JID_7020_Energie_kation
 ------------------------------------
 Structure from the checkpoint file:  "JID_7020.chk"
 Charge =  1 Multiplicity = 2

 SCF Done:  E(UB3LYP) =  -1106.56727428     A.U. after   29 cycles
 Normal termination of Gaussian 16 at Fri Dec 11 12:32:52 2020.
 Gaussian 16:  ES64L-G16RevA.03 25-Dec-2016

 ----------------------------------------------------------------------
 # B3LYP/6-311++G(d,p) empiricaldispersion=gd3bj scf=xqc pop=npa geom=c
 heck
 ----------------------------------------------------------------------

 -----------------------------------
 CID_84816766_JID_7020_Energie_anion
 -----------------------------------
 Structure from the checkpoint file:  "JID_7020.chk"
 Charge = -1 Multiplicity = 2

                         Standard orientation:
 ---------------------------------------------------------------------
 Center     Atomic      Atomic             Coordinates (Angstroms)
 Number     Number       Type             X           Y           Z
 ---------------------------------------------------------------------
      1          6           0       -5.945556   -0.153132    0.199609
      2          6           0       -4.940198   -1.218381   -0.220798
      3          8           0       -3.693551   -1.091169    0.467018
      4          6           0       -2.805334   -0.134595    0.073773
      5          6           0       -2.963206    0.712399   -1.028145
      6          6           0       -1.958727    1.637237   -1.329618
      7          6           0       -0.809534    1.729786   -0.553819
      8          6           0       -0.651408    0.884280    0.554199
      9          6           0       -1.646819   -0.038915    0.859888
     10          6           0        0.616966    0.939203    1.378080
     11          6           0        1.794684    0.308061    0.685755
     12          7           0        3.015062    0.744487    0.747321
     13          6           0        3.879235   -0.071962    0.040730
     14          6           0        3.300142   -1.153412   -0.575103
     15         16           0        1.604426   -1.167925   -0.281628
     16          6           0        5.313822    0.255506   -0.017073
     17          8           0        6.140634   -0.407798   -0.615043
     18          1           0       -6.109517   -0.196969    1.280716
     19          1           0       -6.904170   -0.320623   -0.304196
     20          1           0       -5.596598    0.852672   -0.051515
     21          1           0       -5.299655   -2.213126    0.055574
     22          1           0       -4.775023   -1.217011   -1.305748
     23          1           0       -3.848914    0.666984   -1.649677
     24          1           0       -2.087439    2.293502   -2.185787
     25          1           0       -0.033234    2.448404   -0.800522
     26          1           0       -1.549206   -0.705677    1.711475
     27          1           0        0.902355    1.972060    1.602239
     28          1           0        0.458543    0.434949    2.339834
     29          1           0        3.797983   -1.898978   -1.178674
     30          1           0        5.587572    1.174477    0.540405
 ---------------------------------------------------------------------

 SCF Done:  E(UB3LYP) =  -1106.81510589     A.U. after   33 cycles
 SCF Done:  E(UB3LYP) =  -1106.87833449     a.u. after   23 cycles

 The electronic state is 2-A.
 Alpha  occ. eigenvalues --  -88.74475 -19.07211 -18.94801 -14.18960 -10.15306
 Alpha  occ. eigenvalues --  -10.15277 -10.10957 -10.09869 -10.09479 -10.09303
 Alpha  occ. eigenvalues --  -10.09014 -10.08798 -10.08540 -10.08360 -10.08162
 Alpha  occ. eigenvalues --  -10.05712 -10.04885  -7.83129  -5.79398  -5.79048
 Alpha  occ. eigenvalues --   -5.78781  -0.98851  -0.88312  -0.83537  -0.77506
 Alpha  occ. eigenvalues --   -0.70447  -0.69530  -0.66702  -0.65184  -0.63669
 Alpha  occ. eigenvalues --   -0.58609  -0.57022  -0.52526  -0.49575  -0.49232
 Alpha  occ. eigenvalues --   -0.45499  -0.42601  -0.41410  -0.40912  -0.40600
 Alpha  occ. eigenvalues --   -0.37523  -0.37002  -0.35820  -0.34968  -0.33518
 Alpha  occ. eigenvalues --   -0.32981  -0.32390  -0.31142  -0.30606  -0.29499
 Alpha  occ. eigenvalues --   -0.28395  -0.27825  -0.27337  -0.26919  -0.26062
 Alpha  occ. eigenvalues --   -0.24577  -0.24158  -0.23462  -0.23114  -0.16945
 Alpha  occ. eigenvalues --   -0.16164  -0.15426  -0.14240  -0.11450  -0.10521
 Alpha  occ. eigenvalues --    0.03309
 Alpha virt. eigenvalues --    0.04344   0.06637   0.06842   0.07198   0.07613
 Alpha virt. eigenvalues --    0.07990   0.08947   0.09306   0.10309   0.10606
 Alpha virt. eigenvalues --    0.10969   0.11256   0.11459   0.12063   0.12551

  Beta  occ. eigenvalues --  -88.74421 -19.07210 -18.94441 -14.19003 -10.15294
  Beta  occ. eigenvalues --  -10.15276 -10.10894 -10.09866 -10.09479 -10.09279
  Beta  occ. eigenvalues --  -10.09009 -10.08802 -10.08357 -10.08288 -10.08160
  Beta  occ. eigenvalues --  -10.05737 -10.04386  -7.83081  -5.79375  -5.79029
  Beta  occ. eigenvalues --   -5.78599  -0.98845  -0.87649  -0.83467  -0.77499
  Beta  occ. eigenvalues --   -0.70422  -0.69506  -0.66248  -0.65165  -0.63525
  Beta  occ. eigenvalues --   -0.58363  -0.56953  -0.52511  -0.49517  -0.48363
  Beta  occ. eigenvalues --   -0.45430  -0.42428  -0.41396  -0.40769  -0.40458
  Beta  occ. eigenvalues --   -0.37491  -0.36965  -0.35792  -0.34732  -0.33406
  Beta  occ. eigenvalues --   -0.32819  -0.32361  -0.31049  -0.30537  -0.29433
  Beta  occ. eigenvalues --   -0.28154  -0.27617  -0.27085  -0.26497  -0.25901
  Beta  occ. eigenvalues --   -0.24501  -0.23999  -0.23178  -0.21584  -0.16927
  Beta  occ. eigenvalues --   -0.15405  -0.15262  -0.14160  -0.10210  -0.09879
  Beta virt. eigenvalues --    0.05011   0.06685   0.06901   0.07221   0.07677
  Beta virt. eigenvalues --    0.08106   0.08729   0.09302   0.09442   0.10552
  Beta virt. eigenvalues --    0.10581   0.10941   0.11344   0.11977   0.12127

 Mulliken charges and spin densities:
               1          2
     1  C    0.275732  -0.666069
     2  C   -0.275794   0.069727
     3  O   -0.103818   0.008635
     4  C   -0.507479   0.021159
     5  C    0.343569  -0.266124
     6  C   -0.142309  -0.223069
     7  C   -0.440602   0.018529
     8  C    0.944077   0.249570
     9  C   -0.391829   0.024048
    10  C   -0.062957  -0.084643
    11  C    0.011064  -0.030085
    12  N    0.091757  -0.015461
    13  C   -0.721156  -0.013578
    14  C    0.522114   0.373722
    15  S   -0.647441   0.086821
    16  C   -0.398397   0.191719
    17  O   -0.390951   0.120481
    18  H    0.085842   0.065233
    19  H   -0.301271   0.433081
    20  H    0.011679   0.122907
    21  H   -0.100617   0.284515
    22  H    0.084455   0.047085
    23  H    0.057876   0.094892
    24  H    0.120919   0.045120
    25  H    0.176986  -0.005323
    26  H    0.141886   0.037111
    27  H    0.187621   0.002160
    28  H    0.128972   0.049548
    29  H    0.255467  -0.025152
    30  H    0.044606  -0.016558
 Sum of Mulliken charges =  -1.00000   1.00000

 Dipole moment (field-independent basis, Debye):
    X=             -9.5183    Y=              1.8411    Z=              0.7147  Tot=              9.7210
 Quadrupole moment (field-independent basis, Debye-Ang):
   XX=           -248.5395   YY=           -120.9763   ZZ=           -119.0972
   XY=              1.1157   XZ=              5.4120   YZ=             -1.4600

 Summary of Natural Population Analysis:

                                       Natural Population
                Natural  -----------------------------------------------
    Atom  No    Charge         Core      Valence    Rydberg      Total
 -----------------------------------------------------------------------
      C    1   -0.30190      0.99966     2.29753    0.00470     3.30190
      C    2   -0.01323      0.99959     2.00113    0.01252     3.01323
      O    3   -0.27633      0.99986     3.26735    0.00913     4.27633
      C    4    0.16328      0.99938     1.82363    0.01370     2.83672
      C    5   -0.15464      0.99952     2.14583    0.00928     3.15464
      C    6   -0.08950      0.99958     2.08116    0.00876     3.08950
      C    7   -0.11214      0.99951     2.10440    0.00823     3.11214
      C    8   -0.00134      0.99951     1.99203    0.00979     3.00134
      C    9   -0.11952      0.99947     2.11155    0.00851     3.11952
      C   10   -0.21915      0.99954     2.20875    0.01086     3.21915
      C   11    0.03728      0.99961     1.94652    0.01659     2.96272
      N   12   -0.24669      0.99963     2.73475    0.01231     3.74669
      C   13   -0.01063      0.99947     1.99786    0.01330     3.01063
      C   14   -0.07996      0.99949     2.07082    0.00965     3.07996
      S   15    0.19467      4.99943     2.78531    0.02059     7.80533
      C   16    0.23550      0.99968     1.74436    0.02046     2.76450
      O   17   -0.26616      0.99988     3.25858    0.00769     4.26616
      H   18    0.10159      0.00000     0.39754    0.00087     0.39841
      H   19    0.10276      0.00000     0.39585    0.00139     0.39724
      H   20    0.10213      0.00000     0.39678    0.00109     0.39787
      H   21    0.09215      0.00000     0.40670    0.00115     0.40785
      H   22    0.08376      0.00000     0.41494    0.00129     0.41624
      H   23    0.10272      0.00000     0.39621    0.00108     0.39728
      H   24    0.09852      0.00000     0.40057    0.00092     0.40148
      H   25    0.10372      0.00000     0.39539    0.00089     0.39628
      H   26    0.10602      0.00000     0.39233    0.00165     0.39398
      H   27    0.11403      0.00000     0.38469    0.00128     0.38597
      H   28    0.10598      0.00000     0.39259    0.00143     0.39402
      H   29    0.10837      0.00000     0.39038    0.00125     0.39163
      H   30    0.03870      0.00000     0.45877    0.00254     0.46130
 =======================================================================
   * Total *    0.00000     20.99282    43.79429    0.21289    65.00000

 Normal termination of Gaussian 16 at Fri Dec 11 13:40:32 2020.
