 Gaussian 16, Revision A.03,

 -----------------------------------------------------------
 # opt freq B3LYP/6-31G(d) empiricaldispersion=gd3bj scf=xqc
 -----------------------------------------------------------

 ------------------------------
 CID_84768135_JID_3014_neutraal
 ------------------------------
 Symbolic Z-matrix:
 Charge =  0 Multiplicity = 1

 SCF Done:  E(RB3LYP) =  -610.132983893     A.U. after   14 cycles
 SCF Done:  E(RB3LYP) =  -610.136192497     A.U. after   13 cycles
 SCF Done:  E(RB3LYP) =  -610.135888917     A.U. after   12 cycles
 SCF Done:  E(RB3LYP) =  -610.136795018     A.U. after   12 cycles
 SCF Done:  E(RB3LYP) =  -610.136893628     A.U. after   11 cycles
 SCF Done:  E(RB3LYP) =  -610.136952806     A.U. after   12 cycles
 SCF Done:  E(RB3LYP) =  -610.136980487     A.U. after   10 cycles
 SCF Done:  E(RB3LYP) =  -610.136999015     A.U. after   10 cycles
 SCF Done:  E(RB3LYP) =  -610.137010997     A.U. after   10 cycles
 SCF Done:  E(RB3LYP) =  -610.137012291     A.U. after    9 cycles
 SCF Done:  E(RB3LYP) =  -610.137013268     A.U. after    9 cycles
 SCF Done:  E(RB3LYP) =  -610.137014432     A.U. after    9 cycles
 SCF Done:  E(RB3LYP) =  -610.137014885     A.U. after    9 cycles
 SCF Done:  E(RB3LYP) =  -610.137014983     A.U. after    7 cycles
 Optimization completed.
    -- Stationary point found.
 Normal termination of Gaussian 16 at Wed Dec  9 22:21:21 2020.

 --------------------------------------------------------------------
 #N Geom=AllCheck Guess=TCheck SCRF=Check GenChk RB3LYP/6-31G(d) Freq
 --------------------------------------------------------------------

 Structure from the checkpoint file:  "JID_3014.chk"
 ------------------------------
 CID_84768135_JID_3014_neutraal
 ------------------------------
 Charge =  0 Multiplicity = 1

 SCF Done:  E(RB3LYP) =  -610.137014983     A.U. after    1 cycles

  Exact polarizability: 137.831  -4.920  95.845   5.992   8.061  86.280
 Approx polarizability: 172.976  -7.168 149.400  11.512  22.598 144.691

                      1                      2                      3
                      A                      A                      A
 Frequencies --     23.3176                29.8829                43.3863
 Red. masses --      5.6204                 2.9861                 7.5357
 Frc consts  --      0.0018                 0.0016                 0.0084
 IR Inten    --      0.8243                 0.0453                 1.6591

                      4                      5                      6
                      A                      A                      A
 Frequencies --     85.9982               121.5868               155.2981
 Red. masses --      6.7120                 3.0064                 4.4644
 Frc consts  --      0.0292                 0.0262                 0.0634
 IR Inten    --      1.5321                 0.2028                 0.1312

                      7                      8                      9
                      A                      A                      A
 Frequencies --    175.7545               236.2538               308.6137
 Red. masses --      3.2962                 4.0804                 2.7342
 Frc consts  --      0.0600                 0.1342                 0.1534
 IR Inten    --      0.2425                 2.7511                 2.1034

                     10                     11                     12
                      A                      A                      A
 Frequencies --    348.8553               424.8434               435.0682
 Red. masses --      3.1736                 3.0642                 3.5728
 Frc consts  --      0.2276                 0.3259                 0.3984
 IR Inten    --      0.6193                 2.7430                 5.1114

                     13                     14                     15
                      A                      A                      A
 Frequencies --    507.7474               525.3264               612.9938
 Red. masses --      3.4363                 1.9587                 2.8905
 Frc consts  --      0.5220                 0.3185                 0.6399
 IR Inten    --     10.2944                25.1747                 5.3018

                     16                     17                     18
                      A                      A                      A
 Frequencies --    617.7671               658.8908               684.1483
 Red. masses --      3.0275                 4.0854                 3.0437
 Frc consts  --      0.6808                 1.0450                 0.8394
 IR Inten    --     22.8368                 2.2753                30.0138

                     19                     20                     21
                      A                      A                      A
 Frequencies --    688.7466               714.9496               780.5128
 Red. masses --      1.7498                 2.4185                 1.4446
 Frc consts  --      0.4891                 0.7284                 0.5185
 IR Inten    --     72.2793                26.6981                 8.5994

                     22                     23                     24
                      A                      A                      A
 Frequencies --    790.0133               813.1783               818.2897
 Red. masses --      1.0872                 2.8109                 1.3110
 Frc consts  --      0.3998                 1.0951                 0.5172
 IR Inten    --      0.1486                 9.9133                 9.4894

                     25                     26                     27
                      A                      A                      A
 Frequencies --    881.9017               912.4390               951.8816
 Red. masses --      1.3079                 3.2481                 2.5345
 Frc consts  --      0.5993                 1.5933                 1.3530
 IR Inten    --     14.4086                 3.1089                16.9102

                     28                     29                     30
                      A                      A                      A
 Frequencies --    961.0271               976.0177              1012.4667
 Red. masses --      3.7925                 2.0548                 4.2469
 Frc consts  --      2.0637                 1.1533                 2.5650
 IR Inten    --      8.8973                 8.8984                50.2035

                     31                     32                     33
                      A                      A                      A
 Frequencies --   1050.0006              1054.6361              1075.4187
 Red. masses --      2.9450                 2.7136                 1.2933
 Frc consts  --      1.9130                 1.7783                 0.8812
 IR Inten    --      3.9109                 8.0259                11.5603

                     34                     35                     36
                      A                      A                      A
 Frequencies --   1088.7746              1089.9032              1119.4021
 Red. masses --      1.8818                 1.3453                 1.1521
 Frc consts  --      1.3143                 0.9416                 0.8506
 IR Inten    --      3.6647                 2.7841                 0.9788

                     37                     38                     39
                      A                      A                      A
 Frequencies --   1158.4066              1188.1690              1213.7140
 Red. masses --      1.6325                 1.6588                 1.3334
 Frc consts  --      1.2907                 1.3798                 1.1573
 IR Inten    --    168.6070                57.7004                 0.4012

                     40                     41                     42
                      A                      A                      A
 Frequencies --   1216.0235              1229.4264              1243.0318
 Red. masses --      1.6507                 1.4110                 1.7292
 Frc consts  --      1.4381                 1.2566                 1.5742
 IR Inten    --     72.9091                10.6665                 1.0927

                     43                     44                     45
                      A                      A                      A
 Frequencies --   1266.4390              1325.6162              1332.5367
 Red. masses --      1.3805                 4.8276                 1.5104
 Frc consts  --      1.3045                 4.9983                 1.5801
 IR Inten    --     13.6269                 8.9473                 7.3383

                     46                     47                     48
                      A                      A                      A
 Frequencies --   1369.5417              1405.6755              1424.2729
 Red. masses --      1.6304                 1.7258                 3.6956
 Frc consts  --      1.8018                 2.0092                 4.4169
 IR Inten    --     20.0358                 2.3689                 1.3259

                     49                     50                     51
                      A                      A                      A
 Frequencies --   1428.9361              1444.2623              1474.4148
 Red. masses --      2.5577                 2.7340                 1.0907
 Frc consts  --      3.0770                 3.3601                 1.3970
 IR Inten    --     62.4639                11.2806                 2.9098

                     52                     53                     54
                      A                      A                      A
 Frequencies --   1489.0637              1489.8120              1511.9548
 Red. masses --      1.6231                 1.1910                 1.1151
 Frc consts  --      2.1205                 1.5574                 1.5019
 IR Inten    --     13.0259                15.6463                 8.6147

                     55                     56                     57
                      A                      A                      A
 Frequencies --   1541.2923              1617.5430              1841.7930
 Red. masses --      2.2696                 5.1350                 9.4440
 Frc consts  --      3.1767                 7.9159                18.8750
 IR Inten    --     39.2760                 9.9933               228.6789

                     58                     59                     60
                      A                      A                      A
 Frequencies --   3044.2688              3065.5975              3102.6140
 Red. masses --      1.0678                 1.0615                 1.1007
 Frc consts  --      5.8303                 5.8775                 6.2430
 IR Inten    --     19.0057                35.5191                 4.9914

                     61                     62                     63
                      A                      A                      A
 Frequencies --   3117.7608              3157.2190              3158.6458
 Red. masses --      1.0963                 1.0519                 1.0584
 Frc consts  --      6.2789                 6.1777                 6.2216
 IR Inten    --     17.1834                13.8200                10.8190

                     64                     65                     66
                      A                      A                      A
 Frequencies --   3200.3518              3244.4026              3255.5466
 Red. masses --      1.0908                 1.1190                 1.1156
 Frc consts  --      6.5824                 6.9399                 6.9661
 IR Inten    --      8.2846                 1.2722                 9.9784

                     67                     68                     69
                      A                      A                      A
 Frequencies --   3264.2562              3275.4229              3681.3261
 Red. masses --      1.0970                 1.0965                 1.0639
 Frc consts  --      6.8869                 6.9312                 8.4947
 IR Inten    --      2.3230                 0.8523                44.2378

 - Thermochemistry -
 -------------------
 Temperature   298.150 Kelvin.  Pressure   1.00000 Atm.
 Atom     1 has atomic number  6 and mass  12.00000

 Molecular mass:   180.08988 amu.
 Principal axes and moments of inertia in atomic units:
                           1         2         3
     Eigenvalues --   890.977825028.808095240.37777
           X            0.99995  -0.01016   0.00134
           Y            0.01012   0.99971   0.02205
           Z           -0.00156  -0.02204   0.99976
 This molecule is an asymmetric top.
 Rotational symmetry number  1.
 Warning -- assumption of classical behavior for rotation
           may cause significant error
 Rotational temperatures (Kelvin)      0.09721     0.01722     0.01653
 Rotational constants (GHZ):           2.02557     0.35888     0.34439
 Zero-point vibrational energy     541637.0 (Joules/Mol)
                                  129.45434 (Kcal/Mol)
 Warning -- explicit consideration of  16 degrees of freedom as
           vibrations may cause significant error
 Vibrational temperatures:     33.55    42.99    62.42   123.73   174.94
          (Kelvin)            223.44   252.87   339.92   444.03   501.92
                              611.25   625.97   730.54   755.83   881.96
                              888.83   948.00   984.34   990.95  1028.65
                             1122.98  1136.65  1169.98  1177.34  1268.86
                             1312.80  1369.55  1382.70  1404.27  1456.71
                             1510.72  1517.39  1547.29  1566.50  1568.13
                             1610.57  1666.69  1709.51  1746.26  1749.59
                             1768.87  1788.45  1822.12  1907.27  1917.22
                             1970.46  2022.45  2049.21  2055.92  2077.97
                             2121.35  2142.43  2143.51  2175.37  2217.58
                             2327.28  2649.93  4380.02  4410.71  4463.97
                             4485.76  4542.53  4544.59  4604.59  4667.97
                             4684.01  4696.54  4712.60  5296.61

 Zero-point correction=                           0.206299 (Hartree/Particle)
 Thermal correction to Energy=                    0.218425
 Thermal correction to Enthalpy=                  0.219369
 Thermal correction to Gibbs Free Energy=         0.165229
 Sum of electronic and zero-point Energies=           -609.930716
 Sum of electronic and thermal Energies=              -609.918590
 Sum of electronic and thermal Enthalpies=            -609.917646
 Sum of electronic and thermal Free Energies=         -609.971786

                     E (Thermal)             CV                S
                      KCal/Mol        Cal/Mol-Kelvin    Cal/Mol-Kelvin
 Total                  137.064             44.857            113.947
 Electronic               0.000              0.000              0.000
 Translational            0.889              2.981             41.472
 Rotational               0.889              2.981             31.530
 Vibrational            135.286             38.896             40.946
 Vibration     1          0.593              1.985              6.329
 Vibration     2          0.594              1.984              5.837
 Vibration     3          0.595              1.980              5.098
 Vibration     4          0.601              1.959              3.749
 Vibration     5          0.609              1.931              3.075
 Vibration     6          0.620              1.897              2.606
 Vibration     7          0.628              1.872              2.373
 Vibration     8          0.655              1.785              1.831
 Vibration     9          0.698              1.657              1.370
 Vibration    10          0.726              1.578              1.171
 Vibration    11          0.787              1.416              0.876
 Vibration    12          0.796              1.394              0.842
 Vibration    13          0.863              1.233              0.639
 Vibration    14          0.880              1.194              0.598
 Vibration    15          0.972              1.004              0.428
 Vibration    16          0.978              0.994              0.420

                           ! Non-Optimized Parameters !
 Normal termination of Gaussian 16 at Wed Dec  9 22:26:44 2020.

 ----------------------------------------------------------------------
 # B3LYP/6-311++G(d,p) empiricaldispersion=gd3bj scf=xqc pop=npa geom=c
 heck
 ----------------------------------------------------------------------

 --------------------------------------
 CID_84768135_JID_3014_Energie_neutraal
 --------------------------------------
 Structure from the checkpoint file:  "JID_3014.chk"
 Charge =  0 Multiplicity = 1

 SCF Done:  E(RB3LYP) =  -610.314952501     A.U. after   15 cycles
 Normal termination of Gaussian 16 at Wed Dec  9 22:28:45 2020.

 ----------------------------------------------------------------------
 # B3LYP/6-311++G(d,p) empiricaldispersion=gd3bj scf=xqc pop=npa geom=c
 heck
 ----------------------------------------------------------------------

 ------------------------------------
 CID_84768135_JID_3014_Energie_kation
 ------------------------------------
 Structure from the checkpoint file:  "JID_3014.chk"
 Charge =  1 Multiplicity = 2

 SCF Done:  E(UB3LYP) =  -610.013048148     A.U. after   23 cycles
 Normal termination of Gaussian 16 at Wed Dec  9 22:32:52 2020.
 Gaussian 16:  ES64L-G16RevA.03 25-Dec-2016

 ----------------------------------------------------------------------
 # B3LYP/6-311++G(d,p) empiricaldispersion=gd3bj scf=xqc pop=npa geom=c
 heck
 ----------------------------------------------------------------------

 -----------------------------------
 CID_84768135_JID_3014_Energie_anion
 -----------------------------------
 Structure from the checkpoint file:  "JID_3014.chk"
 Charge = -1 Multiplicity = 2

                         Standard orientation:
 ---------------------------------------------------------------------
 Center     Atomic      Atomic             Coordinates (Angstroms)
 Number     Number       Type             X           Y           Z
 ---------------------------------------------------------------------
      1          6           0       -4.221772    0.235788    0.390557
      2          6           0       -3.791824    1.063563   -0.799068
      3          6           0       -3.133208   -0.259074   -0.521256
      4          7           0       -1.774955   -0.287625   -0.051602
      5          6           0       -0.827451   -1.221085   -0.329829
      6          6           0        0.324454   -0.852609    0.349543
      7          6           0       -0.045835    0.340296    1.016195
      8          7           0       -1.314448    0.677539    0.773484
      9          6           0        1.656286   -1.545418    0.333593
     10          6           0        2.669029   -0.885861   -0.616024
     11          6           0        3.141676    0.460515   -0.114299
     12          8           0        3.114937    0.839428    1.036849
     13          8           0        3.653167    1.217425   -1.114966
     14          1           0       -5.181132   -0.272960    0.362978
     15          1           0       -3.901708    0.580065    1.368344
     16          1           0       -4.449851    1.134733   -1.660391
     17          1           0       -3.193337    1.944467   -0.592188
     18          1           0       -3.336896   -1.097691   -1.178473
     19          1           0       -1.038286   -2.065471   -0.971466
     20          1           0        0.568062    0.957563    1.657066
     21          1           0        2.085593   -1.558872    1.340729
     22          1           0        1.525247   -2.588904    0.026033
     23          1           0        3.564645   -1.514765   -0.719643
     24          1           0        2.252776   -0.764151   -1.620772
     25          1           0        3.957748    2.045075   -0.696936
 ---------------------------------------------------------------------

 SCF Done:  E(UB3LYP) =  -610.302450842     A.U. after   31 cycles

 The electronic state is 2-A.
 Alpha  occ. eigenvalues --  -19.07640 -19.02173 -14.29292 -14.22751 -10.21172
 Alpha  occ. eigenvalues --  -10.12741 -10.10290 -10.08952 -10.08497 -10.08397
 Alpha  occ. eigenvalues --  -10.08355 -10.08327 -10.07169  -1.01676  -0.95393
 Alpha  occ. eigenvalues --   -0.92737  -0.78851  -0.71735  -0.71539  -0.66643
 Alpha  occ. eigenvalues --   -0.58911  -0.54462  -0.51643  -0.50846  -0.47508
 Alpha  occ. eigenvalues --   -0.45716  -0.43728  -0.40708  -0.39674  -0.39251
 Alpha  occ. eigenvalues --   -0.38353  -0.36023  -0.35360  -0.33105  -0.32593
 Alpha  occ. eigenvalues --   -0.30752  -0.30159  -0.29402  -0.27939  -0.27403
 Alpha  occ. eigenvalues --   -0.26109  -0.23398  -0.22992  -0.21934  -0.19553
 Alpha  occ. eigenvalues --   -0.19125  -0.15192  -0.13494   0.04219
 Alpha virt. eigenvalues --    0.05621   0.06676   0.07807   0.08529   0.08901
 Alpha virt. eigenvalues --    0.09477   0.10008   0.10186   0.10728   0.11874
 Alpha virt. eigenvalues --    0.12457   0.12502   0.12976   0.14084   0.14374

  Beta  occ. eigenvalues --  -19.07601 -19.02160 -14.29290 -14.22747 -10.21149
  Beta  occ. eigenvalues --  -10.12719 -10.10264 -10.08920 -10.08493 -10.08385
  Beta  occ. eigenvalues --  -10.08342 -10.08311 -10.07172  -1.01614  -0.95382
  Beta  occ. eigenvalues --   -0.92689  -0.78822  -0.71706  -0.71518  -0.66598
  Beta  occ. eigenvalues --   -0.58844  -0.54429  -0.51605  -0.50776  -0.47452
  Beta  occ. eigenvalues --   -0.45679  -0.43679  -0.40657  -0.39613  -0.39218
  Beta  occ. eigenvalues --   -0.38281  -0.35991  -0.35334  -0.33064  -0.32554
  Beta  occ. eigenvalues --   -0.30711  -0.30128  -0.29354  -0.27914  -0.27357
  Beta  occ. eigenvalues --   -0.26078  -0.23347  -0.22970  -0.21910  -0.19543
  Beta  occ. eigenvalues --   -0.19095  -0.15165  -0.13480
  Beta virt. eigenvalues --    0.06727   0.07088   0.07681   0.08560   0.08842
  Beta virt. eigenvalues --    0.09206   0.09824   0.10171   0.10337   0.11266
  Beta virt. eigenvalues --    0.12240   0.12525   0.12546   0.13439   0.14106

 Mulliken charges and spin densities:
               1          2
     1  C    0.697954  -1.026157
     2  C    0.796132  -1.123316
     3  C   -0.734236   0.509864
     4  N    0.442778  -0.042619
     5  C    0.730235  -1.203750
     6  C   -0.547102   1.313189
     7  C   -0.281918  -0.064791
     8  N   -0.339505   0.132103
     9  C    0.054993  -0.763254
    10  C    0.985857  -1.221578
    11  C   -0.168186   0.003024
    12  O   -0.293616   0.016232
    13  O   -0.162828   0.039622
    14  H   -0.195848   0.342709
    15  H    0.180043  -0.013178
    16  H   -0.185899   0.332905
    17  H    0.167867   0.000199
    18  H   -1.054862   1.276805
    19  H   -0.558485   0.736596
    20  H    0.187524  -0.011479
    21  H    0.113396   0.073191
    22  H   -0.165559   0.338592
    23  H   -0.608625   0.794777
    24  H    0.166717   0.053119
    25  H   -0.226827   0.507194
 Sum of Mulliken charges =  -1.00000   1.00000

 Dipole moment (field-independent basis, Debye):
    X=              0.0676    Y=              2.7614    Z=              3.2396  Tot=              4.2573
 Quadrupole moment (field-independent basis, Debye-Ang):
   XX=           -166.7611   YY=           -116.4925   ZZ=           -108.4296
   XY=             -8.8250   XZ=             -7.8088   YZ=             -7.7832

 Summary of Natural Population Analysis:

                                       Natural Population
                Natural  -----------------------------------------------
    Atom  No    Charge         Core      Valence    Rydberg      Total
 -----------------------------------------------------------------------
      C    1   -0.20115      0.99963     2.19334    0.00818     3.20115
      C    2   -0.20090      0.99963     2.19304    0.00823     3.20090
      C    3   -0.01172      0.99956     1.99741    0.01474     3.01172
      N    4   -0.10193      0.99964     2.58828    0.01400     3.60193
      C    5   -0.00166      0.99950     1.99106    0.01110     3.00166
      C    6   -0.07725      0.99952     2.06693    0.01080     3.07725
      C    7   -0.01034      0.99957     1.99733    0.01344     3.01034
      N    8   -0.16168      0.99973     2.65130    0.01065     3.66168
      C    9   -0.19835      0.99960     2.18797    0.01078     3.19835
      C   10   -0.23402      0.99957     2.22576    0.00868     3.23402
      C   11    0.41127      0.99972     1.56340    0.02561     2.58873
      O   12   -0.31253      0.99987     3.30635    0.00632     4.31253
      O   13   -0.34341      0.99988     3.33714    0.00640     4.34341
      H   14    0.10449      0.00000     0.39440    0.00110     0.39551
      H   15    0.11093      0.00000     0.38793    0.00114     0.38907
      H   16    0.10487      0.00000     0.39398    0.00115     0.39513
      H   17    0.11170      0.00000     0.38711    0.00120     0.38830
      H   18    0.11277      0.00000     0.38270    0.00453     0.38723
      H   19    0.10807      0.00000     0.39006    0.00186     0.39193
      H   20    0.10508      0.00000     0.39396    0.00096     0.39492
      H   21    0.10877      0.00000     0.39002    0.00121     0.39123
      H   22    0.10607      0.00000     0.39268    0.00125     0.39393
      H   23    0.11767      0.00000     0.37931    0.00302     0.38233
      H   24    0.11244      0.00000     0.38611    0.00145     0.38756
      H   25    0.24080      0.00000     0.25164    0.00756     0.25920
 =======================================================================
   * Total *    0.00000     12.99542    34.82920    0.17538    48.00000

 Normal termination of Gaussian 16 at Wed Dec  9 22:38:27 2020.
