 Gaussian 16, Revision A.03,

 -----------------------------------------------------------
 # opt freq B3LYP/6-31G(d) empiricaldispersion=gd3bj scf=xqc
 -----------------------------------------------------------

 -------------------------------
 CID_123938312_JID_4665_neutraal
 -------------------------------
 Symbolic Z-matrix:
 Charge =  0 Multiplicity = 1

 SCF Done:  E(RB3LYP) =  -618.608157165     A.U. after   14 cycles
 SCF Done:  E(RB3LYP) =  -618.611508280     A.U. after   13 cycles
 SCF Done:  E(RB3LYP) =  -618.611392213     A.U. after   12 cycles
 SCF Done:  E(RB3LYP) =  -618.613157616     A.U. after   12 cycles
 SCF Done:  E(RB3LYP) =  -618.613868835     A.U. after   11 cycles
 SCF Done:  E(RB3LYP) =  -618.614067852     A.U. after   11 cycles
 SCF Done:  E(RB3LYP) =  -618.614134075     A.U. after   11 cycles
 SCF Done:  E(RB3LYP) =  -618.614141050     A.U. after    9 cycles
 SCF Done:  E(RB3LYP) =  -618.614141960     A.U. after    8 cycles
 SCF Done:  E(RB3LYP) =  -618.614142041     A.U. after    7 cycles
 Optimization completed.
    -- Stationary point found.
 Normal termination of Gaussian 16 at Thu Dec 10 10:19:07 2020.

 --------------------------------------------------------------------
 #N Geom=AllCheck Guess=TCheck SCRF=Check GenChk RB3LYP/6-31G(d) Freq
 --------------------------------------------------------------------

 Structure from the checkpoint file:  "JID_4665.chk"
 -------------------------------
 CID_123938312_JID_4665_neutraal
 -------------------------------
 Charge =  0 Multiplicity = 1

 SCF Done:  E(RB3LYP) =  -618.614142041     A.U. after    1 cycles

  Exact polarizability: 165.663   2.702 142.074  -0.838   1.455  89.429
 Approx polarizability: 216.590   2.793 211.699  -5.335   2.782 134.001

                      1                      2                      3
                      A                      A                      A
 Frequencies --     36.9220                47.8538                75.1688
 Red. masses --      3.2435                 5.2510                 2.1132
 Frc consts  --      0.0026                 0.0071                 0.0070
 IR Inten    --      0.3968                 1.7896                 0.1276

                      4                      5                      6
                      A                      A                      A
 Frequencies --     98.4147               114.9468               122.1855
 Red. masses --      3.1506                 2.5508                 2.8274
 Frc consts  --      0.0180                 0.0199                 0.0249
 IR Inten    --      1.3837                 0.1453                 0.0839

                      7                      8                      9
                      A                      A                      A
 Frequencies --    139.2690               173.8489               219.7278
 Red. masses --      1.2296                 2.7145                 2.2575
 Frc consts  --      0.0141                 0.0483                 0.0642
 IR Inten    --      0.1065                 1.9693                 1.2013

                     10                     11                     12
                      A                      A                      A
 Frequencies --    232.3858               253.3108               265.4375
 Red. masses --      1.5597                 2.1360                 2.1644
 Frc consts  --      0.0496                 0.0808                 0.0898
 IR Inten    --      0.1119                 0.8743                 1.5541

                     13                     14                     15
                      A                      A                      A
 Frequencies --    280.8050               326.4512               338.6962
 Red. masses --      1.5614                 1.9834                 3.1153
 Frc consts  --      0.0725                 0.1245                 0.2106
 IR Inten    --      0.3583                 0.4486                 1.4889

                     16                     17                     18
                      A                      A                      A
 Frequencies --    340.0659               359.4699               451.5324
 Red. masses --      4.1069                 3.3599                 3.3066
 Frc consts  --      0.2798                 0.2558                 0.3972
 IR Inten    --     12.3175                 0.8546                 2.8868

                     19                     20                     21
                      A                      A                      A
 Frequencies --    471.5100               491.8142               551.0293
 Red. masses --      2.4792                 4.1094                 3.2905
 Frc consts  --      0.3247                 0.5856                 0.5887
 IR Inten    --      2.2927                 3.5061                 2.2572

                     22                     23                     24
                      A                      A                      A
 Frequencies --    565.7471               638.1309               752.1357
 Red. masses --      3.4909                 3.7236                 2.9167
 Frc consts  --      0.6583                 0.8934                 0.9721
 IR Inten    --      1.4142                 1.9103                27.7218

                     25                     26                     27
                      A                      A                      A
 Frequencies --    759.6727               769.1503               794.8410
 Red. masses --      2.5297                 2.6386                 1.3899
 Frc consts  --      0.8602                 0.9197                 0.5174
 IR Inten    --      5.6553                14.3078                 3.4003

                     28                     29                     30
                      A                      A                      A
 Frequencies --    839.5822               882.6571               893.4423
 Red. masses --      2.2450                 1.9487                 2.0436
 Frc consts  --      0.9324                 0.8945                 0.9611
 IR Inten    --      1.5006                 3.1390                 2.2363

                     31                     32                     33
                      A                      A                      A
 Frequencies --    911.0063               918.4229               979.1921
 Red. masses --      1.5477                 2.7120                 1.6368
 Frc consts  --      0.7568                 1.3478                 0.9247
 IR Inten    --      7.0292                 6.8486                 6.1950

                     34                     35                     36
                      A                      A                      A
 Frequencies --    984.8831              1003.6137              1020.1610
 Red. masses --      1.8142                 1.9977                 2.8605
 Frc consts  --      1.0368                 1.1855                 1.7540
 IR Inten    --      2.9640                 1.6820                 6.2885

                     37                     38                     39
                      A                      A                      A
 Frequencies --   1043.3319              1054.0944              1074.9199
 Red. masses --      2.2877                 2.0161                 2.7361
 Frc consts  --      1.4672                 1.3199                 1.8627
 IR Inten    --      6.8852                 7.2213                29.1439

                     40                     41                     42
                      A                      A                      A
 Frequencies --   1110.5919              1123.2884              1150.6287
 Red. masses --      2.0512                 1.6705                 2.0903
 Frc consts  --      1.4906                 1.2418                 1.6305
 IR Inten    --     24.0679                 2.8694                18.7461

                     43                     44                     45
                      A                      A                      A
 Frequencies --   1163.0994              1186.6550              1200.1406
 Red. masses --      1.9141                 1.2760                 1.3557
 Frc consts  --      1.5256                 1.0586                 1.1505
 IR Inten    --     35.2485                 0.9392                 2.5021

                     46                     47                     48
                      A                      A                      A
 Frequencies --   1218.5808              1226.7465              1268.3675
 Red. masses --      1.6141                 1.8110                 1.3763
 Frc consts  --      1.4122                 1.6058                 1.3045
 IR Inten    --      6.7128                66.3129                 2.9331

                     49                     50                     51
                      A                      A                      A
 Frequencies --   1296.5615              1303.4047              1324.6499
 Red. masses --      1.7209                 2.4030                 1.2629
 Frc consts  --      1.7045                 2.4053                 1.3056
 IR Inten    --    175.2635               263.9378                26.3767

                     52                     53                     54
                      A                      A                      A
 Frequencies --   1343.6371              1375.1827              1377.1564
 Red. masses --      1.2522                 1.4788                 1.4710
 Frc consts  --      1.3320                 1.6477                 1.6437
 IR Inten    --      5.1014                 5.0583                10.2154

                     55                     56                     57
                      A                      A                      A
 Frequencies --   1393.2436              1407.4093              1418.6923
 Red. masses --      1.5095                 1.8924                 1.6175
 Frc consts  --      1.7264                 2.2085                 1.9181
 IR Inten    --      5.7789                 1.6037                 1.1809

                     58                     59                     60
                      A                      A                      A
 Frequencies --   1440.4167              1442.8659              1491.8861
 Red. masses --      1.2842                 1.3507                 1.2001
 Frc consts  --      1.5699                 1.6568                 1.5738
 IR Inten    --      1.2308                 6.1412                 9.2682

                     61                     62                     63
                      A                      A                      A
 Frequencies --   1495.0613              1508.1171              1511.6071
 Red. masses --      1.0932                 1.0963                 1.0482
 Frc consts  --      1.4397                 1.4691                 1.4112
 IR Inten    --      6.4171                 1.1631                 5.3567

                     64                     65                     66
                      A                      A                      A
 Frequencies --   1516.0293              1525.2481              1525.3533
 Red. masses --      1.0638                 1.0425                 1.0483
 Frc consts  --      1.4406                 1.4289                 1.4371
 IR Inten    --      0.7660                 6.4722                 9.0278

                     67                     68                     69
                      A                      A                      A
 Frequencies --   1534.9491              1536.5126              1543.8954
 Red. masses --      1.0493                 1.0669                 1.0465
 Frc consts  --      1.4566                 1.4840                 1.4696
 IR Inten    --      4.5614                 5.2074                 2.2962

                     70                     71                     72
                      A                      A                      A
 Frequencies --   1670.0402              1720.3126              1801.4727
 Red. masses --      7.8814                 6.6759                11.4639
 Frc consts  --     12.9512                11.6406                21.9198
 IR Inten    --     49.1444                12.2115               207.0789

                     73                     74                     75
                      A                      A                      A
 Frequencies --   2981.4910              2984.4244              3005.0425
 Red. masses --      1.0809                 1.0736                 1.0689
 Frc consts  --      5.6611                 5.6341                 5.6869
 IR Inten    --     16.7384                26.4260                39.9957

                     76                     77                     78
                      A                      A                      A
 Frequencies --   3040.2624              3046.8240              3053.5447
 Red. masses --      1.0615                 1.0378                 1.0382
 Frc consts  --      5.7808                 5.6762                 5.7037
 IR Inten    --     20.8847                36.3608                14.7554

                     79                     80                     81
                      A                      A                      A
 Frequencies --   3073.6461              3075.5868              3077.7807
 Red. masses --      1.0297                 1.0925                 1.0989
 Frc consts  --      5.7317                 6.0890                 6.1334
 IR Inten    --     44.2333                21.6830                21.0716

                     82                     83                     84
                      A                      A                      A
 Frequencies --   3086.8221              3109.8519              3118.1855
 Red. masses --      1.0887                 1.1012                 1.1003
 Frc consts  --      6.1121                 6.2747                 6.3033
 IR Inten    --     31.6603                38.3446                32.0309

                     85                     86                     87
                      A                      A                      A
 Frequencies --   3123.1677              3134.7389              3146.9332
 Red. masses --      1.1021                 1.1007                 1.1072
 Frc consts  --      6.3339                 6.3726                 6.4605
 IR Inten    --     44.0927                34.5586                21.9923

                     88                     89                     90
                      A                      A                      A
 Frequencies --   3179.0499              3214.5533              3242.2465
 Red. masses --      1.1071                 1.0907                 1.0892
 Frc consts  --      6.5921                 6.6402                 6.7459
 IR Inten    --     18.5772                 0.7140                 5.3421

 - Thermochemistry -
 -------------------
 Temperature   298.150 Kelvin.  Pressure   1.00000 Atm.
 Atom     1 has atomic number  6 and mass  12.00000

 Molecular mass:   194.13068 amu.
 Principal axes and moments of inertia in atomic units:
                           1         2         3
     Eigenvalues --  1629.750304985.954376186.65615
           X            0.99999   0.00064   0.00325
           Y           -0.00065   0.99999   0.00368
           Z           -0.00325  -0.00368   0.99999
 This molecule is an asymmetric top.
 Rotational symmetry number  1.
 Warning -- assumption of classical behavior for rotation
           may cause significant error
 Rotational temperatures (Kelvin)      0.05315     0.01737     0.01400
 Rotational constants (GHZ):           1.10737     0.36197     0.29172
 Zero-point vibrational energy     736431.8 (Joules/Mol)
                                  176.01143 (Kcal/Mol)
 Warning -- explicit consideration of  22 degrees of freedom as
           vibrations may cause significant error
 Vibrational temperatures:     53.12    68.85   108.15   141.60   165.38
          (Kelvin)            175.80   200.38   250.13   316.14   334.35
                              364.46   381.91   404.02   469.69   487.31
                              489.28   517.20   649.65   678.40   707.61
                              792.81   813.98   918.13  1082.16  1093.00
                             1106.64  1143.60  1207.97  1269.95  1285.46
                             1310.73  1321.41  1408.84  1417.03  1443.98
                             1467.78  1501.12  1516.61  1546.57  1597.89
                             1616.16  1655.50  1673.44  1707.33  1726.73
                             1753.27  1765.01  1824.90  1865.46  1875.31
                             1905.88  1933.19  1978.58  1981.42  2004.57
                             2024.95  2041.18  2072.44  2075.96  2146.49
                             2151.06  2169.84  2174.87  2181.23  2194.49
                             2194.64  2208.45  2210.70  2221.32  2402.82
                             2475.15  2591.92  4289.70  4293.92  4323.59
                             4374.26  4383.70  4393.37  4422.29  4425.08
                             4428.24  4441.25  4474.38  4486.37  4493.54
                             4510.19  4527.74  4573.94  4625.03  4664.87

 Zero-point correction=                           0.280492 (Hartree/Particle)
 Thermal correction to Energy=                    0.295560
 Thermal correction to Enthalpy=                  0.296504
 Thermal correction to Gibbs Free Energy=         0.237850
 Sum of electronic and zero-point Energies=           -618.333650
 Sum of electronic and thermal Energies=              -618.318582
 Sum of electronic and thermal Enthalpies=            -618.317638
 Sum of electronic and thermal Free Energies=         -618.376292

                     E (Thermal)             CV                S
                      KCal/Mol        Cal/Mol-Kelvin    Cal/Mol-Kelvin
 Total                  185.467             55.735            123.448
 Electronic               0.000              0.000              0.000
 Translational            0.889              2.981             41.695
 Rotational               0.889              2.981             32.286
 Vibrational            183.689             49.773             49.467
 Vibration     1          0.594              1.982              5.418
 Vibration     2          0.595              1.978              4.904
 Vibration     3          0.599              1.966              4.013
 Vibration     4          0.604              1.950              3.485
 Vibration     5          0.608              1.937              3.184
 Vibration     6          0.610              1.931              3.066
 Vibration     7          0.615              1.914              2.814
 Vibration     8          0.627              1.875              2.393
 Vibration     9          0.647              1.811              1.961
 Vibration    10          0.653              1.791              1.860
 Vibration    11          0.664              1.757              1.707
 Vibration    12          0.671              1.736              1.626
 Vibration    13          0.680              1.709              1.529
 Vibration    14          0.710              1.623              1.278
 Vibration    15          0.719              1.598              1.218
 Vibration    16          0.720              1.595              1.212
 Vibration    17          0.734              1.556              1.124
 Vibration    18          0.810              1.358              0.791
 Vibration    19          0.828              1.313              0.733
 Vibration    20          0.848              1.268              0.679
 Vibration    21          0.906              1.137              0.542
 Vibration    22          0.922              1.105              0.512

 Optimization completed.
    -- Stationary point found.
 Normal termination of Gaussian 16 at Thu Dec 10 10:27:16 2020.

 ----------------------------------------------------------------------
 # B3LYP/6-311++G(d,p) empiricaldispersion=gd3bj scf=xqc pop=npa geom=c
 heck
 ----------------------------------------------------------------------

 ---------------------------------------
 CID_123938312_JID_4665_Energie_neutraal
 ---------------------------------------
 Structure from the checkpoint file:  "JID_4665.chk"
 Charge =  0 Multiplicity = 1

 SCF Done:  E(RB3LYP) =  -618.787103899     A.U. after   14 cycles
 Normal termination of Gaussian 16 at Thu Dec 10 10:30:37 2020.

 ----------------------------------------------------------------------
 # B3LYP/6-311++G(d,p) empiricaldispersion=gd3bj scf=xqc pop=npa geom=c
 heck
 ----------------------------------------------------------------------

 -------------------------------------
 CID_123938312_JID_4665_Energie_kation
 -------------------------------------
 Structure from the checkpoint file:  "JID_4665.chk"
 Charge =  1 Multiplicity = 2

 SCF Done:  E(UB3LYP) =  -618.499230126     A.U. after   20 cycles
 Normal termination of Gaussian 16 at Thu Dec 10 10:37:16 2020.
 Gaussian 16:  ES64L-G16RevA.03 25-Dec-2016

 ----------------------------------------------------------------------
 # B3LYP/6-311++G(d,p) empiricaldispersion=gd3bj scf=xqc pop=npa geom=c
 heck
 ----------------------------------------------------------------------

 ------------------------------------
 CID_123938312_JID_4665_Energie_anion
 ------------------------------------
 Structure from the checkpoint file:  "JID_4665.chk"
 Charge = -1 Multiplicity = 2

                         Standard orientation:
 ---------------------------------------------------------------------
 Center     Atomic      Atomic             Coordinates (Angstroms)
 Number     Number       Type             X           Y           Z
 ---------------------------------------------------------------------
      1          6           0        4.597273   -0.916353    0.716168
      2          6           0        3.172217   -0.374258    0.855475
      3          6           0        2.383779   -0.303254   -0.476482
      4          6           0        2.219913   -1.687083   -1.112738
      5          6           0        1.075650    0.428195   -0.261637
      6          6           0       -0.136080   -0.151431   -0.340216
      7          6           0       -1.363696    0.611953   -0.078891
      8          6           0       -1.343487    1.959824   -0.064837
      9          6           0       -0.059121    2.690860   -0.332709
     10          6           0        1.152911    1.886686    0.155624
     11          6           0       -2.668687   -0.068792    0.134861
     12          8           0       -3.726338    0.489340    0.355437
     13          8           0       -2.555431   -1.417849    0.056418
     14          6           0       -3.778424   -2.140153    0.248334
     15          1           0        4.608828   -1.963300    0.396524
     16          1           0        5.130308   -0.858669    1.671647
     17          1           0        5.168387   -0.336312   -0.019511
     18          1           0        2.600965   -0.993335    1.560510
     19          1           0        3.219499    0.628741    1.296485
     20          1           0        2.984300    0.313692   -1.165817
     21          1           0        1.723897   -2.383309   -0.426035
     22          1           0        1.621352   -1.630903   -2.027625
     23          1           0        3.192143   -2.114262   -1.374165
     24          1           0       -0.244697   -1.200482   -0.583765
     25          1           0       -2.268817    2.507200    0.086094
     26          1           0       -0.070271    3.684323    0.128690
     27          1           0        0.020176    2.858040   -1.420919
     28          1           0        2.078745    2.344186   -0.212614
     29          1           0        1.199948    1.940458    1.255006
     30          1           0       -4.196178   -1.931800    1.236910
     31          1           0       -4.513845   -1.859314   -0.510406
     32          1           0       -3.514066   -3.194045    0.156447
 ---------------------------------------------------------------------

 SCF Done:  E(UB3LYP) =  -618.785598587     A.U. after   33 cycles
 SCF Done:  E(UB3LYP) =  -618.785598587     a.u. after    1 cycles

 The electronic state is 2-A.
 Alpha  occ. eigenvalues --  -19.02607 -18.95035 -10.13594 -10.10994 -10.05543
 Alpha  occ. eigenvalues --  -10.05538 -10.05388 -10.04551 -10.03687 -10.03518
 Alpha  occ. eigenvalues --  -10.02400 -10.01784 -10.01388 -10.00312  -0.96321
 Alpha  occ. eigenvalues --   -0.86805  -0.71400  -0.68132  -0.62835  -0.62323
 Alpha  occ. eigenvalues --   -0.59045  -0.58595  -0.53413  -0.49341  -0.47154
 Alpha  occ. eigenvalues --   -0.45338  -0.41320  -0.38315  -0.35728  -0.35550
 Alpha  occ. eigenvalues --   -0.35270  -0.33782  -0.32728  -0.31587  -0.31173
 Alpha  occ. eigenvalues --   -0.29934  -0.29414  -0.27844  -0.26796  -0.26676
 Alpha  occ. eigenvalues --   -0.25883  -0.25200  -0.23848  -0.22866  -0.22555
 Alpha  occ. eigenvalues --   -0.21947  -0.21190  -0.19501  -0.17489  -0.17300
 Alpha  occ. eigenvalues --   -0.15929  -0.13143  -0.07504   0.05018
 Alpha virt. eigenvalues --    0.06823   0.08000   0.08788   0.08946   0.09750
 Alpha virt. eigenvalues --    0.10835   0.11364   0.11520   0.11737   0.12123
 Alpha virt. eigenvalues --    0.12539   0.13003   0.13631   0.13979   0.14380

  Beta  occ. eigenvalues --  -19.02522 -18.94909 -10.13422 -10.10998 -10.05545
  Beta  occ. eigenvalues --  -10.05521 -10.05366 -10.04545 -10.03673 -10.03557
  Beta  occ. eigenvalues --  -10.02232 -10.01782 -10.01372  -9.99769  -0.96114
  Beta  occ. eigenvalues --   -0.86579  -0.71195  -0.67906  -0.62622  -0.62186
  Beta  occ. eigenvalues --   -0.58874  -0.58329  -0.53300  -0.49112  -0.46922
  Beta  occ. eigenvalues --   -0.45106  -0.41029  -0.38174  -0.35469  -0.35285
  Beta  occ. eigenvalues --   -0.35144  -0.33662  -0.32585  -0.31421  -0.31047
  Beta  occ. eigenvalues --   -0.29795  -0.29278  -0.27813  -0.26609  -0.26123
  Beta  occ. eigenvalues --   -0.25767  -0.25061  -0.23558  -0.22742  -0.22466
  Beta  occ. eigenvalues --   -0.21848  -0.21072  -0.19300  -0.17290  -0.16754
  Beta  occ. eigenvalues --   -0.15096  -0.12986  -0.05960
  Beta virt. eigenvalues --    0.07045   0.07958   0.08887   0.09049   0.09807
  Beta virt. eigenvalues --    0.10650   0.11015   0.11397   0.11519   0.11776
  Beta virt. eigenvalues --    0.12262   0.12598   0.13035   0.13675   0.13888

 Mulliken charges and spin densities:
               1          2
     1  C    0.301403  -0.959052
     2  C   -0.801656   0.600045
     3  C    0.433840  -0.145142
     4  C   -0.284496  -0.415506
     5  C    0.385393   0.493654
     6  C   -0.754685   0.007547
     7  C    0.758376  -0.121396
     8  C   -0.408788   0.592795
     9  C   -0.709228  -0.188559
    10  C   -0.126718  -0.414001
    11  C   -0.151227   0.016629
    12  O   -0.363577   0.045357
    13  O   -0.107027   0.013639
    14  C   -0.234556  -0.007698
    15  H    0.072897   0.051926
    16  H   -0.037308   0.162926
    17  H   -0.242181   0.386498
    18  H    0.060645   0.077088
    19  H    0.151783  -0.014807
    20  H   -0.064724   0.242014
    21  H    0.127662   0.010876
    22  H    0.087924   0.038185
    23  H   -0.020684   0.161104
    24  H    0.222731  -0.031577
    25  H    0.178372  -0.028405
    26  H    0.134029  -0.009803
    27  H    0.041045   0.099376
    28  H   -0.160783   0.305836
    29  H    0.094728   0.015352
    30  H    0.158236   0.001304
    31  H    0.151906   0.011758
    32  H    0.106668   0.002036
 Sum of Mulliken charges =  -1.00000   1.00000

 Dipole moment (field-independent basis, Debye):
    X=             -0.2953    Y=             -3.4444    Z=              0.8292  Tot=              3.5551
 Quadrupole moment (field-independent basis, Debye-Ang):
   XX=           -152.1067   YY=           -104.7012   ZZ=           -101.4577
   XY=              7.7469   XZ=              5.2091   YZ=              0.8676

 Summary of Natural Population Analysis:

                                       Natural Population
                Natural  -----------------------------------------------
    Atom  No    Charge         Core      Valence    Rydberg      Total
 -----------------------------------------------------------------------
      C    1   -0.28627      0.99967     2.28170    0.00490     3.28627
      C    2   -0.18361      0.99962     2.17527    0.00872     3.18361
      C    3   -0.11966      0.99956     2.10913    0.01097     3.11966
      C    4   -0.28816      0.99966     2.28148    0.00702     3.28816
      C    5    0.02021      0.99949     1.96889    0.01142     2.97979
      C    6   -0.11113      0.99944     2.10336    0.00833     3.11113
      C    7   -0.10964      0.99941     2.09918    0.01105     3.10964
      C    8    0.06800      0.99951     1.92375    0.00874     2.93200
      C    9   -0.20896      0.99964     2.19992    0.00940     3.20896
      C   10   -0.20072      0.99960     2.19073    0.01039     3.20072
      C   11    0.42271      0.99963     1.55404    0.02362     2.57729
      O   12   -0.32289      0.99987     3.31727    0.00574     4.32289
      O   13   -0.27906      0.99986     3.27119    0.00801     4.27906
      C   14   -0.10486      0.99961     2.09676    0.00849     3.10486
      H   15    0.09342      0.00000     0.40572    0.00086     0.40658
      H   16    0.09433      0.00000     0.40495    0.00072     0.40567
      H   17    0.09713      0.00000     0.40165    0.00123     0.40287
      H   18    0.09250      0.00000     0.40641    0.00109     0.40750
      H   19    0.09707      0.00000     0.40188    0.00105     0.40293
      H   20    0.09510      0.00000     0.40211    0.00280     0.40490
      H   21    0.09591      0.00000     0.40317    0.00092     0.40409
      H   22    0.10232      0.00000     0.39673    0.00095     0.39768
      H   23    0.09530      0.00000     0.40402    0.00068     0.40470
      H   24    0.10158      0.00000     0.39694    0.00148     0.39842
      H   25    0.09385      0.00000     0.40522    0.00093     0.40615
      H   26    0.09558      0.00000     0.40342    0.00101     0.40442
      H   27    0.10273      0.00000     0.39589    0.00137     0.39727
      H   28    0.09733      0.00000     0.40120    0.00147     0.40267
      H   29    0.09457      0.00000     0.40398    0.00144     0.40543
      H   30    0.08664      0.00000     0.41212    0.00125     0.41336
      H   31    0.08658      0.00000     0.41216    0.00126     0.41342
      H   32    0.08211      0.00000     0.41705    0.00084     0.41789
 =======================================================================
   * Total *    0.00000     13.99458    38.84729    0.15813    53.00000

 Normal termination of Gaussian 16 at Thu Dec 10 10:48:45 2020.
