 Gaussian 16, Revision A.03,

 -----------------------------------------------------------
 # opt freq B3LYP/6-31G(d) empiricaldispersion=gd3bj scf=xqc
 -----------------------------------------------------------

 -------------------------------
 CID_142253360_JID_5624_neutraal
 -------------------------------
 Symbolic Z-matrix:
 Charge =  0 Multiplicity = 1

 SCF Done:  E(RB3LYP) =  -650.275392266     A.U. after   14 cycles
 SCF Done:  E(RB3LYP) =  -650.279956050     A.U. after   12 cycles
 SCF Done:  E(RB3LYP) =  -650.280999089     A.U. after   12 cycles
 SCF Done:  E(RB3LYP) =  -650.281837142     A.U. after   12 cycles
 SCF Done:  E(RB3LYP) =  -650.282327696     A.U. after   11 cycles
 SCF Done:  E(RB3LYP) =  -650.282394952     A.U. after   11 cycles
 SCF Done:  E(RB3LYP) =  -650.282467748     A.U. after   11 cycles
 SCF Done:  E(RB3LYP) =  -650.282477567     A.U. after    9 cycles
 SCF Done:  E(RB3LYP) =  -650.282483763     A.U. after    9 cycles
 SCF Done:  E(RB3LYP) =  -650.282489963     A.U. after    9 cycles
 SCF Done:  E(RB3LYP) =  -650.282581206     A.U. after    7 cycles
 SCF Done:  E(RB3LYP) =  -650.282581318     A.U. after    8 cycles
 SCF Done:  E(RB3LYP) =  -650.282581397     A.U. after    7 cycles
 SCF Done:  E(RB3LYP) =  -650.282581422     A.U. after    7 cycles
 SCF Done:  E(RB3LYP) =  -650.282581429     A.U. after    6 cycles
 Optimization completed.
    -- Stationary point found.
 Normal termination of Gaussian 16 at Thu Dec 10 16:08:32 2020.

 --------------------------------------------------------------------
 #N Geom=AllCheck Guess=TCheck SCRF=Check GenChk RB3LYP/6-31G(d) Freq
 --------------------------------------------------------------------

 Structure from the checkpoint file:  "JID_5624.chk"
 -------------------------------
 CID_142253360_JID_5624_neutraal
 -------------------------------
 Charge =  0 Multiplicity = 1

 SCF Done:  E(RB3LYP) =  -650.282581429     A.U. after    1 cycles

  Exact polarizability: 169.149   2.930 156.805   9.176  -8.645 103.494
 Approx polarizability: 226.599   6.369 240.140  18.267 -24.488 156.559

                      1                      2                      3
                      A                      A                      A
 Frequencies --     38.5852                51.4765                56.0374
 Red. masses --      3.1077                 2.5897                 1.0722
 Frc consts  --      0.0027                 0.0040                 0.0020
 IR Inten    --      0.0082                 0.1009                 0.5464

                      4                      5                      6
                      A                      A                      A
 Frequencies --     68.5707                87.4033               105.4631
 Red. masses --      3.1111                 3.2744                 2.7770
 Frc consts  --      0.0086                 0.0147                 0.0182
 IR Inten    --      0.0559                 0.0289                 0.5208

                      7                      8                      9
                      A                      A                      A
 Frequencies --    150.0085               154.5426               157.1629
 Red. masses --      2.5577                 1.4214                 3.1193
 Frc consts  --      0.0339                 0.0200                 0.0454
 IR Inten    --      2.6158                 7.2405                 0.9856

                     10                     11                     12
                      A                      A                      A
 Frequencies --    172.5670               213.1732               216.6918
 Red. masses --      2.0108                 2.0914                 1.4694
 Frc consts  --      0.0353                 0.0560                 0.0407
 IR Inten    --      8.5737                 1.7900                 1.9950

                     13                     14                     15
                      A                      A                      A
 Frequencies --    227.3826               233.0941               288.7295
 Red. masses --      1.3124                 4.0698                 3.6700
 Frc consts  --      0.0400                 0.1303                 0.1803
 IR Inten    --      0.8779                 2.8612                 1.6146

                     16                     17                     18
                      A                      A                      A
 Frequencies --    310.9368               324.2129               359.0154
 Red. masses --      2.2111                 2.1439                 2.4312
 Frc consts  --      0.1260                 0.1328                 0.1846
 IR Inten    --      1.1105                 4.9108                 5.0529

                     19                     20                     21
                      A                      A                      A
 Frequencies --    394.5771               414.2207               440.4972
 Red. masses --      2.7255                 2.6921                 2.2221
 Frc consts  --      0.2500                 0.2721                 0.2540
 IR Inten    --     30.4781                 9.2214                22.6009

                     22                     23                     24
                      A                      A                      A
 Frequencies --    515.6654               547.8328               552.5233
 Red. masses --      1.6600                 3.2179                 3.1412
 Frc consts  --      0.2601                 0.5690                 0.5650
 IR Inten    --    127.2041                 6.1798                 7.3115

                     25                     26                     27
                      A                      A                      A
 Frequencies --    565.0691               647.7251               680.2471
 Red. masses --      3.9541                 3.5580                 3.0130
 Frc consts  --      0.7439                 0.8795                 0.8214
 IR Inten    --     14.7498                 3.9113                 7.3323

                     28                     29                     30
                      A                      A                      A
 Frequencies --    701.6555               761.8247               785.8664
 Red. masses --      5.2451                 1.8747                 1.8053
 Frc consts  --      1.5214                 0.6410                 0.6569
 IR Inten    --      0.5932                 6.0904                15.3324

                     31                     32                     33
                      A                      A                      A
 Frequencies --    808.9707               810.3182               836.1368
 Red. masses --      3.0080                 1.2605                 3.6432
 Frc consts  --      1.1598                 0.4876                 1.5007
 IR Inten    --      6.1952                 0.7702                 2.8962

                     34                     35                     36
                      A                      A                      A
 Frequencies --    898.5402               907.7413               955.4869
 Red. masses --      2.4103                 1.7491                 2.1160
 Frc consts  --      1.1466                 0.8492                 1.1382
 IR Inten    --     17.5466                 8.8903                 7.1435

                     37                     38                     39
                      A                      A                      A
 Frequencies --    976.4695               987.5646              1026.2241
 Red. masses --      2.1560                 1.8990                 1.9716
 Frc consts  --      1.2112                 1.0912                 1.2233
 IR Inten    --     24.6048                38.5853                10.4626

                     40                     41                     42
                      A                      A                      A
 Frequencies --   1029.8247              1070.9979              1076.3191
 Red. masses --      2.6923                 2.0813                 1.6577
 Frc consts  --      1.6823                 1.4066                 1.1314
 IR Inten    --     15.9777                 6.2365                 3.9693

                     43                     44                     45
                      A                      A                      A
 Frequencies --   1085.3906              1097.7856              1107.4965
 Red. masses --      2.1198                 1.7657                 1.6021
 Frc consts  --      1.4713                 1.2537                 1.1578
 IR Inten    --      4.2798                10.9409                 4.6976

                     46                     47                     48
                      A                      A                      A
 Frequencies --   1131.9015              1148.5731              1194.9880
 Red. masses --      1.9093                 2.0753                 3.2407
 Frc consts  --      1.4412                 1.6130                 2.7266
 IR Inten    --      2.3608                 0.9802                11.8732

                     49                     50                     51
                      A                      A                      A
 Frequencies --   1218.1492              1258.1713              1273.0122
 Red. masses --      1.6813                 1.8788                 1.3474
 Frc consts  --      1.4699                 1.7523                 1.2865
 IR Inten    --      7.4277                55.2526                 2.2461

                     52                     53                     54
                      A                      A                      A
 Frequencies --   1282.8548              1317.9096              1338.0373
 Red. masses --      1.9014                 1.8064                 1.1660
 Frc consts  --      1.8436                 1.8486                 1.2299
 IR Inten    --      5.1100                11.4121                 1.0834

                     55                     56                     57
                      A                      A                      A
 Frequencies --   1359.9645              1372.2689              1378.1956
 Red. masses --      1.4928                 1.4213                 1.1662
 Frc consts  --      1.6267                 1.5770                 1.3051
 IR Inten    --      0.5875                13.6087                 0.9640

                     58                     59                     60
                      A                      A                      A
 Frequencies --   1399.1308              1403.1479              1412.7574
 Red. masses --      1.3923                 1.5595                 1.5702
 Frc consts  --      1.6059                 1.8091                 1.8464
 IR Inten    --      4.4486                12.6441                 1.8868

                     61                     62                     63
                      A                      A                      A
 Frequencies --   1422.4086              1435.3682              1439.5599
 Red. masses --      1.7302                 1.7116                 1.7634
 Frc consts  --      2.0625                 2.0777                 2.1531
 IR Inten    --      5.9761                50.9914                19.8192

                     64                     65                     66
                      A                      A                      A
 Frequencies --   1445.7374              1471.0147              1502.1944
 Red. masses --      1.3416                 4.0568                 1.3359
 Frc consts  --      1.6522                 5.1721                 1.7761
 IR Inten    --     18.5202                63.6220                20.1662

                     67                     68                     69
                      A                      A                      A
 Frequencies --   1509.8849              1512.6763              1514.0869
 Red. masses --      1.0464                 1.1776                 1.1004
 Frc consts  --      1.4055                 1.5876                 1.4862
 IR Inten    --      5.8757                 6.2966                 1.4254

                     70                     71                     72
                      A                      A                      A
 Frequencies --   1520.9455              1523.0733              1525.5396
 Red. masses --      1.5424                 1.0865                 1.0502
 Frc consts  --      2.1022                 1.4850                 1.4401
 IR Inten    --    110.1200                17.5875                 4.7369

                     73                     74                     75
                      A                      A                      A
 Frequencies --   1528.7148              1536.9033              1537.7869
 Red. masses --      1.0631                 1.0713                 1.0728
 Frc consts  --      1.4638                 1.4909                 1.4948
 IR Inten    --     20.1309                 4.3315                 1.0794

                     76                     77                     78
                      A                      A                      A
 Frequencies --   1547.6341              1622.5264              1623.0974
 Red. masses --      1.1009                 7.0753                 5.1010
 Frc consts  --      1.5536                10.9744                 7.9176
 IR Inten    --      6.0207               289.1692               159.7570

                     79                     80                     81
                      A                      A                      A
 Frequencies --   1749.7879              3027.7343              3039.2090
 Red. masses --      1.0608                 1.0622                 1.0679
 Frc consts  --      1.9137                 5.7371                 5.8114
 IR Inten    --     23.9027                18.7860                35.8268

                     82                     83                     84
                      A                      A                      A
 Frequencies --   3045.1623              3047.4292              3050.7835
 Red. masses --      1.0635                 1.0391                 1.0350
 Frc consts  --      5.8102                 5.6853                 5.6756
 IR Inten    --     13.1874                19.1603                29.3893

                     85                     86                     87
                      A                      A                      A
 Frequencies --   3059.3383              3066.4661              3075.9412
 Red. masses --      1.0382                 1.0999                 1.1016
 Frc consts  --      5.7253                 6.0935                 6.1410
 IR Inten    --     16.0217                42.3896                27.1426

                     88                     89                     90
                      A                      A                      A
 Frequencies --   3087.9549              3110.0107              3113.7259
 Red. masses --      1.0640                 1.1001                 1.1002
 Frc consts  --      5.9776                 6.2693                 6.2847
 IR Inten    --      9.5482                64.5411                13.4708

                     91                     92                     93
                      A                      A                      A
 Frequencies --   3113.9994              3116.3444              3118.7115
 Red. masses --      1.0971                 1.0988                 1.0979
 Frc consts  --      6.2682                 6.2872                 6.2916
 IR Inten    --      5.1042                63.4626                39.0265

                     94                     95                     96
                      A                      A                      A
 Frequencies --   3126.0613              3144.6179              3168.9516
 Red. masses --      1.1024                 1.1017                 1.1013
 Frc consts  --      6.3473                 6.4188                 6.5163
 IR Inten    --     15.9797                30.5178                 9.9450

                     97                     98                     99
                      A                      A                      A
 Frequencies --   3428.3381              3500.4592              3645.4156
 Red. masses --      1.0488                 1.0922                 1.0771
 Frc consts  --      7.2627                 7.8851                 8.4332
 IR Inten    --      5.6239                 0.9875                33.3457

 - Thermochemistry -
 -------------------
 Temperature   298.150 Kelvin.  Pressure   1.00000 Atm.
 Atom     1 has atomic number  6 and mass  12.00000

 Molecular mass:   208.16880 amu.
 Principal axes and moments of inertia in atomic units:
                           1         2         3
     Eigenvalues --  2612.176373878.010505559.99647
           X            0.99994  -0.01052   0.00237
           Y            0.01049   0.99986   0.01295
           Z           -0.00251  -0.01293   0.99991
 This molecule is an asymmetric top.
 Rotational symmetry number  1.
 Warning -- assumption of classical behavior for rotation
           may cause significant error
 Rotational temperatures (Kelvin)      0.03316     0.02233     0.01558
 Rotational constants (GHZ):           0.69090     0.46538     0.32459
 Zero-point vibrational energy     816108.5 (Joules/Mol)
                                  195.05461 (Kcal/Mol)
 Warning -- explicit consideration of  25 degrees of freedom as
           vibrations may cause significant error
 Vibrational temperatures:     55.52    74.06    80.63    98.66   125.75
          (Kelvin)            151.74   215.83   222.35   226.12   248.29
                              306.71   311.77   327.15   335.37   415.42
                              447.37   466.47   516.54   567.71   595.97
                              633.78   741.93   788.21   794.96   813.01
                              931.93   978.72  1009.53  1096.10  1130.69
                             1163.93  1165.87  1203.01  1292.80  1306.04
                             1374.73  1404.92  1420.89  1476.51  1481.69
                             1540.93  1548.58  1561.64  1579.47  1593.44
                             1628.55  1652.54  1719.32  1752.65  1810.23
                             1831.58  1845.74  1896.18  1925.14  1956.69
                             1974.39  1982.92  2013.04  2018.82  2032.64
                             2046.53  2065.17  2071.21  2080.09  2116.46
                             2161.32  2172.39  2176.40  2178.43  2188.30
                             2191.36  2194.91  2199.48  2211.26  2212.53
                             2226.70  2334.45  2335.28  2517.55  4356.23
                             4372.74  4381.31  4384.57  4389.40  4401.71
                             4411.96  4425.59  4442.88  4474.61  4479.96
                             4480.35  4483.72  4487.13  4497.71  4524.40
                             4559.41  4932.61  5036.38  5244.94

 Zero-point correction=                           0.310839 (Hartree/Particle)
 Thermal correction to Energy=                    0.327778
 Thermal correction to Enthalpy=                  0.328722
 Thermal correction to Gibbs Free Energy=         0.265880
 Sum of electronic and zero-point Energies=           -649.971742
 Sum of electronic and thermal Energies=              -649.954803
 Sum of electronic and thermal Enthalpies=            -649.953859
 Sum of electronic and thermal Free Energies=         -650.016701

                     E (Thermal)             CV                S
                      KCal/Mol        Cal/Mol-Kelvin    Cal/Mol-Kelvin
 Total                  205.684             61.908            132.262
 Electronic               0.000              0.000              0.000
 Translational            0.889              2.981             41.903
 Rotational               0.889              2.981             32.399
 Vibrational            203.906             55.946             57.960
 Vibration     1          0.594              1.981              5.330
 Vibration     2          0.596              1.977              4.760
 Vibration     3          0.596              1.975              4.592
 Vibration     4          0.598              1.969              4.194
 Vibration     5          0.601              1.958              3.717
 Vibration     6          0.605              1.945              3.351
 Vibration     7          0.618              1.903              2.672
 Vibration     8          0.620              1.898              2.616
 Vibration     9          0.621              1.895              2.584
 Vibration    10          0.626              1.876              2.407
 Vibration    11          0.644              1.821              2.016
 Vibration    12          0.646              1.816              1.987
 Vibration    13          0.651              1.799              1.900
 Vibration    14          0.654              1.790              1.855
 Vibration    15          0.685              1.695              1.481
 Vibration    16          0.700              1.653              1.357
 Vibration    17          0.709              1.627              1.289
 Vibration    18          0.734              1.557              1.126
 Vibration    19          0.762              1.482              0.983
 Vibration    20          0.778              1.439              0.912
 Vibration    21          0.800              1.382              0.825
 Vibration    22          0.871              1.215              0.620
 Vibration    23          0.903              1.144              0.549
 Vibration    24          0.908              1.134              0.539
 Vibration    25          0.921              1.107              0.514

 Optimization completed.
    -- Stationary point found.
 Normal termination of Gaussian 16 at Thu Dec 10 16:21:24 2020.

 ----------------------------------------------------------------------
 # B3LYP/6-311++G(d,p) empiricaldispersion=gd3bj scf=xqc pop=npa geom=c
 heck
 ----------------------------------------------------------------------

 ---------------------------------------
 CID_142253360_JID_5624_Energie_neutraal
 ---------------------------------------
 Structure from the checkpoint file:  "JID_5624.chk"
 Charge =  0 Multiplicity = 1

 SCF Done:  E(RB3LYP) =  -650.466479608     A.U. after   15 cycles
 Normal termination of Gaussian 16 at Thu Dec 10 16:27:55 2020.

 ----------------------------------------------------------------------
 # B3LYP/6-311++G(d,p) empiricaldispersion=gd3bj scf=xqc pop=npa geom=c
 heck
 ----------------------------------------------------------------------

 -------------------------------------
 CID_142253360_JID_5624_Energie_kation
 -------------------------------------
 Structure from the checkpoint file:  "JID_5624.chk"
 Charge =  1 Multiplicity = 2

 SCF Done:  E(UB3LYP) =  -650.170474753     A.U. after   24 cycles
 Normal termination of Gaussian 16 at Thu Dec 10 16:43:18 2020.
 Gaussian 16:  ES64L-G16RevA.03 25-Dec-2016

 ----------------------------------------------------------------------
 # B3LYP/6-311++G(d,p) empiricaldispersion=gd3bj scf=xqc pop=npa geom=c
 heck
 ----------------------------------------------------------------------

 ------------------------------------
 CID_142253360_JID_5624_Energie_anion
 ------------------------------------
 Structure from the checkpoint file:  "JID_5624.chk"
 Charge = -1 Multiplicity = 2

                         Standard orientation:
 ---------------------------------------------------------------------
 Center     Atomic      Atomic             Coordinates (Angstroms)
 Number     Number       Type             X           Y           Z
 ---------------------------------------------------------------------
      1          6           0        4.045504   -0.272152   -0.818658
      2          6           0        2.739843   -0.946517   -1.250682
      3          6           0        2.040370   -1.711283   -0.117753
      4          6           0        1.334725   -0.806686    0.921288
      5          6           0        0.084188   -0.138530    0.397531
      6          6           0       -0.000028    1.195894    0.008345
      7          7           0       -1.148783    1.749983   -0.450143
      8          6           0       -2.217117    0.960990   -0.524321
      9          7           0       -2.262558   -0.334756   -0.174421
     10          6           0       -1.128587   -0.872694    0.286691
     11          7           0       -1.198672   -2.188394    0.692331
     12          7           0       -2.336885   -2.978521    0.406329
     13          6           0       -3.494836    1.558964   -1.047809
     14          6           0        1.150144    2.167946    0.128555
     15          6           0        1.156431    2.853765    1.504855
     16          1           0        3.892689    0.434521    0.004908
     17          1           0        4.497183    0.283868   -1.647363
     18          1           0        4.774332   -1.017469   -0.477929
     19          1           0        2.047576   -0.202689   -1.665865
     20          1           0        2.958639   -1.646144   -2.067177
     21          1           0        1.305009   -2.396393   -0.560054
     22          1           0        2.775951   -2.341069    0.400913
     23          1           0        1.069806   -1.411567    1.799074
     24          1           0        2.039769   -0.055863    1.287477
     25          1           0       -0.346825   -2.727818    0.681183
     26          1           0       -3.026396   -2.769760    1.129300
     27          1           0       -2.749081   -2.605877   -0.452442
     28          1           0       -3.829398    1.020308   -1.941723
     29          1           0       -4.292103    1.467191   -0.301679
     30          1           0       -3.344493    2.611430   -1.293293
     31          1           0        2.109018    1.674402   -0.046792
     32          1           0        1.020460    2.923572   -0.651721
     33          1           0        1.300237    2.125063    2.310879
     34          1           0        1.959707    3.595836    1.568198
     35          1           0        0.202387    3.362098    1.677181
 ---------------------------------------------------------------------

 SCF Done:  E(UB3LYP) =  -650.455522988     A.U. after   33 cycles
 SCF Done:  E(UB3LYP) =  -650.455522988     a.u. after    1 cycles

 The electronic state is 2-A.
 Alpha  occ. eigenvalues --  -14.25516 -14.23922 -14.19111 -14.18736 -10.14401
 Alpha  occ. eigenvalues --  -10.12608 -10.09795 -10.06994 -10.06888 -10.06666
 Alpha  occ. eigenvalues --  -10.06637 -10.06436 -10.06180 -10.05642 -10.05549
 Alpha  occ. eigenvalues --   -0.90845  -0.86017  -0.77236  -0.73414  -0.69487
 Alpha  occ. eigenvalues --   -0.67805  -0.64894  -0.63896  -0.59513  -0.55010
 Alpha  occ. eigenvalues --   -0.54286  -0.51922  -0.48215  -0.46684  -0.43669
 Alpha  occ. eigenvalues --   -0.42029  -0.40848  -0.37642  -0.36506  -0.36316
 Alpha  occ. eigenvalues --   -0.34194  -0.33967  -0.32634  -0.32177  -0.30740
 Alpha  occ. eigenvalues --   -0.29703  -0.29488  -0.28629  -0.28230  -0.27566
 Alpha  occ. eigenvalues --   -0.26987  -0.24596  -0.24239  -0.23590  -0.22961
 Alpha  occ. eigenvalues --   -0.22702  -0.21901  -0.19595  -0.18239  -0.16623
 Alpha  occ. eigenvalues --   -0.14098  -0.12435   0.04457
 Alpha virt. eigenvalues --    0.06823   0.07027   0.07523   0.08182   0.08528
 Alpha virt. eigenvalues --    0.09035   0.09366   0.10000   0.10119   0.10455
 Alpha virt. eigenvalues --    0.11202   0.11821   0.12000   0.12146   0.12910

  Beta  occ. eigenvalues --  -14.25507 -14.23913 -14.19016 -14.18777 -10.14408
  Beta  occ. eigenvalues --  -10.12513 -10.09643 -10.06982 -10.06836 -10.06671
  Beta  occ. eigenvalues --  -10.06602 -10.06426 -10.06185 -10.05594 -10.05511
  Beta  occ. eigenvalues --   -0.90803  -0.85911  -0.77125  -0.73300  -0.69446
  Beta  occ. eigenvalues --   -0.67708  -0.64823  -0.63836  -0.59435  -0.54875
  Beta  occ. eigenvalues --   -0.54225  -0.51865  -0.48108  -0.46600  -0.43615
  Beta  occ. eigenvalues --   -0.41968  -0.40817  -0.37585  -0.36426  -0.36245
  Beta  occ. eigenvalues --   -0.34104  -0.33785  -0.32558  -0.32113  -0.30648
  Beta  occ. eigenvalues --   -0.29613  -0.29463  -0.28576  -0.28132  -0.27501
  Beta  occ. eigenvalues --   -0.26865  -0.24510  -0.24196  -0.23531  -0.22888
  Beta  occ. eigenvalues --   -0.22658  -0.21815  -0.19528  -0.18187  -0.16155
  Beta  occ. eigenvalues --   -0.14057  -0.12183
  Beta virt. eigenvalues --    0.06608   0.07191   0.07725   0.08036   0.08683
  Beta virt. eigenvalues --    0.09114   0.09337   0.09625   0.10292   0.10314
  Beta virt. eigenvalues --    0.10759   0.11474   0.11955   0.12024   0.12432

 Mulliken charges and spin densities:
               1          2
     1  C    1.109234  -1.676800
     2  C   -1.161160   0.878812
     3  C    0.971939  -1.259021
     4  C   -0.708706   0.082416
     5  C    0.525388   0.013041
     6  C   -0.589276   0.387455
     7  N    0.035833  -0.002755
     8  C   -0.098446   0.024706
     9  N   -0.188157   0.047287
    10  C    1.039387  -1.080990
    11  N   -0.199838   0.104121
    12  N   -0.212617  -0.091583
    13  C   -0.018327  -0.356520
    14  C   -1.420214   1.152246
    15  C    0.705403  -1.338932
    16  H   -0.299027   0.440711
    17  H   -0.162277   0.295751
    18  H   -0.251431   0.392865
    19  H    0.025629   0.141441
    20  H   -0.101874   0.260396
    21  H   -0.017315   0.119242
    22  H   -0.609682   0.776823
    23  H   -0.300859   0.529828
    24  H    0.202667  -0.067140
    25  H    0.139507   0.134440
    26  H    0.144312   0.115109
    27  H    0.244069  -0.005874
    28  H    0.138264   0.005933
    29  H    0.048031   0.105227
    30  H    0.135827   0.010462
    31  H    0.336626  -0.213281
    32  H    0.027148   0.136935
    33  H   -0.135706   0.280753
    34  H   -0.423081   0.574393
    35  H    0.068731   0.082503
 Sum of Mulliken charges =  -1.00000   1.00000

 Dipole moment (field-independent basis, Debye):
    X=             -6.3775    Y=              0.1072    Z=             -2.4085  Tot=              6.8180
 Quadrupole moment (field-independent basis, Debye-Ang):
   XX=           -159.1626   YY=           -148.7889   ZZ=           -122.1718
   XY=              2.2918   XZ=             -2.9402   YZ=             -0.2563

 Summary of Natural Population Analysis:

                                       Natural Population
                Natural  -----------------------------------------------
    Atom  No    Charge         Core      Valence    Rydberg      Total
 -----------------------------------------------------------------------
      C    1   -0.28609      0.99966     2.28123    0.00520     3.28609
      C    2   -0.19264      0.99963     2.18481    0.00819     3.19264
      C    3   -0.18512      0.99962     2.17637    0.00914     3.18512
      C    4   -0.20727      0.99961     2.19720    0.01046     3.20727
      C    5   -0.06370      0.99941     2.05466    0.00963     3.06370
      C    6    0.15603      0.99948     1.83061    0.01388     2.84397
      N    7   -0.28390      0.99966     2.77481    0.00944     3.78390
      C    8    0.23705      0.99963     1.74731    0.01600     2.76295
      N    9   -0.28802      0.99963     2.77729    0.01109     3.78802
      C   10    0.21236      0.99949     1.77324    0.01491     2.78764
      N   11   -0.22683      0.99965     2.71472    0.01246     3.72683
      N   12   -0.31764      0.99978     2.80790    0.00996     3.81764
      C   13   -0.30077      0.99963     2.29603    0.00511     3.30077
      C   14   -0.21130      0.99960     2.20217    0.00953     3.21130
      C   15   -0.27813      0.99966     2.27401    0.00447     3.27813
      H   16    0.09634      0.00000     0.40220    0.00146     0.40366
      H   17    0.09757      0.00000     0.40153    0.00090     0.40243
      H   18    0.09792      0.00000     0.40069    0.00139     0.40208
      H   19    0.09607      0.00000     0.40233    0.00159     0.40393
      H   20    0.09452      0.00000     0.40454    0.00094     0.40548
      H   21    0.09010      0.00000     0.40815    0.00175     0.40990
      H   22    0.09962      0.00000     0.39797    0.00241     0.40038
      H   23    0.10488      0.00000     0.39292    0.00221     0.39512
      H   24    0.10766      0.00000     0.39070    0.00164     0.39234
      H   25    0.19085      0.00000     0.30613    0.00302     0.30915
      H   26    0.17148      0.00000     0.32656    0.00196     0.32852
      H   27    0.17639      0.00000     0.32136    0.00225     0.32361
      H   28    0.10217      0.00000     0.39678    0.00105     0.39783
      H   29    0.10370      0.00000     0.39498    0.00132     0.39630
      H   30    0.10505      0.00000     0.39404    0.00092     0.39495
      H   31    0.10229      0.00000     0.39601    0.00170     0.39771
      H   32    0.10526      0.00000     0.39333    0.00142     0.39474
      H   33    0.09652      0.00000     0.40246    0.00102     0.40348
      H   34    0.09868      0.00000     0.39998    0.00134     0.40132
      H   35    0.09890      0.00000     0.40012    0.00098     0.40110
 =======================================================================
   * Total *    0.00000     14.99414    41.82513    0.18073    57.00000

 Normal termination of Gaussian 16 at Thu Dec 10 17:04:09 2020.
