 Gaussian 16, Revision A.03,

 -----------------------------------------------------------
 # opt freq B3LYP/6-31G(d) empiricaldispersion=gd3bj scf=xqc
 -----------------------------------------------------------

 -------------------------------
 CID_130790208_JID_3059_neutraal
 -------------------------------
 Symbolic Z-matrix:
 Charge =  0 Multiplicity = 1

 SCF Done:  E(RB3LYP) =  -1238.86527348     A.U. after   15 cycles
 SCF Done:  E(RB3LYP) =  -1238.87224245     A.U. after   12 cycles
 SCF Done:  E(RB3LYP) =  -1238.87356033     A.U. after   12 cycles
 SCF Done:  E(RB3LYP) =  -1238.87489458     A.U. after   12 cycles
 SCF Done:  E(RB3LYP) =  -1238.87535445     A.U. after   11 cycles
 SCF Done:  E(RB3LYP) =  -1238.87566516     A.U. after   11 cycles
 SCF Done:  E(RB3LYP) =  -1238.87571271     A.U. after   11 cycles
 SCF Done:  E(RB3LYP) =  -1238.87574053     A.U. after   10 cycles
 SCF Done:  E(RB3LYP) =  -1238.87577617     A.U. after   10 cycles
 SCF Done:  E(RB3LYP) =  -1238.87578637     A.U. after    9 cycles
 SCF Done:  E(RB3LYP) =  -1238.87578901     A.U. after    8 cycles
 SCF Done:  E(RB3LYP) =  -1238.87578929     A.U. after    8 cycles
 Optimization completed.
    -- Stationary point found.
 Normal termination of Gaussian 16 at Wed Dec  9 22:21:34 2020.

 --------------------------------------------------------------------
 #N Geom=AllCheck Guess=TCheck SCRF=Check GenChk RB3LYP/6-31G(d) Freq
 --------------------------------------------------------------------

 Structure from the checkpoint file:  "JID_3059.chk"
 -------------------------------
 CID_130790208_JID_3059_neutraal
 -------------------------------
 Charge =  0 Multiplicity = 1

 SCF Done:  E(RB3LYP) =  -1238.87578929     A.U. after    1 cycles

  Exact polarizability: 200.221  -6.228 162.861  -0.679  -5.182  69.292
 Approx polarizability: 305.269 -21.282 292.602  -3.595 -15.999 111.476

                      1                      2                      3
                      A                      A                      A
 Frequencies --     78.8041                84.7038               105.0209
 Red. masses --      4.7965                 3.5292                 4.1266
 Frc consts  --      0.0175                 0.0149                 0.0268
 IR Inten    --      1.3528                 1.6545                 0.2822

                      4                      5                      6
                      A                      A                      A
 Frequencies --    176.2448               178.3382               195.7333
 Red. masses --      3.9776                 1.7359                 1.8532
 Frc consts  --      0.0728                 0.0325                 0.0418
 IR Inten    --      1.9026                11.2252                 6.0489

                      7                      8                      9
                      A                      A                      A
 Frequencies --    218.4509               243.9113               267.7062
 Red. masses --      1.1491                 1.7124                 5.2155
 Frc consts  --      0.0323                 0.0600                 0.2202
 IR Inten    --      2.4298                22.4744                 5.1408

                     10                     11                     12
                      A                      A                      A
 Frequencies --    280.3288               289.9258               325.3124
 Red. masses --      1.7610                 4.7674                 2.9607
 Frc consts  --      0.0815                 0.2361                 0.1846
 IR Inten    --     19.2396                 0.5280                 1.7365

                     13                     14                     15
                      A                      A                      A
 Frequencies --    341.9842               382.4202               454.3034
 Red. masses --      3.6926                 4.7621                 6.0935
 Frc consts  --      0.2544                 0.4103                 0.7410
 IR Inten    --      1.2425                 2.7588                 1.2696

                     16                     17                     18
                      A                      A                      A
 Frequencies --    513.7236               525.8799               548.2969
 Red. masses --      4.6073                 4.3640                 5.9447
 Frc consts  --      0.7164                 0.7111                 1.0530
 IR Inten    --      7.3953                 3.2455                 4.2143

                     19                     20                     21
                      A                      A                      A
 Frequencies --    574.9305               618.4399               646.8984
 Red. masses --      4.4402                 4.9901                 4.1409
 Frc consts  --      0.8647                 1.1245                 1.0210
 IR Inten    --      1.1352                 2.4197                12.4824

                     22                     23                     24
                      A                      A                      A
 Frequencies --    666.3166               700.6204               760.4585
 Red. masses --      3.2134                 1.3112                 3.3875
 Frc consts  --      0.8406                 0.3792                 1.1542
 IR Inten    --      7.3913                64.4195                26.8042

                     25                     26                     27
                      A                      A                      A
 Frequencies --    778.8095               786.2868               825.4081
 Red. masses --      1.8716                 2.3482                 1.6281
 Frc consts  --      0.6688                 0.8554                 0.6535
 IR Inten    --    219.0466                13.3717                17.0815

                     28                     29                     30
                      A                      A                      A
 Frequencies --    826.6513               852.4159               907.0996
 Red. masses --      1.6652                 3.8768                 2.7701
 Frc consts  --      0.6704                 1.6597                 1.3429
 IR Inten    --     10.7007                18.9830                 4.5750

                     31                     32                     33
                      A                      A                      A
 Frequencies --    936.1234               950.0131              1001.4840
 Red. masses --      1.2351                 1.2921                 2.8107
 Frc consts  --      0.6377                 0.6871                 1.6610
 IR Inten    --      6.9186                 0.4575                 0.3607

                     34                     35                     36
                      A                      A                      A
 Frequencies --   1089.7549              1094.4876              1115.7325
 Red. masses --      1.8681                 1.7051                 3.6138
 Frc consts  --      1.3071                 1.2034                 2.6505
 IR Inten    --      6.7141                 8.4306                 7.9459

                     37                     38                     39
                      A                      A                      A
 Frequencies --   1133.5537              1179.0871              1204.3429
 Red. masses --      1.7334                 1.4977                 2.2713
 Frc consts  --      1.3123                 1.2267                 1.9410
 IR Inten    --      0.7932                 0.5881                31.0569

                     40                     41                     42
                      A                      A                      A
 Frequencies --   1234.8308              1247.2472              1296.4764
 Red. masses --      2.0259                 1.5917                 1.3394
 Frc consts  --      1.8200                 1.4588                 1.3265
 IR Inten    --      1.8508                 4.3173                 1.0298

                     43                     44                     45
                      A                      A                      A
 Frequencies --   1363.3866              1376.6788              1426.6781
 Red. masses --      3.1087                 1.7772                 3.2107
 Frc consts  --      3.4046                 1.9845                 3.8504
 IR Inten    --      1.8276                 4.7181                21.5231

                     46                     47                     48
                      A                      A                      A
 Frequencies --   1437.5145              1441.5211              1499.4275
 Red. masses --      1.4496                 2.1780                 3.8341
 Frc consts  --      1.7649                 2.6666                 5.0788
 IR Inten    --     11.1312                37.9173                 8.7145

                     49                     50                     51
                      A                      A                      A
 Frequencies --   1522.2368              1527.2882              1539.5423
 Red. masses --      1.0409                 1.0522                 1.1025
 Frc consts  --      1.4210                 1.4460                 1.5396
 IR Inten    --      4.1911                 3.1234                 7.8709

                     52                     53                     54
                      A                      A                      A
 Frequencies --   1589.8626              1626.7614              1640.4052
 Red. masses --      5.8026                 5.9820                 4.6064
 Frc consts  --      8.6416                 9.3271                 7.3032
 IR Inten    --     15.7261                 2.2341                18.5058

                     55                     56                     57
                      A                      A                      A
 Frequencies --   1696.3370              2671.1313              3050.1076
 Red. masses --      1.2614                 1.0386                 1.0398
 Frc consts  --      2.1387                 4.3662                 5.6994
 IR Inten    --     86.4202                18.7316                20.4794

                     58                     59                     60
                      A                      A                      A
 Frequencies --   3055.5224              3097.6724              3117.6014
 Red. masses --      1.0593                 1.0989                 1.1026
 Frc consts  --      5.8270                 6.2128                 6.3141
 IR Inten    --     23.4079                 2.9469                37.8591

                     61                     62                     63
                      A                      A                      A
 Frequencies --   3131.3310              3194.3386              3216.2739
 Red. masses --      1.1028                 1.0878                 1.0942
 Frc consts  --      6.3712                 6.5398                 6.6686
 IR Inten    --     28.9122                 6.7643                 9.8787

                     64                     65                     66
                      A                      A                      A
 Frequencies --   3256.8604              3517.6991              3615.0539
 Red. masses --      1.0934                 1.0492                 1.0953
 Frc consts  --      6.8335                 7.6493                 8.4333
 IR Inten    --      4.9899                 3.8739                 6.4150

 - Thermochemistry -
 -------------------
 Temperature   298.150 Kelvin.  Pressure   1.00000 Atm.
 Atom     1 has atomic number  6 and mass  12.00000

 Molecular mass:   209.03329 amu.
 Principal axes and moments of inertia in atomic units:
                           1         2         3
     Eigenvalues --  1732.079963811.704985360.09513
           X            0.99872   0.05009   0.00710
           Y           -0.05015   0.99871   0.00793
           Z           -0.00669  -0.00827   0.99994
 This molecule is an asymmetric top.
 Rotational symmetry number  1.
 Warning -- assumption of classical behavior for rotation
           may cause significant error
 Rotational temperatures (Kelvin)      0.05001     0.02272     0.01616
 Rotational constants (GHZ):           1.04195     0.47347     0.33670
 Zero-point vibrational energy     491963.0 (Joules/Mol)
                                  117.58198 (Kcal/Mol)
 Warning -- explicit consideration of  20 degrees of freedom as
           vibrations may cause significant error
 Vibrational temperatures:    113.38   121.87   151.10   253.58   256.59
          (Kelvin)            281.62   314.30   350.93   385.17   403.33
                              417.14   468.05   492.04   550.22   653.64
                              739.13   756.62   788.88   827.20   889.80
                              930.74   958.68  1008.04  1094.13  1120.53
                             1131.29  1187.58  1189.37  1226.44  1305.11
                             1346.87  1366.86  1440.91  1567.91  1574.72
                             1605.29  1630.93  1696.44  1732.78  1776.65
                             1794.51  1865.34  1961.61  1980.73  2052.67
                             2068.26  2074.03  2157.34  2190.16  2197.43
                             2215.06  2287.46  2340.55  2360.18  2440.65
                             3843.16  4388.42  4396.22  4456.86  4485.53
                             4505.29  4595.94  4627.50  4685.90  5061.18
                             5201.26

 Zero-point correction=                           0.187379 (Hartree/Particle)
 Thermal correction to Energy=                    0.200146
 Thermal correction to Enthalpy=                  0.201090
 Thermal correction to Gibbs Free Energy=         0.148613
 Sum of electronic and zero-point Energies=          -1238.688410
 Sum of electronic and thermal Energies=             -1238.675644
 Sum of electronic and thermal Enthalpies=           -1238.674700
 Sum of electronic and thermal Free Energies=        -1238.727176

                     E (Thermal)             CV                S
                      KCal/Mol        Cal/Mol-Kelvin    Cal/Mol-Kelvin
 Total                  125.593             49.125            110.446
 Electronic               0.000              0.000              0.000
 Translational            0.889              2.981             41.916
 Rotational               0.889              2.981             31.937
 Vibrational            123.816             43.163             36.593
 Vibration     1          0.600              1.963              3.920
 Vibration     2          0.601              1.960              3.779
 Vibration     3          0.605              1.945              3.359
 Vibration     4          0.628              1.872              2.368
 Vibration     5          0.629              1.869              2.346
 Vibration     6          0.636              1.846              2.173
 Vibration     7          0.646              1.813              1.972
 Vibration     8          0.659              1.773              1.774
 Vibration     9          0.673              1.732              1.611
 Vibration    10          0.680              1.710              1.532
 Vibration    11          0.686              1.692              1.474
 Vibration    12          0.709              1.625              1.283
 Vibration    13          0.721              1.592              1.203
 Vibration    14          0.752              1.508              1.030
 Vibration    15          0.813              1.351              0.783
 Vibration    16          0.869              1.220              0.625
 Vibration    17          0.881              1.193              0.596
 Vibration    18          0.904              1.143              0.548
 Vibration    19          0.931              1.085              0.495
 Vibration    20          0.978              0.993              0.419

 Optimization completed.
    -- Stationary point found.
 Normal termination of Gaussian 16 at Wed Dec  9 22:27:24 2020.

 ----------------------------------------------------------------------
 # B3LYP/6-311++G(d,p) empiricaldispersion=gd3bj scf=xqc pop=npa geom=c
 heck
 ----------------------------------------------------------------------

 ---------------------------------------
 CID_130790208_JID_3059_Energie_neutraal
 ---------------------------------------
 Structure from the checkpoint file:  "JID_3059.chk"
 Charge =  0 Multiplicity = 1

 SCF Done:  E(RB3LYP) =  -1239.05155254     A.U. after   18 cycles
 Normal termination of Gaussian 16 at Wed Dec  9 22:30:01 2020.

 ----------------------------------------------------------------------
 # B3LYP/6-311++G(d,p) empiricaldispersion=gd3bj scf=xqc pop=npa geom=c
 heck
 ----------------------------------------------------------------------

 -------------------------------------
 CID_130790208_JID_3059_Energie_kation
 -------------------------------------
 Structure from the checkpoint file:  "JID_3059.chk"
 Charge =  1 Multiplicity = 2

 SCF Done:  E(UB3LYP) =  -1238.78453642     A.U. after   24 cycles
 Normal termination of Gaussian 16 at Wed Dec  9 22:34:39 2020.
 Gaussian 16:  ES64L-G16RevA.03 25-Dec-2016

 ----------------------------------------------------------------------
 # B3LYP/6-311++G(d,p) empiricaldispersion=gd3bj scf=xqc pop=npa geom=c
 heck
 ----------------------------------------------------------------------

 ------------------------------------
 CID_130790208_JID_3059_Energie_anion
 ------------------------------------
 Structure from the checkpoint file:  "JID_3059.chk"
 Charge = -1 Multiplicity = 2

                         Standard orientation:
 ---------------------------------------------------------------------
 Center     Atomic      Atomic             Coordinates (Angstroms)
 Number     Number       Type             X           Y           Z
 ---------------------------------------------------------------------
      1          6           0        2.036932    2.341327    0.900910
      2          6           0        1.696348    1.644064   -0.427653
      3          6           0        0.924006    0.364179   -0.225950
      4          6           0        1.537638   -0.888750   -0.071015
      5          6           0        0.776349   -2.057301    0.134506
      6          6           0       -0.607363   -2.009741    0.184938
      7          6           0       -1.256357   -0.774949    0.044114
      8          6           0       -0.476386    0.388429   -0.141150
      9         16           0       -1.490614    1.823241   -0.241834
     10          6           0       -2.937183    0.839608   -0.081254
     11          6           0       -2.676306   -0.490159    0.067491
     12          7           0       -3.617614   -1.506439    0.286919
     13         16           0        3.317066   -1.111052   -0.200176
     14          1           0        1.125532    2.583089    1.457054
     15          1           0        2.587860    3.271027    0.722576
     16          1           0        2.652979    1.699685    1.541472
     17          1           0        1.104338    2.326096   -1.049906
     18          1           0        2.615110    1.430229   -0.983113
     19          1           0        1.293856   -3.001008    0.270668
     20          1           0       -1.178541   -2.915457    0.367076
     21          1           0       -3.907324    1.318036   -0.103847
     22          1           0       -4.571372   -1.207505    0.115444
     23          1           0       -3.423716   -2.344767   -0.252275
     24          1           0        3.695255   -0.149613    0.668956
 ---------------------------------------------------------------------

 SCF Done:  E(UB3LYP) =  -1239.04601492     A.U. after   32 cycles

 The electronic state is 2-A.
 Alpha  occ. eigenvalues --  -88.75045 -88.73699 -14.20369 -10.09253 -10.08779
 Alpha  occ. eigenvalues --  -10.08473 -10.06660 -10.06531 -10.06510 -10.06062
 Alpha  occ. eigenvalues --  -10.05965 -10.05739 -10.05343  -7.83656  -7.82384
 Alpha  occ. eigenvalues --   -5.79980  -5.79627  -5.79173  -5.78749  -5.78398
 Alpha  occ. eigenvalues --   -5.77791  -0.80765  -0.76349  -0.71757  -0.68231
 Alpha  occ. eigenvalues --   -0.65175  -0.61818  -0.59429  -0.56996  -0.52606
 Alpha  occ. eigenvalues --   -0.48256  -0.46548  -0.44310  -0.39565  -0.39053
 Alpha  occ. eigenvalues --   -0.36724  -0.34556  -0.34058  -0.31593  -0.31274
 Alpha  occ. eigenvalues --   -0.30366  -0.28479  -0.27449  -0.26951  -0.26276
 Alpha  occ. eigenvalues --   -0.25015  -0.24639  -0.22687  -0.21973  -0.21252
 Alpha  occ. eigenvalues --   -0.19679  -0.15939  -0.13352  -0.11511  -0.08403
 Alpha  occ. eigenvalues --    0.04400
 Alpha virt. eigenvalues --    0.06241   0.07712   0.08412   0.09093   0.09749
 Alpha virt. eigenvalues --    0.09979   0.10151   0.11264   0.11602   0.12231
 Alpha virt. eigenvalues --    0.12739   0.13324   0.13685   0.14262   0.14629

  Beta  occ. eigenvalues --  -88.75037 -88.73684 -14.20319 -10.09240 -10.08821
  Beta  occ. eigenvalues --  -10.08356 -10.06546 -10.06506 -10.06359 -10.06103
  Beta  occ. eigenvalues --  -10.05889 -10.05686 -10.05197  -7.83648  -7.82366
  Beta  occ. eigenvalues --   -5.79973  -5.79624  -5.79151  -5.78729  -5.78388
  Beta  occ. eigenvalues --   -5.77770  -0.80660  -0.76207  -0.71581  -0.68071
  Beta  occ. eigenvalues --   -0.64980  -0.61673  -0.59298  -0.56828  -0.52462
  Beta  occ. eigenvalues --   -0.48046  -0.46461  -0.44160  -0.39458  -0.38931
  Beta  occ. eigenvalues --   -0.36575  -0.34468  -0.33944  -0.31501  -0.31180
  Beta  occ. eigenvalues --   -0.30079  -0.28306  -0.27259  -0.26836  -0.26182
  Beta  occ. eigenvalues --   -0.24899  -0.24573  -0.22501  -0.21805  -0.21149
  Beta  occ. eigenvalues --   -0.19517  -0.15560  -0.12830  -0.11169  -0.07857
  Beta virt. eigenvalues --    0.07062   0.07458   0.08665   0.08866   0.09462
  Beta virt. eigenvalues --    0.09914   0.10018   0.10344   0.11614   0.11832
  Beta virt. eigenvalues --    0.12441   0.12838   0.13392   0.13754   0.14271

 Mulliken charges and spin densities:
               1          2
     1  C    0.275269  -0.812180
     2  C   -0.787372   0.405929
     3  C    0.166281   0.139372
     4  C    1.281348   0.034846
     5  C   -0.679119  -0.282299
     6  C   -0.742505  -0.236446
     7  C    0.944915   0.305805
     8  C    0.455384  -0.178365
     9  S   -0.716508  -0.034095
    10  C    0.332659  -0.097533
    11  C   -0.047331  -0.301644
    12  N   -0.260676  -0.079254
    13  S   -0.555069  -0.142124
    14  H    0.066314   0.064406
    15  H   -0.241400   0.356217
    16  H   -0.002777   0.123788
    17  H    0.052117   0.051004
    18  H    0.030549   0.126834
    19  H    0.138899   0.004780
    20  H   -0.001051   0.094257
    21  H   -0.083595   0.275473
    22  H   -0.216439   0.478267
    23  H   -0.205934   0.444848
    24  H   -0.203959   0.258116
 Sum of Mulliken charges =  -1.00000   1.00000

 Dipole moment (field-independent basis, Debye):
    X=              2.4571    Y=              1.3125    Z=             -0.0488  Tot=              2.7861
 Quadrupole moment (field-independent basis, Debye-Ang):
   XX=           -161.5163   YY=           -124.5040   ZZ=           -111.7400
   XY=            -13.3381   XZ=             -3.5662   YZ=             -1.9059

 Summary of Natural Population Analysis:

                                       Natural Population
                Natural  -----------------------------------------------
    Atom  No    Charge         Core      Valence    Rydberg      Total
 -----------------------------------------------------------------------
      C    1   -0.27977      0.99966     2.27499    0.00512     3.27977
      C    2   -0.20612      0.99961     2.19626    0.01025     3.20612
      C    3   -0.00816      0.99938     1.99710    0.01169     3.00816
      C    4   -0.06504      0.99935     2.05533    0.01036     3.06504
      C    5   -0.11625      0.99952     2.10629    0.01044     3.11625
      C    6   -0.07128      0.99952     2.06172    0.01004     3.07128
      C    7   -0.03962      0.99942     2.02999    0.01021     3.03962
      C    8   -0.08130      0.99936     2.07123    0.01072     3.08130
      S    9    0.17104      4.99948     2.80964    0.01985     7.82896
      C   10   -0.18878      0.99946     2.17775    0.01157     3.18878
      C   11    0.06279      0.99940     1.92506    0.01276     2.93721
      N   12   -0.40104      0.99972     2.89045    0.01088     3.90104
      S   13   -0.01127      4.99959     2.99483    0.01686     8.01127
      H   14    0.09947      0.00000     0.39945    0.00108     0.40053
      H   15    0.09568      0.00000     0.40298    0.00134     0.40432
      H   16    0.09555      0.00000     0.40345    0.00101     0.40445
      H   17    0.10080      0.00000     0.39760    0.00160     0.39920
      H   18    0.10652      0.00000     0.39215    0.00133     0.39348
      H   19    0.09997      0.00000     0.39921    0.00082     0.40003
      H   20    0.09958      0.00000     0.39950    0.00092     0.40042
      H   21    0.10309      0.00000     0.39589    0.00102     0.39691
      H   22    0.18455      0.00000     0.31168    0.00376     0.31545
      H   23    0.18523      0.00000     0.31119    0.00358     0.31477
      H   24    0.06437      0.00000     0.43203    0.00360     0.43563
 =======================================================================
   * Total *    0.00000     20.99345    33.83577    0.17078    55.00000

 Normal termination of Gaussian 16 at Wed Dec  9 22:40:52 2020.
