 Gaussian 16, Revision A.03,

 -----------------------------------------------------------
 # opt freq B3LYP/6-31G(d) empiricaldispersion=gd3bj scf=xqc
 -----------------------------------------------------------

 ------------------------------
 CID_63317769_JID_9026_neutraal
 ------------------------------
 Symbolic Z-matrix:
 Charge =  0 Multiplicity = 1

 SCF Done:  E(RB3LYP) =  -858.431206106     A.U. after   14 cycles
 SCF Done:  E(RB3LYP) =  -858.439313432     A.U. after   13 cycles
 SCF Done:  E(RB3LYP) =  -858.438091140     A.U. after   12 cycles
 SCF Done:  E(RB3LYP) =  -858.438290995     A.U. after   13 cycles
 SCF Done:  E(RB3LYP) =  -858.440526021     A.U. after   11 cycles
 SCF Done:  E(RB3LYP) =  -858.441264754     A.U. after   12 cycles
 SCF Done:  E(RB3LYP) =  -858.442055238     A.U. after   15 cycles
 SCF Done:  E(RB3LYP) =  -858.440886643     A.U. after   14 cycles
 SCF Done:  E(RB3LYP) =  -858.441903549     A.U. after   12 cycles
 SCF Done:  E(RB3LYP) =  -858.442324603     A.U. after   10 cycles
 SCF Done:  E(RB3LYP) =  -858.445614322     A.U. after   10 cycles
 SCF Done:  E(RB3LYP) =  -858.445615264     A.U. after    8 cycles
 SCF Done:  E(RB3LYP) =  -858.445615689     A.U. after    8 cycles
 SCF Done:  E(RB3LYP) =  -858.445615768     A.U. after    7 cycles
 SCF Done:  E(RB3LYP) =  -858.445615794     A.U. after    7 cycles
 Optimization completed.
    -- Stationary point found.
 Normal termination of Gaussian 16 at Mon Dec 14 13:57:25 2020.

 --------------------------------------------------------------------
 #N Geom=AllCheck Guess=TCheck SCRF=Check GenChk RB3LYP/6-31G(d) Freq
 --------------------------------------------------------------------

 Structure from the checkpoint file:  "JID_9026.chk"
 ------------------------------
 CID_63317769_JID_9026_neutraal
 ------------------------------
 Charge =  0 Multiplicity = 1

 SCF Done:  E(RB3LYP) =  -858.445615794     A.U. after    1 cycles

  Exact polarizability: 174.740 -20.426 171.248  18.331  13.225 124.040
 Approx polarizability: 247.302 -37.949 256.590  44.857  26.928 226.976

                      1                      2                      3
                      A                      A                      A
 Frequencies --     25.6685                31.7917                39.4264
 Red. masses --      5.5529                 4.4425                 2.2938
 Frc consts  --      0.0022                 0.0026                 0.0021
 IR Inten    --      0.3848                 0.6681                 0.3445

                      4                      5                      6
                      A                      A                      A
 Frequencies --     55.7386                63.3609                86.4011
 Red. masses --      6.0663                 3.0848                 5.6839
 Frc consts  --      0.0111                 0.0073                 0.0250
 IR Inten    --      0.1689                 0.3268                 0.1730

                      7                      8                      9
                      A                      A                      A
 Frequencies --    107.2365               128.2294               170.9079
 Red. masses --      4.1912                 3.8588                 3.2396
 Frc consts  --      0.0284                 0.0374                 0.0558
 IR Inten    --      0.0657                 1.8750                 6.2198

                     10                     11                     12
                      A                      A                      A
 Frequencies --    216.2209               232.9917               280.9037
 Red. masses --      5.0668                 4.3557                 3.6817
 Frc consts  --      0.1396                 0.1393                 0.1712
 IR Inten    --      0.8946                 0.7636                 0.2052

                     13                     14                     15
                      A                      A                      A
 Frequencies --    299.2879               342.2343               380.7314
 Red. masses --      3.0821                 2.5225                 4.6763
 Frc consts  --      0.1627                 0.1741                 0.3994
 IR Inten    --      5.5395                 0.2309                 4.4225

                     16                     17                     18
                      A                      A                      A
 Frequencies --    414.9272               429.2922               457.1821
 Red. masses --      3.7633                 3.2108                 5.3517
 Frc consts  --      0.3817                 0.3486                 0.6591
 IR Inten    --      3.9226                 0.1255                 2.7949

                     19                     20                     21
                      A                      A                      A
 Frequencies --    512.6034               524.2679               559.0663
 Red. masses --      3.4781                 3.2723                 4.1291
 Frc consts  --      0.5385                 0.5299                 0.7604
 IR Inten    --     10.8786                 2.0416                 6.0387

                     22                     23                     24
                      A                      A                      A
 Frequencies --    610.3780               630.8483               671.7887
 Red. masses --      2.6525                 6.2746                 2.8037
 Frc consts  --      0.5822                 1.4712                 0.7455
 IR Inten    --      9.5184                 0.3015                 0.4588

                     25                     26                     27
                      A                      A                      A
 Frequencies --    687.0318               704.1574               735.2451
 Red. masses --      4.8701                 2.5951                 4.3761
 Frc consts  --      1.3544                 0.7581                 1.3938
 IR Inten    --      3.4097                11.8369                 1.6439

                     28                     29                     30
                      A                      A                      A
 Frequencies --    764.0164               767.7929               785.7066
 Red. masses --      2.7266                 1.7267                 2.2173
 Frc consts  --      0.9377                 0.5997                 0.8065
 IR Inten    --     24.7695                57.4644                36.5469

                     31                     32                     33
                      A                      A                      A
 Frequencies --    793.5590               812.2184               839.3360
 Red. masses --      4.5601                 2.1842                 1.2484
 Frc consts  --      1.6919                 0.8490                 0.5182
 IR Inten    --     17.2597                38.9316                 3.1731

                     34                     35                     36
                      A                      A                      A
 Frequencies --    848.4178               897.1119               898.7196
 Red. masses --      1.6547                 2.6523                 1.4558
 Frc consts  --      0.7018                 1.2577                 0.6928
 IR Inten    --     32.1337                 4.0991                12.1727

                     37                     38                     39
                      A                      A                      A
 Frequencies --    906.1759               918.7787               930.2703
 Red. masses --      3.0550                 3.5072                 5.9629
 Frc consts  --      1.4780                 1.7444                 3.0404
 IR Inten    --      6.6019                20.0446                 7.1279

                     40                     41                     42
                      A                      A                      A
 Frequencies --    944.4552               964.2669               976.8489
 Red. masses --      2.6510                 1.3200                 2.6079
 Frc consts  --      1.3932                 0.7232                 1.4662
 IR Inten    --      1.8589                 0.3926                 1.0840

                     43                     44                     45
                      A                      A                      A
 Frequencies --    985.3189               987.8387              1018.7620
 Red. masses --      1.6689                 1.4086                 5.1450
 Frc consts  --      0.9546                 0.8099                 3.1462
 IR Inten    --      4.8868                 2.9886                 0.4851

                     46                     47                     48
                      A                      A                      A
 Frequencies --   1029.0889              1041.1166              1053.0064
 Red. masses --      4.4911                 2.8439                 2.6737
 Frc consts  --      2.8023                 1.8162                 1.7467
 IR Inten    --      5.1512                 5.3468                 6.9937

                     49                     50                     51
                      A                      A                      A
 Frequencies --   1055.8795              1082.2044              1088.7512
 Red. masses --      2.3733                 2.0227                 3.7659
 Frc consts  --      1.5590                 1.3957                 2.6302
 IR Inten    --      1.6667                 4.9657                62.8457

                     52                     53                     54
                      A                      A                      A
 Frequencies --   1098.9387              1113.5530              1122.0242
 Red. masses --      2.4573                 3.1645                 1.5540
 Frc consts  --      1.7485                 2.3119                 1.1527
 IR Inten    --     12.7986                16.0071                 4.9351

                     55                     56                     57
                      A                      A                      A
 Frequencies --   1189.2703              1213.9211              1216.0775
 Red. masses --      1.1001                 1.3049                 1.2456
 Frc consts  --      0.9167                 1.1329                 1.0853
 IR Inten    --      3.4718                12.1350                 4.8153

                     58                     59                     60
                      A                      A                      A
 Frequencies --   1220.7247              1246.8030              1251.1049
 Red. masses --      1.4377                 1.3227                 1.3623
 Frc consts  --      1.2622                 1.2115                 1.2563
 IR Inten    --     28.5462                13.4439                 6.9125

                     61                     62                     63
                      A                      A                      A
 Frequencies --   1260.1186              1281.4349              1306.4877
 Red. masses --      2.4926                 1.3475                 1.5607
 Frc consts  --      2.3320                 1.3037                 1.5695
 IR Inten    --    164.9867                13.7961                11.6927

                     64                     65                     66
                      A                      A                      A
 Frequencies --   1317.6397              1331.5728              1338.4068
 Red. masses --      1.6146                 1.6194                 1.4145
 Frc consts  --      1.6516                 1.6917                 1.4929
 IR Inten    --     36.2988                41.4219                 2.1953

                     67                     68                     69
                      A                      A                      A
 Frequencies --   1351.5913              1355.2827              1376.5515
 Red. masses --      1.5997                 1.5729                 2.6481
 Frc consts  --      1.7217                 1.7022                 2.9565
 IR Inten    --      6.7257                43.3419                21.6311

                     70                     71                     72
                      A                      A                      A
 Frequencies --   1383.0301              1398.9367              1419.4552
 Red. masses --      1.3907                 1.5437                 1.4103
 Frc consts  --      1.5673                 1.7799                 1.6742
 IR Inten    --      0.5700                14.1580                32.5758

                     73                     74                     75
                      A                      A                      A
 Frequencies --   1427.7450              1488.3411              1497.0208
 Red. masses --      1.6092                 1.2511                 1.3794
 Frc consts  --      1.9327                 1.6328                 1.8214
 IR Inten    --      9.6724                 3.7849                 9.6783

                     76                     77                     78
                      A                      A                      A
 Frequencies --   1506.1614              1513.2145              1528.3937
 Red. masses --      2.2950                 1.0862                 1.1010
 Frc consts  --      3.0674                 1.4654                 1.5153
 IR Inten    --      0.5239                 0.7718                 5.1135

                     79                     80                     81
                      A                      A                      A
 Frequencies --   1538.1359              1543.9043              1547.4941
 Red. masses --      1.1198                 1.1239                 2.2517
 Frc consts  --      1.5609                 1.5785                 3.1771
 IR Inten    --      4.8698                 2.2689                80.9575

                     82                     83                     84
                      A                      A                      A
 Frequencies --   1561.2109              1629.7969              1649.5159
 Red. masses --      5.5925                 8.9066                 5.8458
 Frc consts  --      8.0312                13.9389                 9.3715
 IR Inten    --      5.1568                61.7462                20.0699

                     85                     86                     87
                      A                      A                      A
 Frequencies --   1665.3948              3066.0448              3075.3613
 Red. masses --      5.7245                 1.0675                 1.0589
 Frc consts  --      9.3546                 5.9128                 5.9009
 IR Inten    --     58.7396                16.7875                22.5243

                     88                     89                     90
                      A                      A                      A
 Frequencies --   3077.2975              3080.6382              3086.0902
 Red. masses --      1.0631                 1.0609                 1.0614
 Frc consts  --      5.9312                 5.9322                 5.9562
 IR Inten    --     50.0256                26.6840                32.1342

                     91                     92                     93
                      A                      A                      A
 Frequencies --   3110.2800              3115.0497              3123.6254
 Red. masses --      1.0859                 1.1024                 1.1079
 Frc consts  --      6.1894                 6.3028                 6.3690
 IR Inten    --     17.3559                 4.2544                21.9150

                     94                     95                     96
                      A                      A                      A
 Frequencies --   3129.7796              3139.4387              3139.8243
 Red. masses --      1.1037                 1.1036                 1.1046
 Frc consts  --      6.3700                 6.4089                 6.4160
 IR Inten    --      4.1071                 9.6093                48.3751

                     97                     98                     99
                      A                      A                      A
 Frequencies --   3186.1433              3201.9198              3215.5210
 Red. masses --      1.0858                 1.0906                 1.0928
 Frc consts  --      6.4943                 6.5875                 6.6570
 IR Inten    --      5.6941                18.1451                15.3401

                    100                    101                    102
                      A                      A                      A
 Frequencies --   3220.4216              3249.5898              3478.0860
 Red. masses --      1.0946                 1.0912                 1.0747
 Frc consts  --      6.6888                 6.7889                 7.6596
 IR Inten    --      9.6069                 1.8111                 1.4414

 - Thermochemistry -
 -------------------
 Temperature   298.150 Kelvin.  Pressure   1.00000 Atm.
 Atom     1 has atomic number  6 and mass  12.00000

 Molecular mass:   259.13208 amu.
 Principal axes and moments of inertia in atomic units:
                           1         2         3
     Eigenvalues --  3178.692215527.584737543.87410
           X            0.99958  -0.02901  -0.00050
           Y            0.02902   0.99947   0.01470
           Z            0.00007  -0.01471   0.99989
 This molecule is an asymmetric top.
 Rotational symmetry number  1.
 Warning -- assumption of classical behavior for rotation
           may cause significant error
 Rotational temperatures (Kelvin)      0.02725     0.01567     0.01148
 Rotational constants (GHZ):           0.56776     0.32650     0.23923
 Zero-point vibrational energy     791759.9 (Joules/Mol)
                                  189.23517 (Kcal/Mol)
 Warning -- explicit consideration of  22 degrees of freedom as
           vibrations may cause significant error
 Vibrational temperatures:     36.93    45.74    56.73    80.20    91.16
          (Kelvin)            124.31   154.29   184.49   245.90   311.09
                              335.22   404.16   430.61   492.40   547.79
                              596.99   617.66   657.78   737.52   754.30
                              804.37   878.20   907.65   966.55   988.49
                             1013.13  1057.85  1099.25  1104.68  1130.46
                             1141.75  1168.60  1207.62  1220.68  1290.74
                             1293.06  1303.78  1321.92  1338.45  1358.86
                             1387.37  1405.47  1417.65  1421.28  1465.77
                             1480.63  1497.93  1515.04  1519.18  1557.05
                             1566.47  1581.13  1602.15  1614.34  1711.09
                             1746.56  1749.66  1756.35  1793.87  1800.06
                             1813.03  1843.70  1879.74  1895.79  1915.84
                             1925.67  1944.64  1949.95  1980.55  1989.87
                             2012.76  2042.28  2054.21  2141.39  2153.88
                             2167.03  2177.18  2199.02  2213.03  2221.33
                             2226.50  2246.23  2344.91  2373.29  2396.13
                             4411.35  4424.76  4427.54  4432.35  4440.20
                             4475.00  4481.86  4494.20  4503.05  4516.95
                             4517.51  4584.15  4606.85  4626.42  4633.47
                             4675.43  5004.19

 Zero-point correction=                           0.301565 (Hartree/Particle)
 Thermal correction to Energy=                    0.317778
 Thermal correction to Enthalpy=                  0.318722
 Thermal correction to Gibbs Free Energy=         0.255176
 Sum of electronic and zero-point Energies=           -858.144050
 Sum of electronic and thermal Energies=              -858.127838
 Sum of electronic and thermal Enthalpies=            -858.126894
 Sum of electronic and thermal Free Energies=         -858.190439

                     E (Thermal)             CV                S
                      KCal/Mol        Cal/Mol-Kelvin    Cal/Mol-Kelvin
 Total                  199.409             62.336            133.743
 Electronic               0.000              0.000              0.000
 Translational            0.889              2.981             42.556
 Rotational               0.889              2.981             33.249
 Vibrational            197.631             56.374             57.938
 Vibration     1          0.593              1.985              6.139
 Vibration     2          0.594              1.983              5.714
 Vibration     3          0.594              1.981              5.288
 Vibration     4          0.596              1.975              4.603
 Vibration     5          0.597              1.972              4.350
 Vibration     6          0.601              1.959              3.740
 Vibration     7          0.606              1.943              3.318
 Vibration     8          0.611              1.925              2.972
 Vibration     9          0.626              1.878              2.425
 Vibration    10          0.645              1.816              1.991
 Vibration    11          0.654              1.790              1.856
 Vibration    12          0.681              1.709              1.528
 Vibration    13          0.692              1.675              1.421
 Vibration    14          0.721              1.591              1.202
 Vibration    15          0.750              1.511              1.036
 Vibration    16          0.778              1.438              0.909
 Vibration    17          0.791              1.406              0.861
 Vibration    18          0.815              1.345              0.774
 Vibration    19          0.868              1.222              0.627
 Vibration    20          0.879              1.196              0.600
 Vibration    21          0.915              1.120              0.526
 Vibration    22          0.969              1.010              0.432

                           ! Non-Optimized Parameters !
 Normal termination of Gaussian 16 at Mon Dec 14 14:16:31 2020.

 ----------------------------------------------------------------------
 # B3LYP/6-311++G(d,p) empiricaldispersion=gd3bj scf=xqc pop=npa geom=c
 heck
 ----------------------------------------------------------------------

 --------------------------------------
 CID_63317769_JID_9026_Energie_neutraal
 --------------------------------------
 Structure from the checkpoint file:  "JID_9026.chk"
 Charge =  0 Multiplicity = 1

 SCF Done:  E(RB3LYP) =  -858.676071923     A.U. after   15 cycles
 Normal termination of Gaussian 16 at Mon Dec 14 14:24:44 2020.

 ----------------------------------------------------------------------
 # B3LYP/6-311++G(d,p) empiricaldispersion=gd3bj scf=xqc pop=npa geom=c
 heck
 ----------------------------------------------------------------------

 ------------------------------------
 CID_63317769_JID_9026_Energie_kation
 ------------------------------------
 Structure from the checkpoint file:  "JID_9026.chk"
 Charge =  1 Multiplicity = 2

 SCF Done:  E(UB3LYP) =  -858.387077628     A.U. after   30 cycles
 Normal termination of Gaussian 16 at Mon Dec 14 14:47:23 2020.
 Gaussian 16:  ES64L-G16RevA.03 25-Dec-2016

 ----------------------------------------------------------------------
 # B3LYP/6-311++G(d,p) empiricaldispersion=gd3bj scf=xqc pop=npa geom=c
 heck
 ----------------------------------------------------------------------

 -----------------------------------
 CID_63317769_JID_9026_Energie_anion
 -----------------------------------
 Structure from the checkpoint file:  "JID_9026.chk"
 Charge = -1 Multiplicity = 2

                         Standard orientation:
 ---------------------------------------------------------------------
 Center     Atomic      Atomic             Coordinates (Angstroms)
 Number     Number       Type             X           Y           Z
 ---------------------------------------------------------------------
      1          6           0       -3.717958    0.974840    0.815890
      2          6           0       -3.864309   -0.492155    0.339977
      3          6           0       -2.695828   -0.692701   -0.656155
      4          7           0       -2.429744    0.639844   -1.242567
      5          6           0       -2.646733    1.588008   -0.129559
      6          6           0       -1.433212   -1.187264   -0.004828
      7          7           0       -1.127126   -0.925345    1.242411
      8          8           0        0.151751   -1.496069    1.390875
      9          6           0        0.466563   -2.042906    0.204586
     10          7           0       -0.469320   -1.898729   -0.690516
     11          6           0        1.812249   -2.657208    0.038366
     12          6           0        2.798161   -1.765083   -0.741175
     13          8           0        3.192488   -0.623006   -0.001835
     14          6           0        2.478778    0.550262   -0.084563
     15          6           0        1.387933    0.776456   -0.927478
     16          6           0        0.759274    2.024439   -0.915908
     17          6           0        1.207872    3.045846   -0.082480
     18          6           0        2.303061    2.810466    0.754492
     19          6           0        2.936338    1.572834    0.756244
     20          1           0       -4.672467    1.506187    0.745892
     21          1           0       -3.386808    1.023071    1.856365
     22          1           0       -4.807473   -0.631591   -0.199246
     23          1           0       -3.842953   -1.209717    1.163571
     24          1           0       -2.934103   -1.396018   -1.458282
     25          1           0       -3.139201    0.800742   -1.956670
     26          1           0       -2.925837    2.565865   -0.532872
     27          1           0       -1.699531    1.708533    0.403188
     28          1           0        2.235895   -2.877273    1.021843
     29          1           0        1.696551   -3.597950   -0.510838
     30          1           0        3.717520   -2.334683   -0.903900
     31          1           0        2.388194   -1.495895   -1.719759
     32          1           0        0.988371    0.002973   -1.569306
     33          1           0       -0.103271    2.166366   -1.558676
     34          1           0        0.710179    4.010971   -0.077754
     35          1           0        2.665603    3.594686    1.413477
     36          1           0        3.785625    1.370939    1.400904
 ---------------------------------------------------------------------

 SCF Done:  E(UB3LYP) =  -858.667306224     A.U. after   33 cycles
 SCF Done:  E(UB3LYP) =  -858.667306224     a.u. after    1 cycles

 The electronic state is 2-A.
 Alpha  occ. eigenvalues --  -19.10767 -19.06075 -14.25578 -14.20897 -14.20492
 Alpha  occ. eigenvalues --  -10.16339 -10.14398 -10.13897 -10.13229 -10.11262
 Alpha  occ. eigenvalues --  -10.09730 -10.08895 -10.08758 -10.08056 -10.07990
 Alpha  occ. eigenvalues --  -10.07772 -10.07627 -10.07133 -10.06704  -1.05633
 Alpha  occ. eigenvalues --   -0.97600  -0.84076  -0.81865  -0.77123  -0.76256
 Alpha  occ. eigenvalues --   -0.69299  -0.66250  -0.65755  -0.64689  -0.63710
 Alpha  occ. eigenvalues --   -0.57946  -0.54834  -0.52245  -0.51249  -0.49185
 Alpha  occ. eigenvalues --   -0.48685  -0.46550  -0.44826  -0.41797  -0.40980
 Alpha  occ. eigenvalues --   -0.40168  -0.39532  -0.38415  -0.36640  -0.35829
 Alpha  occ. eigenvalues --   -0.35411  -0.34537  -0.33427  -0.33073  -0.32640
 Alpha  occ. eigenvalues --   -0.31372  -0.30150  -0.28931  -0.28648  -0.27473
 Alpha  occ. eigenvalues --   -0.26769  -0.26089  -0.25258  -0.24886  -0.23800
 Alpha  occ. eigenvalues --   -0.23411  -0.23243  -0.23067  -0.21736  -0.19406
 Alpha  occ. eigenvalues --   -0.18239  -0.16421  -0.14526  -0.13296   0.04034
 Alpha virt. eigenvalues --    0.05261   0.06833   0.07093   0.07721   0.07981
 Alpha virt. eigenvalues --    0.08413   0.08650   0.09136   0.09280   0.09840
 Alpha virt. eigenvalues --    0.10063   0.10924   0.10988   0.11387   0.12223

  Beta  occ. eigenvalues --  -19.10662 -19.06075 -14.25506 -14.20874 -14.20475
  Beta  occ. eigenvalues --  -10.16172 -10.14397 -10.13848 -10.13229 -10.11253
  Beta  occ. eigenvalues --  -10.09729 -10.08884 -10.08756 -10.08049 -10.07984
  Beta  occ. eigenvalues --  -10.07770 -10.07625 -10.07118 -10.06691  -1.05461
  Beta  occ. eigenvalues --   -0.97595  -0.83998  -0.81784  -0.76962  -0.76234
  Beta  occ. eigenvalues --   -0.69225  -0.66213  -0.65742  -0.64651  -0.63666
  Beta  occ. eigenvalues --   -0.57850  -0.54779  -0.52198  -0.51172  -0.49140
  Beta  occ. eigenvalues --   -0.48644  -0.46451  -0.44796  -0.41703  -0.40847
  Beta  occ. eigenvalues --   -0.40083  -0.39364  -0.38319  -0.36615  -0.35747
  Beta  occ. eigenvalues --   -0.35332  -0.34457  -0.33369  -0.33058  -0.32571
  Beta  occ. eigenvalues --   -0.31321  -0.30059  -0.28877  -0.28591  -0.27457
  Beta  occ. eigenvalues --   -0.26741  -0.26051  -0.25211  -0.24853  -0.23749
  Beta  occ. eigenvalues --   -0.23358  -0.23145  -0.22969  -0.21487  -0.19329
  Beta  occ. eigenvalues --   -0.17754  -0.16387  -0.14492  -0.13267
  Beta virt. eigenvalues --    0.06288   0.06766   0.07083   0.07578   0.08082
  Beta virt. eigenvalues --    0.08493   0.08678   0.08966   0.09327   0.09544
  Beta virt. eigenvalues --    0.10132   0.10374   0.11121   0.11255   0.11575

 Mulliken charges and spin densities:
               1          2
     1  C    0.241514  -0.686241
     2  C   -0.244611  -0.465802
     3  C    0.446716  -0.314105
     4  N   -0.149318   0.035998
     5  C   -0.099052  -0.165138
     6  C    0.018837  -0.214717
     7  N   -0.340873   0.088153
     8  O    0.288201   0.009587
     9  C    0.153100  -0.090247
    10  N   -0.020805   0.088020
    11  C    0.100784  -0.467681
    12  C    0.282487  -0.615023
    13  O   -0.030946  -0.010146
    14  C   -1.015300   0.502830
    15  C    0.980713  -0.503345
    16  C    0.395078  -0.252339
    17  C   -0.139029  -0.359725
    18  C   -0.025939  -0.086040
    19  C   -0.951340   0.542605
    20  H   -0.141832   0.283578
    21  H    0.098715   0.057288
    22  H   -0.456506   0.635157
    23  H    0.178980  -0.025093
    24  H   -0.145306   0.397469
    25  H    0.033648   0.233330
    26  H   -0.366843   0.533509
    27  H    0.274793  -0.129221
    28  H    0.109924   0.096426
    29  H   -0.231480   0.418908
    30  H   -1.009509   1.237191
    31  H    0.108142   0.065826
    32  H    0.236717  -0.078876
    33  H    0.121399   0.092956
    34  H    0.071428   0.063542
    35  H    0.126810   0.029374
    36  H    0.100704   0.051992
 Sum of Mulliken charges =  -1.00000   1.00000

 Dipole moment (field-independent basis, Debye):
    X=              1.4718    Y=              3.2566    Z=              2.5106  Tot=              4.3675
 Quadrupole moment (field-independent basis, Debye-Ang):
   XX=           -195.9754   YY=           -159.6029   ZZ=           -140.7467
   XY=             20.2304   XZ=             -0.6750   YZ=             -2.8312

 Summary of Natural Population Analysis:

                                       Natural Population
                Natural  -----------------------------------------------
    Atom  No    Charge         Core      Valence    Rydberg      Total
 -----------------------------------------------------------------------
      C    1   -0.20329      0.99964     2.19598    0.00767     3.20329
      C    2   -0.19676      0.99963     2.18854    0.00859     3.19676
      C    3   -0.03340      0.99955     2.01990    0.01395     3.03340
      N    4   -0.33057      0.99975     2.81786    0.01296     3.83057
      C    5   -0.09868      0.99964     2.08829    0.01076     3.09868
      C    6    0.17847      0.99961     1.80112    0.02080     2.82153
      N    7   -0.09082      0.99965     2.57983    0.01134     3.59082
      O    8   -0.15994      0.99985     3.15250    0.00759     4.15994
      C    9    0.30825      0.99961     1.67186    0.02028     2.69175
      N   10   -0.27106      0.99966     2.76265    0.00874     3.77106
      C   11   -0.23344      0.99957     2.22431    0.00956     3.23344
      C   12   -0.00159      0.99956     1.98907    0.01296     3.00159
      O   13   -0.27891      0.99986     3.26927    0.00978     4.27891
      C   14    0.16083      0.99937     1.82616    0.01364     2.83917
      C   15   -0.14416      0.99951     2.13671    0.00795     3.14416
      C   16   -0.08839      0.99957     2.07870    0.01012     3.08839
      C   17   -0.12272      0.99956     2.11400    0.00916     3.12272
      C   18   -0.09796      0.99957     2.08901    0.00937     3.09796
      C   19   -0.12255      0.99952     2.11394    0.00908     3.12255
      H   20    0.09760      0.00000     0.40098    0.00143     0.40240
      H   21    0.10147      0.00000     0.39746    0.00107     0.39853
      H   22    0.09985      0.00000     0.39840    0.00175     0.40015
      H   23    0.10502      0.00000     0.39391    0.00108     0.39498
      H   24    0.10913      0.00000     0.38918    0.00169     0.39087
      H   25    0.17407      0.00000     0.32329    0.00264     0.32593
      H   26    0.09529      0.00000     0.40315    0.00156     0.40471
      H   27    0.09803      0.00000     0.39990    0.00207     0.40197
      H   28    0.11303      0.00000     0.38562    0.00135     0.38697
      H   29    0.12070      0.00000     0.37683    0.00247     0.37930
      H   30    0.09865      0.00000     0.39739    0.00396     0.40135
      H   31    0.08802      0.00000     0.41046    0.00153     0.41198
      H   32    0.11431      0.00000     0.38351    0.00218     0.38569
      H   33    0.10926      0.00000     0.38903    0.00171     0.39074
      H   34    0.09956      0.00000     0.39961    0.00083     0.40044
      H   35    0.09768      0.00000     0.40160    0.00072     0.40232
      H   36    0.10501      0.00000     0.39402    0.00097     0.39499
 =======================================================================
   * Total *    0.00000     18.99269    49.76401    0.24331    69.00000

 Normal termination of Gaussian 16 at Mon Dec 14 15:12:16 2020.
