 Gaussian 16, Revision A.03,

 -----------------------------------------------------------
 # opt freq B3LYP/6-31G(d) empiricaldispersion=gd3bj scf=xqc
 -----------------------------------------------------------

 -------------------------------
 CID_130036849_JID_3503_neutraal
 -------------------------------
 Symbolic Z-matrix:
 Charge =  0 Multiplicity = 1

 SCF Done:  E(RB3LYP) =  -542.166265790     A.U. after   14 cycles
 SCF Done:  E(RB3LYP) =  -542.168887674     A.U. after   12 cycles
 SCF Done:  E(RB3LYP) =  -542.168667254     A.U. after   12 cycles
 SCF Done:  E(RB3LYP) =  -542.169835436     A.U. after   11 cycles
 SCF Done:  E(RB3LYP) =  -542.169873407     A.U. after   10 cycles
 SCF Done:  E(RB3LYP) =  -542.169889280     A.U. after   11 cycles
 SCF Done:  E(RB3LYP) =  -542.169894055     A.U. after   10 cycles
 SCF Done:  E(RB3LYP) =  -542.169895592     A.U. after    8 cycles
 SCF Done:  E(RB3LYP) =  -542.169895735     A.U. after    7 cycles
 Optimization completed.
    -- Stationary point found.
 Normal termination of Gaussian 16 at Wed Dec  9 23:30:24 2020.

 --------------------------------------------------------------------
 #N Geom=AllCheck Guess=TCheck SCRF=Check GenChk RB3LYP/6-31G(d) Freq
 --------------------------------------------------------------------

 Structure from the checkpoint file:  "JID_3503.chk"
 -------------------------------
 CID_130036849_JID_3503_neutraal
 -------------------------------
 Charge =  0 Multiplicity = 1

 SCF Done:  E(RB3LYP) =  -542.169895735     A.U. after    1 cycles

  Exact polarizability: 127.208   1.074 116.994  -5.669  -1.618  99.467
 Approx polarizability: 169.342   8.490 181.913 -14.003  -6.169 157.538

                      1                      2                      3
                      A                      A                      A
 Frequencies --     61.6660               124.4522               166.4223
 Red. masses --      5.7695                 2.8847                 2.9471
 Frc consts  --      0.0129                 0.0263                 0.0481
 IR Inten    --      3.3123                 0.4510                 0.7420

                      4                      5                      6
                      A                      A                      A
 Frequencies --    220.0517               244.9704               312.5877
 Red. masses --      3.0504                 2.0700                 2.5281
 Frc consts  --      0.0870                 0.0732                 0.1455
 IR Inten    --      0.8922                 0.2701                 0.1021

                      7                      8                      9
                      A                      A                      A
 Frequencies --    330.3749               374.9162               418.7875
 Red. masses --      2.6809                 3.7021                 2.6316
 Frc consts  --      0.1724                 0.3066                 0.2719
 IR Inten    --      0.3549                 1.1998                 1.6470

                     10                     11                     12
                      A                      A                      A
 Frequencies --    449.2267               458.4862               504.9535
 Red. masses --      2.2068                 3.1650                 3.2605
 Frc consts  --      0.2624                 0.3920                 0.4898
 IR Inten    --      2.6201                 4.3598                 2.4295

                     13                     14                     15
                      A                      A                      A
 Frequencies --    531.4943               559.0556               637.9502
 Red. masses --      2.9818                 4.0611                 3.9224
 Frc consts  --      0.4963                 0.7478                 0.9405
 IR Inten    --      5.4892                 0.7181                 0.4332

                     16                     17                     18
                      A                      A                      A
 Frequencies --    668.1444               677.9686               725.9137
 Red. masses --      3.6888                 4.2063                 1.6666
 Frc consts  --      0.9702                 1.1391                 0.5174
 IR Inten    --      3.8807                 1.0255                27.1425

                     19                     20                     21
                      A                      A                      A
 Frequencies --    759.7173               795.2617               822.2208
 Red. masses --      2.3311                 2.4009                 2.4524
 Frc consts  --      0.7927                 0.8946                 0.9768
 IR Inten    --      4.5189                 1.1415                 1.4181

                     22                     23                     24
                      A                      A                      A
 Frequencies --    840.1817               865.5796               891.9261
 Red. masses --      1.4598                 2.3727                 2.2058
 Frc consts  --      0.6071                 1.0474                 1.0339
 IR Inten    --      2.1749                 6.3781                 0.6607

                     25                     26                     27
                      A                      A                      A
 Frequencies --    912.0672               953.4076               963.1353
 Red. masses --      2.2433                 1.6391                 1.8606
 Frc consts  --      1.0995                 0.8778                 1.0169
 IR Inten    --      1.1024                 0.0242                 1.1330

                     28                     29                     30
                      A                      A                      A
 Frequencies --    966.1458               985.9877               991.2399
 Red. masses --      2.1579                 2.5714                 1.9796
 Frc consts  --      1.1868                 1.4729                 1.1460
 IR Inten    --      1.3396                 5.5002                 0.4375

                     31                     32                     33
                      A                      A                      A
 Frequencies --   1022.9953              1034.3198              1070.7131
 Red. masses --      2.5425                 2.3506                 2.3617
 Frc consts  --      1.5677                 1.4816                 1.5952
 IR Inten    --      0.2928                 2.5878                 4.9891

                     34                     35                     36
                      A                      A                      A
 Frequencies --   1084.9992              1089.0789              1106.2419
 Red. masses --      1.9940                 1.5578                 1.7876
 Frc consts  --      1.3830                 1.0887                 1.2889
 IR Inten    --      2.5142                 0.1675                 2.0937

                     37                     38                     39
                      A                      A                      A
 Frequencies --   1133.7955              1137.4800              1153.3401
 Red. masses --      2.3485                 2.1381                 1.1711
 Frc consts  --      1.7787                 1.6299                 0.9178
 IR Inten    --      2.6784                 2.9640                 0.8388

                     40                     41                     42
                      A                      A                      A
 Frequencies --   1182.1221              1202.6772              1223.7026
 Red. masses --      1.4388                 1.2332                 1.6372
 Frc consts  --      1.1846                 1.0510                 1.4445
 IR Inten    --     23.3496                 2.4152                20.4478

                     43                     44                     45
                      A                      A                      A
 Frequencies --   1239.3631              1265.1150              1276.1739
 Red. masses --      1.3623                 1.3872                 1.3071
 Frc consts  --      1.2329                 1.3081                 1.2542
 IR Inten    --      0.9458                 7.2618                 6.9497

                     46                     47                     48
                      A                      A                      A
 Frequencies --   1292.3687              1293.8797              1309.7003
 Red. masses --      1.4782                 1.4668                 1.4538
 Frc consts  --      1.4546                 1.4468                 1.4693
 IR Inten    --      4.3084                 0.8522                 1.0971

                     49                     50                     51
                      A                      A                      A
 Frequencies --   1326.2446              1338.6851              1346.9240
 Red. masses --      1.4320                 1.3186                 1.3598
 Frc consts  --      1.4840                 1.3923                 1.4535
 IR Inten    --      0.8849                 0.2389                 1.2710

                     52                     53                     54
                      A                      A                      A
 Frequencies --   1354.6075              1368.3979              1382.1891
 Red. masses --      1.3700                 1.4463                 1.4690
 Frc consts  --      1.4811                 1.5957                 1.6535
 IR Inten    --      0.3136                 6.1561                 3.3374

                     55                     56                     57
                      A                      A                      A
 Frequencies --   1398.8722              1418.0485              1430.5045
 Red. masses --      1.5676                 1.5310                 1.3356
 Frc consts  --      1.8073                 1.8139                 1.6103
 IR Inten    --      0.5187                 0.6172                 0.2222

                     58                     59                     60
                      A                      A                      A
 Frequencies --   1448.4814              1489.5546              1501.8058
 Red. masses --      1.3093                 1.0887                 1.0908
 Frc consts  --      1.6185                 1.4233                 1.4495
 IR Inten    --      4.2301                 6.9013                 6.5507

                     61                     62                     63
                      A                      A                      A
 Frequencies --   1520.4684              1532.2832              1539.6794
 Red. masses --      1.0787                 1.0946                 1.0958
 Frc consts  --      1.4693                 1.5142                 1.5305
 IR Inten    --      0.3532                 1.1892                 4.2898

                     64                     65                     66
                      A                      A                      A
 Frequencies --   1689.2667              1814.1441              2990.2880
 Red. masses --      5.7256                11.3114                 1.0815
 Frc consts  --      9.6265                21.9337                 5.6977
 IR Inten    --      1.2884               208.7225                10.0399

                     67                     68                     69
                      A                      A                      A
 Frequencies --   3012.3947              3018.6557              3036.1670
 Red. masses --      1.0824                 1.0706                 1.0663
 Frc consts  --      5.7870                 5.7481                 5.7912
 IR Inten    --     10.7018                10.3721                15.2057

                     70                     71                     72
                      A                      A                      A
 Frequencies --   3042.2262              3050.2451              3062.6639
 Red. masses --      1.0602                 1.0640                 1.0647
 Frc consts  --      5.7813                 5.8326                 5.8841
 IR Inten    --     39.1147                25.2359                47.6509

                     73                     74                     75
                      A                      A                      A
 Frequencies --   3080.9963              3083.0206              3088.8303
 Red. masses --      1.0977                 1.0929                 1.0866
 Frc consts  --      6.1395                 6.1206                 6.1080
 IR Inten    --     24.0335                81.8310                21.8729

                     76                     77                     78
                      A                      A                      A
 Frequencies --   3094.6662              3110.6664              3113.6520
 Red. masses --      1.1006                 1.0973                 1.1030
 Frc consts  --      6.2103                 6.2557                 6.3005
 IR Inten    --     10.4541                22.6531                58.5953

                     79                     80                     81
                      A                      A                      A
 Frequencies --   3120.9818              3181.9682              3204.8393
 Red. masses --      1.0930                 1.0856                 1.1017
 Frc consts  --      6.2726                 6.4758                 6.6666
 IR Inten    --     22.5180                 9.1392                33.6647

 - Thermochemistry -
 -------------------
 Temperature   298.150 Kelvin.  Pressure   1.00000 Atm.
 Atom     1 has atomic number  6 and mass  12.00000

 Molecular mass:   176.12012 amu.
 Principal axes and moments of inertia in atomic units:
                           1         2         3
     Eigenvalues --  1120.816112954.078853295.36475
           X            0.99982  -0.01561   0.01084
           Y            0.01553   0.99985   0.00760
           Z           -0.01096  -0.00743   0.99991
 This molecule is an asymmetric top.
 Rotational symmetry number  1.
 Warning -- assumption of classical behavior for rotation
           may cause significant error
 Rotational temperatures (Kelvin)      0.07728     0.02932     0.02628
 Rotational constants (GHZ):           1.61020     0.61093     0.54766
 Zero-point vibrational energy     679029.0 (Joules/Mol)
                                  162.29182 (Kcal/Mol)
 Warning -- explicit consideration of  14 degrees of freedom as
           vibrations may cause significant error
 Vibrational temperatures:     88.72   179.06   239.44   316.61   352.46
          (Kelvin)            449.74   475.34   539.42   602.54   646.34
                              659.66   726.52   764.70   804.36   917.87
                              961.31   975.45  1044.43  1093.06  1144.20
                             1182.99  1208.83  1245.38  1283.28  1312.26
                             1371.74  1385.74  1390.07  1418.62  1426.17
                             1471.86  1488.16  1540.52  1561.07  1566.94
                             1591.64  1631.28  1636.58  1659.40  1700.81
                             1730.38  1760.64  1783.17  1820.22  1836.13
                             1859.43  1861.60  1884.37  1908.17  1926.07
                             1937.92  1948.98  1968.82  1988.66  2012.67
                             2040.26  2058.18  2084.04  2143.14  2160.76
                             2187.61  2204.61  2215.26  2430.48  2610.15
                             4302.36  4334.16  4343.17  4368.37  4377.09
                             4388.62  4406.49  4432.87  4435.78  4444.14
                             4452.53  4475.56  4479.85  4490.40  4578.14
                             4611.05

 Zero-point correction=                           0.258628 (Hartree/Particle)
 Thermal correction to Energy=                    0.268782
 Thermal correction to Enthalpy=                  0.269726
 Thermal correction to Gibbs Free Energy=         0.223177
 Sum of electronic and zero-point Energies=           -541.911267
 Sum of electronic and thermal Energies=              -541.901114
 Sum of electronic and thermal Enthalpies=            -541.900170
 Sum of electronic and thermal Free Energies=         -541.946719

                     E (Thermal)             CV                S
                      KCal/Mol        Cal/Mol-Kelvin    Cal/Mol-Kelvin
 Total                  168.663             43.169             97.971
 Electronic               0.000              0.000              0.000
 Translational            0.889              2.981             41.405
 Rotational               0.889              2.981             30.768
 Vibrational            166.886             37.208             25.798
 Vibration     1          0.597              1.973              4.403
 Vibration     2          0.610              1.929              3.030
 Vibration     3          0.624              1.884              2.476
 Vibration     4          0.647              1.811              1.959
 Vibration     5          0.660              1.771              1.766
 Vibration     6          0.701              1.650              1.349
 Vibration     7          0.713              1.615              1.258
 Vibration     8          0.746              1.524              1.060
 Vibration     9          0.782              1.429              0.896
 Vibration    10          0.808              1.363              0.798
 Vibration    11          0.817              1.342              0.771
 Vibration    12          0.860              1.239              0.646
 Vibration    13          0.886              1.180              0.584
 Vibration    14          0.915              1.120              0.526

 Optimization completed.
    -- Stationary point found.
 Normal termination of Gaussian 16 at Wed Dec  9 23:39:54 2020.

 ----------------------------------------------------------------------
 # B3LYP/6-311++G(d,p) empiricaldispersion=gd3bj scf=xqc pop=npa geom=c
 heck
 ----------------------------------------------------------------------

 ---------------------------------------
 CID_130036849_JID_3503_Energie_neutraal
 ---------------------------------------
 Structure from the checkpoint file:  "JID_3503.chk"
 Charge =  0 Multiplicity = 1

 SCF Done:  E(RB3LYP) =  -542.315891420     A.U. after   14 cycles
 Normal termination of Gaussian 16 at Wed Dec  9 23:44:04 2020.

 ----------------------------------------------------------------------
 # B3LYP/6-311++G(d,p) empiricaldispersion=gd3bj scf=xqc pop=npa geom=c
 heck
 ----------------------------------------------------------------------

 -------------------------------------
 CID_130036849_JID_3503_Energie_kation
 -------------------------------------
 Structure from the checkpoint file:  "JID_3503.chk"
 Charge =  1 Multiplicity = 2

 SCF Done:  E(UB3LYP) =  -542.003939429     A.U. after   22 cycles
 Normal termination of Gaussian 16 at Wed Dec  9 23:53:13 2020.
 Gaussian 16:  ES64L-G16RevA.03 25-Dec-2016

 ----------------------------------------------------------------------
 # B3LYP/6-311++G(d,p) empiricaldispersion=gd3bj scf=xqc pop=npa geom=c
 heck
 ----------------------------------------------------------------------

 ------------------------------------
 CID_130036849_JID_3503_Energie_anion
 ------------------------------------
 Structure from the checkpoint file:  "JID_3503.chk"
 Charge = -1 Multiplicity = 2

                         Standard orientation:
 ---------------------------------------------------------------------
 Center     Atomic      Atomic             Coordinates (Angstroms)
 Number     Number       Type             X           Y           Z
 ---------------------------------------------------------------------
      1          6           0        2.095979    0.844516    1.113016
      2          6           0        2.072012   -0.694545    1.334246
      3          6           0        1.245574   -1.348147    0.186423
      4          6           0        2.007228   -1.046232   -1.085982
      5          6           0        2.228075    0.256345   -1.304150
      6          6           0        1.553953    1.177000   -0.306446
      7          6           0        0.050818    0.794174   -0.397208
      8          6           0       -0.119418   -0.604687    0.226737
      9          6           0       -1.365788   -1.262854   -0.368538
     10          6           0       -2.569556   -0.377404   -0.031976
     11          8           0       -3.617286   -0.848445    0.366295
     12          6           0       -2.405806    1.137132   -0.219651
     13          6           0       -1.024924    1.713180    0.176604
     14          1           0        1.481043    1.355062    1.863413
     15          1           0        3.112123    1.235732    1.219804
     16          1           0        3.086723   -1.103651    1.330187
     17          1           0        1.621754   -0.940506    2.303411
     18          1           0        1.119361   -2.421698    0.357182
     19          1           0        2.396646   -1.840388   -1.716923
     20          1           0        2.797217    0.643902   -2.144793
     21          1           0        1.706311    2.234575   -0.544910
     22          1           0       -0.163880    0.707817   -1.471736
     23          1           0       -0.339469   -0.464416    1.296289
     24          1           0       -1.267373   -1.346843   -1.460599
     25          1           0       -1.561336   -2.262204    0.032568
     26          1           0       -2.555979    1.322749   -1.294720
     27          1           0       -3.231113    1.625053    0.306096
     28          1           0       -0.931222    2.734216   -0.213313
     29          1           0       -0.941408    1.777292    1.269222
 ---------------------------------------------------------------------

 SCF Done:  E(UB3LYP) =  -542.305292945     A.U. after   31 cycles

 The electronic state is 2-A.
 Alpha  occ. eigenvalues --  -18.99007 -10.13481 -10.07406 -10.07035 -10.06936
 Alpha  occ. eigenvalues --  -10.06641 -10.06557 -10.06476 -10.06439 -10.06382
 Alpha  occ. eigenvalues --  -10.06266 -10.05773 -10.05676  -0.92478  -0.77118
 Alpha  occ. eigenvalues --   -0.70578  -0.66311  -0.63799  -0.62720  -0.60103
 Alpha  occ. eigenvalues --   -0.52556  -0.49469  -0.48703  -0.47150  -0.42411
 Alpha  occ. eigenvalues --   -0.40580  -0.38541  -0.37288  -0.35177  -0.34127
 Alpha  occ. eigenvalues --   -0.32886  -0.32160  -0.31124  -0.29764  -0.28854
 Alpha  occ. eigenvalues --   -0.28412  -0.27924  -0.27421  -0.26275  -0.24343
 Alpha  occ. eigenvalues --   -0.23896  -0.23411  -0.23174  -0.19633  -0.19011
 Alpha  occ. eigenvalues --   -0.18731  -0.14331  -0.12969   0.04502
 Alpha virt. eigenvalues --    0.07103   0.07479   0.07872   0.08527   0.09252
 Alpha virt. eigenvalues --    0.09777   0.09913   0.09978   0.10626   0.11733
 Alpha virt. eigenvalues --    0.12328   0.12737   0.12925   0.13173   0.13658

  Beta  occ. eigenvalues --  -18.98850 -10.13330 -10.07401 -10.07015 -10.06923
  Beta  occ. eigenvalues --  -10.06645 -10.06548 -10.06450 -10.06427 -10.06387
  Beta  occ. eigenvalues --  -10.06244 -10.05752 -10.05653  -0.92176  -0.77079
  Beta  occ. eigenvalues --   -0.70497  -0.66268  -0.63758  -0.62670  -0.59970
  Beta  occ. eigenvalues --   -0.52488  -0.49406  -0.48655  -0.47058  -0.42186
  Beta  occ. eigenvalues --   -0.40507  -0.38486  -0.37211  -0.35105  -0.33978
  Beta  occ. eigenvalues --   -0.32724  -0.32053  -0.31058  -0.29637  -0.28769
  Beta  occ. eigenvalues --   -0.28330  -0.27884  -0.27370  -0.26185  -0.24235
  Beta  occ. eigenvalues --   -0.23775  -0.23357  -0.22763  -0.19578  -0.18961
  Beta  occ. eigenvalues --   -0.18690  -0.14256  -0.12849
  Beta virt. eigenvalues --    0.06908   0.07973   0.08213   0.08591   0.09290
  Beta virt. eigenvalues --    0.09659   0.10168   0.10339   0.10486   0.10990
  Beta virt. eigenvalues --    0.12080   0.12650   0.13106   0.13197   0.13355

 Mulliken charges and spin densities:
               1          2
     1  C    0.742702  -1.415333
     2  C   -0.493738  -0.030367
     3  C    0.265247   0.577121
     4  C    0.136840  -0.767080
     5  C   -0.121400  -0.331589
     6  C   -0.378074   0.758708
     7  C    0.086323  -0.142220
     8  C   -0.012712  -0.042392
     9  C    0.419918  -1.107128
    10  C   -0.419423   0.275970
    11  O   -0.312725   0.064066
    12  C    0.414894  -0.838514
    13  C    0.555709  -0.713249
    14  H   -0.008367   0.145185
    15  H   -0.354468   0.526901
    16  H   -0.192536   0.360351
    17  H    0.113830   0.007574
    18  H    0.041829   0.214655
    19  H   -0.402972   0.541894
    20  H   -0.548542   0.701098
    21  H   -0.454623   0.718490
    22  H   -0.031276   0.245852
    23  H    0.146207   0.053127
    24  H   -0.016774   0.201166
    25  H    0.128001   0.039618
    26  H   -0.092975   0.254217
    27  H    0.133389   0.062840
    28  H   -0.430291   0.604356
    29  H    0.086005   0.034682
 Sum of Mulliken charges =  -1.00000   1.00000

 Dipole moment (field-independent basis, Debye):
    X=             -0.9532    Y=             -1.9990    Z=              2.5456  Tot=              3.3741
 Quadrupole moment (field-independent basis, Debye-Ang):
   XX=           -146.5614   YY=           -119.2157   ZZ=           -112.2536
   XY=             -7.2294   XZ=              4.1895   YZ=              1.5333

 Summary of Natural Population Analysis:

                                       Natural Population
                Natural  -----------------------------------------------
    Atom  No    Charge         Core      Valence    Rydberg      Total
 -----------------------------------------------------------------------
      C    1   -0.18984      0.99962     2.18136    0.00886     3.18984
      C    2   -0.18190      0.99962     2.17379    0.00848     3.18190
      C    3   -0.12548      0.99958     2.11403    0.01187     3.12548
      C    4   -0.09573      0.99951     2.08448    0.01174     3.09573
      C    5   -0.08544      0.99951     2.07399    0.01194     3.08544
      C    6   -0.12606      0.99957     2.11298    0.01351     3.12606
      C    7   -0.10508      0.99955     2.09295    0.01259     3.10508
      C    8   -0.10161      0.99955     2.09133    0.01073     3.10161
      C    9   -0.23112      0.99956     2.22233    0.00923     3.23112
      C   10    0.31641      0.99967     1.66344    0.02048     2.68359
      O   11   -0.28276      0.99987     3.27620    0.00669     4.28276
      C   12   -0.23558      0.99959     2.22679    0.00920     3.23558
      C   13   -0.18377      0.99960     2.17520    0.00896     3.18377
      H   14    0.09808      0.00000     0.40063    0.00129     0.40192
      H   15    0.10267      0.00000     0.39612    0.00121     0.39733
      H   16    0.09867      0.00000     0.40031    0.00103     0.40133
      H   17    0.09527      0.00000     0.40378    0.00095     0.40473
      H   18    0.10224      0.00000     0.39624    0.00153     0.39776
      H   19    0.10070      0.00000     0.39803    0.00127     0.39930
      H   20    0.10207      0.00000     0.39653    0.00140     0.39793
      H   21    0.10742      0.00000     0.38964    0.00294     0.39258
      H   22    0.09966      0.00000     0.39778    0.00256     0.40034
      H   23    0.09351      0.00000     0.40452    0.00197     0.40649
      H   24    0.10956      0.00000     0.38895    0.00149     0.39044
      H   25    0.10502      0.00000     0.39349    0.00149     0.39498
      H   26    0.11032      0.00000     0.38797    0.00171     0.38968
      H   27    0.10663      0.00000     0.39240    0.00097     0.39337
      H   28    0.10235      0.00000     0.39617    0.00148     0.39765
      H   29    0.09380      0.00000     0.40489    0.00131     0.40620
 =======================================================================
   * Total *    0.00000     12.99481    34.83630    0.16888    48.00000

 Normal termination of Gaussian 16 at Thu Dec 10 00:06:00 2020.
