 Gaussian 16, Revision A.03,

 -----------------------------------------------------------
 # opt freq B3LYP/6-31G(d) empiricaldispersion=gd3bj scf=xqc
 -----------------------------------------------------------

 -------------------------------
 CID_62449221_JID_10871_neutraal
 -------------------------------
 Symbolic Z-matrix:
 Charge =  0 Multiplicity = 1

 SCF Done:  E(RB3LYP) =  -859.250910247     A.U. after   15 cycles
 SCF Done:  E(RB3LYP) =  -859.255125921     A.U. after   12 cycles
 SCF Done:  E(RB3LYP) =  -859.255876500     A.U. after   11 cycles
 SCF Done:  E(RB3LYP) =  -859.256257293     A.U. after   11 cycles
 SCF Done:  E(RB3LYP) =  -859.256370462     A.U. after   11 cycles
 SCF Done:  E(RB3LYP) =  -859.256405861     A.U. after   10 cycles
 SCF Done:  E(RB3LYP) =  -859.256426800     A.U. after   10 cycles
 SCF Done:  E(RB3LYP) =  -859.256433722     A.U. after   10 cycles
 SCF Done:  E(RB3LYP) =  -859.256436222     A.U. after    8 cycles
 SCF Done:  E(RB3LYP) =  -859.256436659     A.U. after    8 cycles
 SCF Done:  E(RB3LYP) =  -859.256436699     A.U. after    7 cycles
 SCF Done:  E(RB3LYP) =  -859.256436722     A.U. after    6 cycles
 Optimization completed.
    -- Stationary point found.
 Normal termination of Gaussian 16 at Sat Dec 12 16:26:38 2020.

 --------------------------------------------------------------------
 #N Geom=AllCheck Guess=TCheck SCRF=Check GenChk RB3LYP/6-31G(d) Freq
 --------------------------------------------------------------------

 Structure from the checkpoint file:  "JID_10871.chk"
 -------------------------------
 CID_62449221_JID_10871_neutraal
 -------------------------------
 Charge =  0 Multiplicity = 1

 SCF Done:  E(RB3LYP) =  -859.256436722     A.U. after    1 cycles

  Exact polarizability: 278.473 -10.744 161.822   3.779  22.994 136.302
 Approx polarizability: 357.045 -12.706 275.242   7.816  57.572 208.256

                      1                      2                      3
                      A                      A                      A
 Frequencies --     23.2213                25.1760                34.4482
 Red. masses --      4.0323                 3.7681                 3.1248
 Frc consts  --      0.0013                 0.0014                 0.0022
 IR Inten    --      0.1577                 0.1638                 0.1394

                      4                      5                      6
                      A                      A                      A
 Frequencies --     39.0601                64.9444                74.6873
 Red. masses --      3.7709                 2.8227                 4.8201
 Frc consts  --      0.0034                 0.0070                 0.0158
 IR Inten    --      0.5621                 0.0655                 0.5598

                      7                      8                      9
                      A                      A                      A
 Frequencies --     78.2202               106.4672               118.6873
 Red. masses --      3.5283                 2.8059                 4.6149
 Frc consts  --      0.0127                 0.0187                 0.0383
 IR Inten    --      0.8333                 0.2212                 0.2732

                     10                     11                     12
                      A                      A                      A
 Frequencies --    134.9013               176.9671               204.9945
 Red. masses --      2.9497                 3.1786                 2.8665
 Frc consts  --      0.0316                 0.0586                 0.0710
 IR Inten    --      0.3430                 0.3852                 1.6582

                     13                     14                     15
                      A                      A                      A
 Frequencies --    223.5630               227.6228               245.6439
 Red. masses --      1.2471                 1.4404                 1.0852
 Frc consts  --      0.0367                 0.0440                 0.0386
 IR Inten    --      0.4613                 0.0573                 0.0956

                     16                     17                     18
                      A                      A                      A
 Frequencies --    262.0416               291.1502               318.7715
 Red. masses --      4.5711                 1.7847                 3.5688
 Frc consts  --      0.1849                 0.0891                 0.2137
 IR Inten    --      2.0816                 0.6497                 0.9827

                     19                     20                     21
                      A                      A                      A
 Frequencies --    325.6592               343.6895               349.5132
 Red. masses --      2.3076                 4.8255                 2.8365
 Frc consts  --      0.1442                 0.3358                 0.2042
 IR Inten    --      4.1046                 0.5990                 3.7682

                     22                     23                     24
                      A                      A                      A
 Frequencies --    397.1623               402.9178               414.0751
 Red. masses --      2.3678                 3.2496                 3.0059
 Frc consts  --      0.2201                 0.3108                 0.3037
 IR Inten    --      1.7039                 0.5040                 0.0040

                     25                     26                     27
                      A                      A                      A
 Frequencies --    467.7388               509.6407               527.5762
 Red. masses --      4.7655                 3.5606                 3.2325
 Frc consts  --      0.6143                 0.5449                 0.5301
 IR Inten    --      0.5314                 0.5642                 2.8665

                     28                     29                     30
                      A                      A                      A
 Frequencies --    533.4701               588.5808               635.1947
 Red. masses --      3.4950                 3.0090                 6.4182
 Frc consts  --      0.5860                 0.6142                 1.5257
 IR Inten    --      2.1831                 0.8486                 0.0334

                     31                     32                     33
                      A                      A                      A
 Frequencies --    700.4374               709.1625               713.3609
 Red. masses --      2.5734                 1.9598                 3.0574
 Frc consts  --      0.7439                 0.5807                 0.9167
 IR Inten    --     33.3614                22.9481                30.9601

                     34                     35                     36
                      A                      A                      A
 Frequencies --    720.3506               749.0653               757.3270
 Red. masses --      5.5840                 2.6601                 2.0066
 Frc consts  --      1.7072                 0.8794                 0.6781
 IR Inten    --      7.7076                35.3965                29.9717

                     37                     38                     39
                      A                      A                      A
 Frequencies --    788.8918               810.5880               857.0752
 Red. masses --      1.2944                 3.1895                 2.8573
 Frc consts  --      0.4746                 1.2347                 1.2366
 IR Inten    --     36.6642                 4.7393                34.0559

                     40                     41                     42
                      A                      A                      A
 Frequencies --    866.5293               882.3868               921.3199
 Red. masses --      1.2490                 2.2635                 1.5054
 Frc consts  --      0.5526                 1.0384                 0.7529
 IR Inten    --      0.0291                 3.3727                 2.0606

                     43                     44                     45
                      A                      A                      A
 Frequencies --    923.8067               944.7031               946.6108
 Red. masses --      1.8437                 1.4241                 1.2125
 Frc consts  --      0.9271                 0.7488                 0.6401
 IR Inten    --      6.4106                 2.7425                 1.8143

                     46                     47                     48
                      A                      A                      A
 Frequencies --    969.2481               978.9221               981.8956
 Red. masses --      1.6739                 1.3444                 1.4990
 Frc consts  --      0.9265                 0.7591                 0.8515
 IR Inten    --     11.0495                 0.0359                 0.6846

                     49                     50                     51
                      A                      A                      A
 Frequencies --   1002.2147              1022.2700              1027.6746
 Red. masses --      1.2584                 6.5246                 4.1011
 Frc consts  --      0.7447                 4.0173                 2.5519
 IR Inten    --      0.2923                 0.7417                 4.6709

                     52                     53                     54
                      A                      A                      A
 Frequencies --   1035.0480              1055.1095              1065.9297
 Red. masses --      1.9072                 3.5502                 3.0692
 Frc consts  --      1.2039                 2.3286                 2.0546
 IR Inten    --      8.7123                33.1085                14.6507

                     55                     56                     57
                      A                      A                      A
 Frequencies --   1076.2396              1079.3715              1112.2761
 Red. masses --      2.8060                 3.4312                 1.6798
 Frc consts  --      1.9149                 2.3553                 1.2244
 IR Inten    --      1.1813                 4.1714                 3.0481

                     58                     59                     60
                      A                      A                      A
 Frequencies --   1112.9626              1131.9780              1160.1067
 Red. masses --      1.6994                 1.7100                 1.8518
 Frc consts  --      1.2403                 1.2910                 1.4684
 IR Inten    --      7.1883                 1.5985                25.6829

                     61                     62                     63
                      A                      A                      A
 Frequencies --   1166.6280              1175.1476              1195.0228
 Red. masses --      3.2700                 4.5148                 1.1015
 Frc consts  --      2.6222                 3.6734                 0.9268
 IR Inten    --     31.2927                 0.8791                 0.0143

                     64                     65                     66
                      A                      A                      A
 Frequencies --   1196.9565              1207.3548              1213.3604
 Red. masses --      2.3020                 3.2539                 1.1505
 Frc consts  --      1.9432                 2.7946                 0.9979
 IR Inten    --      6.1876                17.0235                 3.4452

                     67                     68                     69
                      A                      A                      A
 Frequencies --   1224.2134              1260.3881              1267.2659
 Red. masses --      2.0179                 2.4497                 2.0602
 Frc consts  --      1.7819                 2.2928                 1.9494
 IR Inten    --      2.6341                18.3498                 3.2515

                     70                     71                     72
                      A                      A                      A
 Frequencies --   1304.5160              1331.0052              1337.4123
 Red. masses --      1.2242                 2.3323                 1.2955
 Frc consts  --      1.2274                 2.4345                 1.3653
 IR Inten    --      3.2746                 4.4856                 5.9035

                     73                     74                     75
                      A                      A                      A
 Frequencies --   1350.9775              1369.8191              1372.9472
 Red. masses --      1.6166                 2.2269                 1.6106
 Frc consts  --      1.7384                 2.4619                 1.7888
 IR Inten    --      2.5637                 0.1445                 0.8610

                     76                     77                     78
                      A                      A                      A
 Frequencies --   1374.9725              1392.5157              1397.0973
 Red. masses --      1.5343                 1.3807                 2.8809
 Frc consts  --      1.7090                 1.5774                 3.3131
 IR Inten    --      6.8740                 9.2301                 9.2826

                     79                     80                     81
                      A                      A                      A
 Frequencies --   1401.1981              1407.5708              1425.6888
 Red. masses --      1.7139                 1.7000                 1.3523
 Frc consts  --      1.9825                 1.9845                 1.6195
 IR Inten    --     16.8115                 8.0936                 3.1665

                     82                     83                     84
                      A                      A                      A
 Frequencies --   1435.6410              1444.7497              1447.0490
 Red. masses --      1.2804                 1.2935                 1.5517
 Frc consts  --      1.5549                 1.5908                 1.9144
 IR Inten    --     11.4798                11.3433                 3.0685

                     85                     86                     87
                      A                      A                      A
 Frequencies --   1461.5245              1498.3852              1508.7208
 Red. masses --      1.3642                 2.6715                 1.1052
 Frc consts  --      1.7169                 3.5339                 1.4823
 IR Inten    --     12.2278                61.4830                 2.5874

                     88                     89                     90
                      A                      A                      A
 Frequencies --   1510.6707              1514.8665              1518.6308
 Red. masses --      1.0719                 1.1141                 2.0501
 Frc consts  --      1.4412                 1.5063                 2.7856
 IR Inten    --      3.5931                16.5501                15.7891

                     91                     92                     93
                      A                      A                      A
 Frequencies --   1520.6497              1526.5863              1530.8067
 Red. masses --      1.2329                 1.0697                 1.0785
 Frc consts  --      1.6797                 1.4688                 1.4891
 IR Inten    --     34.3906                 4.2723                23.5154

                     94                     95                     96
                      A                      A                      A
 Frequencies --   1538.1753              1540.5572              1544.6746
 Red. masses --      1.0508                 1.0682                 1.0796
 Frc consts  --      1.4648                 1.4937                 1.5177
 IR Inten    --      5.5586                10.0636                 8.1126

                     97                     98                     99
                      A                      A                      A
 Frequencies --   1547.4515              1576.9206              1644.9561
 Red. masses --      1.0678                 4.1060                 5.8011
 Frc consts  --      1.5066                 6.0157                 9.2485
 IR Inten    --      5.6837                13.8012                 0.3862

                    100                    101                    102
                      A                      A                      A
 Frequencies --   1672.1963              2926.6979              3030.3081
 Red. masses --      5.5916                 1.0732                 1.0829
 Frc consts  --      9.2121                 5.4159                 5.8589
 IR Inten    --      0.0889                62.9740                33.6143

                    103                    104                    105
                      A                      A                      A
 Frequencies --   3041.3935              3046.6621              3052.5934
 Red. masses --      1.0386                 1.0638                 1.0351
 Frc consts  --      5.6604                 5.8178                 5.6830
 IR Inten    --     18.8669                20.0588                23.5137

                    106                    107                    108
                      A                      A                      A
 Frequencies --   3058.0464              3060.5942              3063.7547
 Red. masses --      1.0456                 1.0609                 1.0797
 Frc consts  --      5.7609                 5.8550                 5.9710
 IR Inten    --     22.3857                12.3370                54.3364

                    109                    110                    111
                      A                      A                      A
 Frequencies --   3084.4363              3104.6159              3109.5262
 Red. masses --      1.1012                 1.0872                 1.1030
 Frc consts  --      6.1725                 6.1739                 6.2839
 IR Inten    --      3.2561                 1.9085                58.6436

                    112                    113                    114
                      A                      A                      A
 Frequencies --   3116.0636              3116.8912              3122.2671
 Red. masses --      1.1015                 1.1005                 1.1023
 Frc consts  --      6.3017                 6.2990                 6.3311
 IR Inten    --     39.1298                42.7169                18.9066

                    115                    116                    117
                      A                      A                      A
 Frequencies --   3123.6517              3127.2226              3143.5665
 Red. masses --      1.1026                 1.0974                 1.1009
 Frc consts  --      6.3384                 6.3232                 6.4097
 IR Inten    --     36.6222                29.2223                24.5084

                    118                    119                    120
                      A                      A                      A
 Frequencies --   3186.2216              3196.8469              3208.3136
 Red. masses --      1.0854                 1.0894                 1.0938
 Frc consts  --      6.4921                 6.5594                 6.6336
 IR Inten    --      0.1093                15.4697                32.3360

                    121                    122                    123
                      A                      A                      A
 Frequencies --   3219.8179              3225.9663              3523.4128
 Red. masses --      1.0942                 1.0940                 1.0732
 Frc consts  --      6.6835                 6.7080                 7.8501
 IR Inten    --      8.6424                 4.1614                 0.5835

 - Thermochemistry -
 -------------------
 Temperature   298.150 Kelvin.  Pressure   1.00000 Atm.
 Atom     1 has atomic number  6 and mass  12.00000

 Molecular mass:   273.19535 amu.
 Principal axes and moments of inertia in atomic units:
                           1         2         3
     Eigenvalues --  2165.05300********************
           X            1.00000   0.00067   0.00037
           Y           -0.00064   0.99658  -0.08260
           Z           -0.00042   0.08260   0.99658
 This molecule is an asymmetric top.
 Rotational symmetry number  1.
 Warning -- assumption of classical behavior for rotation
           may cause significant error
 Rotational temperatures (Kelvin)      0.04001     0.00638     0.00629
 Rotational constants (GHZ):           0.83358     0.13292     0.13107
 Zero-point vibrational energy     983885.4 (Joules/Mol)
                                  235.15425 (Kcal/Mol)
 Warning -- explicit consideration of  29 degrees of freedom as
           vibrations may cause significant error
 Vibrational temperatures:     33.41    36.22    49.56    56.20    93.44
          (Kelvin)            107.46   112.54   153.18   170.76   194.09
                              254.62   294.94   321.66   327.50   353.43
                              377.02   418.90   458.64   468.55   494.49
                              502.87   571.43   579.71   595.76   672.97
                              733.26   759.06   767.54   846.84   913.90
                             1007.77  1020.33  1026.37  1036.42  1077.74
                             1089.62  1135.04  1166.26  1233.14  1246.74
                             1269.56  1325.57  1329.15  1359.22  1361.96
                             1394.53  1408.45  1412.73  1441.96  1470.82
                             1478.59  1489.20  1518.07  1533.64  1548.47
                             1552.97  1600.32  1601.30  1628.66  1669.13
                             1678.52  1690.78  1719.37  1722.15  1737.11
                             1745.76  1761.37  1813.42  1823.31  1876.91
                             1915.02  1924.24  1943.76  1970.86  1975.36
                             1978.28  2003.52  2010.11  2016.01  2025.18
                             2051.25  2065.57  2078.67  2081.98  2102.81
                             2155.84  2170.71  2173.52  2179.56  2184.97
                             2187.88  2196.42  2202.49  2213.09  2216.52
                             2222.44  2226.44  2268.84  2366.73  2405.92
                             4210.87  4359.94  4375.89  4383.47  4392.00
                             4399.85  4403.51  4408.06  4437.82  4466.85
                             4473.91  4483.32  4484.51  4492.25  4494.24
                             4499.38  4522.89  4584.26  4599.55  4616.05
                             4632.60  4641.45  5069.41

 Zero-point correction=                           0.374742 (Hartree/Particle)
 Thermal correction to Energy=                    0.394676
 Thermal correction to Enthalpy=                  0.395620
 Thermal correction to Gibbs Free Energy=         0.323675
 Sum of electronic and zero-point Energies=           -858.881695
 Sum of electronic and thermal Energies=              -858.861761
 Sum of electronic and thermal Enthalpies=            -858.860817
 Sum of electronic and thermal Free Energies=         -858.932761

                     E (Thermal)             CV                S
                      KCal/Mol        Cal/Mol-Kelvin    Cal/Mol-Kelvin
 Total                  247.663             74.692            151.420
 Electronic               0.000              0.000              0.000
 Translational            0.889              2.981             42.714
 Rotational               0.889              2.981             34.359
 Vibrational            245.885             68.730             74.348
 Vibration     1          0.593              1.985              6.338
 Vibration     2          0.593              1.985              6.177
 Vibration     3          0.594              1.983              5.555
 Vibration     4          0.594              1.981              5.306
 Vibration     5          0.597              1.971              4.301
 Vibration     6          0.599              1.966              4.026
 Vibration     7          0.600              1.964              3.935
 Vibration     8          0.605              1.944              3.332
 Vibration     9          0.609              1.934              3.122
 Vibration    10          0.613              1.918              2.875
 Vibration    11          0.628              1.871              2.360
 Vibration    12          0.640              1.833              2.088
 Vibration    13          0.649              1.805              1.930
 Vibration    14          0.651              1.799              1.898
 Vibration    15          0.660              1.770              1.762
 Vibration    16          0.669              1.742              1.648
 Vibration    17          0.687              1.690              1.467
 Vibration    18          0.705              1.638              1.316
 Vibration    19          0.710              1.624              1.282
 Vibration    20          0.722              1.588              1.195
 Vibration    21          0.727              1.576              1.168
 Vibration    22          0.764              1.476              0.973
 Vibration    23          0.768              1.464              0.952
 Vibration    24          0.778              1.440              0.912
 Vibration    25          0.825              1.322              0.744
 Vibration    26          0.865              1.229              0.634
 Vibration    27          0.883              1.189              0.593
 Vibration    28          0.888              1.176              0.580
 Vibration    29          0.946              1.056              0.470

 Optimization completed.
    -- Stationary point found.
 Normal termination of Gaussian 16 at Sat Dec 12 16:46:23 2020.

 ----------------------------------------------------------------------
 # B3LYP/6-311++G(d,p) empiricaldispersion=gd3bj scf=xqc pop=npa geom=c
 heck
 ----------------------------------------------------------------------

 ---------------------------------------
 CID_62449221_JID_10871_Energie_neutraal
 ---------------------------------------
 Structure from the checkpoint file:  "JID_10871.chk"
 Charge =  0 Multiplicity = 1

 SCF Done:  E(RB3LYP) =  -859.484470292     A.U. after   15 cycles
 Normal termination of Gaussian 16 at Sat Dec 12 16:54:50 2020.

 ----------------------------------------------------------------------
 # B3LYP/6-311++G(d,p) empiricaldispersion=gd3bj scf=xqc pop=npa geom=c
 heck
 ----------------------------------------------------------------------

 -------------------------------------
 CID_62449221_JID_10871_Energie_kation
 -------------------------------------
 Structure from the checkpoint file:  "JID_10871.chk"
 Charge =  1 Multiplicity = 2

 SCF Done:  E(UB3LYP) =  -859.193447080     A.U. after   26 cycles
 Normal termination of Gaussian 16 at Sat Dec 12 17:14:37 2020.
 Gaussian 16:  ES64L-G16RevA.03 25-Dec-2016

 ----------------------------------------------------------------------
 # B3LYP/6-311++G(d,p) empiricaldispersion=gd3bj scf=xqc pop=npa geom=c
 heck
 ----------------------------------------------------------------------

 ------------------------------------
 CID_62449221_JID_10871_Energie_anion
 ------------------------------------
 Structure from the checkpoint file:  "JID_10871.chk"
 Charge = -1 Multiplicity = 2

                         Standard orientation:
 ---------------------------------------------------------------------
 Center     Atomic      Atomic             Coordinates (Angstroms)
 Number     Number       Type             X           Y           Z
 ---------------------------------------------------------------------
      1          6           0        6.230949    0.812042    0.327688
      2          6           0        5.696236    0.723270   -1.105471
      3          6           0        4.253991    0.219466   -1.187798
      4          7           0        3.325669    1.155862   -0.559264
      5          6           0        1.917559    0.836770   -0.708705
      6          6           0        1.476359   -0.529551   -0.126941
      7          6           0        1.837622   -0.751775    1.359581
      8          6           0        1.351705    0.362239    2.295859
      9          6           0        1.349880   -2.124947    1.836947
     10          7           0        0.046651   -0.711318   -0.374961
     11          7           0       -0.892763    0.143216    0.023574
     12          6           0       -2.010385   -0.452267   -0.407458
     13          7           0       -1.738329   -1.624166   -1.045362
     14          7           0       -0.436740   -1.774793   -1.016961
     15          6           0       -3.357703    0.087120   -0.218430
     16          6           0       -3.549139    1.305602    0.448309
     17          6           0       -4.834730    1.809758    0.624663
     18          6           0       -5.938580    1.105173    0.138970
     19          6           0       -5.750375   -0.108411   -0.525520
     20          6           0       -4.467062   -0.618222   -0.705260
     21          1           0        5.691460    1.562637    0.917301
     22          1           0        7.288227    1.097343    0.337207
     23          1           0        6.141570   -0.152565    0.843732
     24          1           0        5.751375    1.707734   -1.585166
     25          1           0        6.330940    0.042882   -1.687416
     26          1           0        3.957336    0.125654   -2.240345
     27          1           0        4.211344   -0.800620   -0.758219
     28          1           0        3.555154    1.273493    0.423831
     29          1           0        1.324694    1.629171   -0.243558
     30          1           0        1.671217    0.841775   -1.777624
     31          1           0        1.933852   -1.335410   -0.706688
     32          1           0        2.936526   -0.760145    1.379407
     33          1           0        0.261354    0.443309    2.276731
     34          1           0        1.663171    0.146391    3.323603
     35          1           0        1.760720    1.341541    2.024853
     36          1           0        1.686264   -2.926549    1.170190
     37          1           0        1.726690   -2.336413    2.843193
     38          1           0        0.255626   -2.162211    1.875153
     39          1           0       -2.686132    1.847128    0.821663
     40          1           0       -4.976054    2.754552    1.141793
     41          1           0       -6.940814    1.500633    0.277664
     42          1           0       -6.605800   -0.659765   -0.905220
     43          1           0       -4.308091   -1.559779   -1.219851
 ---------------------------------------------------------------------

 SCF Done:  E(UB3LYP) =  -859.483669319     A.U. after   33 cycles
 SCF Done:  E(UB3LYP) =  -859.483669319     a.u. after    1 cycles

 The electronic state is 2-A.
 Alpha  occ. eigenvalues --  -14.30679 -14.26372 -14.22288 -14.21861 -14.21216
 Alpha  occ. eigenvalues --  -10.12443 -10.10659 -10.10614 -10.10542 -10.09246
 Alpha  occ. eigenvalues --  -10.08112 -10.07305 -10.07101 -10.06880 -10.06648
 Alpha  occ. eigenvalues --  -10.06521 -10.06334 -10.06042 -10.05813 -10.05705
 Alpha  occ. eigenvalues --   -1.02450  -0.83758  -0.82138  -0.78231  -0.74387
 Alpha  occ. eigenvalues --   -0.71589  -0.69076  -0.65425  -0.63754  -0.63326
 Alpha  occ. eigenvalues --   -0.60068  -0.59252  -0.55103  -0.54171  -0.52829
 Alpha  occ. eigenvalues --   -0.49880  -0.49430  -0.48037  -0.46306  -0.42258
 Alpha  occ. eigenvalues --   -0.41409  -0.40549  -0.39397  -0.37690  -0.36076
 Alpha  occ. eigenvalues --   -0.35805  -0.35442  -0.34378  -0.33688  -0.33469
 Alpha  occ. eigenvalues --   -0.32243  -0.31602  -0.31410  -0.31062  -0.30012
 Alpha  occ. eigenvalues --   -0.29396  -0.28465  -0.27289  -0.26771  -0.25827
 Alpha  occ. eigenvalues --   -0.25617  -0.25279  -0.24941  -0.24669  -0.24404
 Alpha  occ. eigenvalues --   -0.23752  -0.23582  -0.20405  -0.19830  -0.19362
 Alpha  occ. eigenvalues --   -0.17553  -0.14904  -0.14261  -0.12578   0.03854
 Alpha virt. eigenvalues --    0.05179   0.06750   0.07239   0.07290   0.08011
 Alpha virt. eigenvalues --    0.08202   0.08887   0.09144   0.09638   0.09738
 Alpha virt. eigenvalues --    0.09910   0.10321   0.10576   0.11189   0.11690

  Beta  occ. eigenvalues --  -14.30461 -14.26353 -14.22334 -14.21473 -14.21210
  Beta  occ. eigenvalues --  -10.12456 -10.10606 -10.10603 -10.10525 -10.09224
  Beta  occ. eigenvalues --  -10.08100 -10.07264 -10.07096 -10.06874 -10.06697
  Beta  occ. eigenvalues --  -10.06385 -10.06312 -10.06018 -10.05623 -10.05593
  Beta  occ. eigenvalues --   -1.02198  -0.83598  -0.82029  -0.77868  -0.74176
  Beta  occ. eigenvalues --   -0.71521  -0.69043  -0.65201  -0.63563  -0.63211
  Beta  occ. eigenvalues --   -0.60036  -0.59206  -0.54966  -0.53991  -0.52662
  Beta  occ. eigenvalues --   -0.49815  -0.49368  -0.47792  -0.46180  -0.42174
  Beta  occ. eigenvalues --   -0.41288  -0.40249  -0.39302  -0.37610  -0.35941
  Beta  occ. eigenvalues --   -0.35545  -0.35363  -0.34251  -0.33585  -0.33417
  Beta  occ. eigenvalues --   -0.32184  -0.31566  -0.31376  -0.30961  -0.29996
  Beta  occ. eigenvalues --   -0.29352  -0.28419  -0.27131  -0.26218  -0.25773
  Beta  occ. eigenvalues --   -0.25558  -0.25247  -0.24878  -0.24585  -0.24326
  Beta  occ. eigenvalues --   -0.23661  -0.23508  -0.19474  -0.19125  -0.18919
  Beta  occ. eigenvalues --   -0.17494  -0.14459  -0.14100  -0.11660
  Beta virt. eigenvalues --    0.05877   0.06927   0.07262   0.07485   0.07973
  Beta virt. eigenvalues --    0.08162   0.08595   0.08850   0.09270   0.09662
  Beta virt. eigenvalues --    0.09754   0.10338   0.10545   0.10787   0.11186

 Mulliken charges and spin densities:
               1          2
     1  C    0.738740  -1.253540
     2  C   -0.783907   0.452957
     3  C    0.219094  -0.435855
     4  N    0.017777   0.061446
     5  C   -0.458547  -0.225153
     6  C   -0.417204  -0.120843
     7  C    0.067052   0.114330
     8  C   -0.434174  -0.127219
     9  C   -0.707803  -0.030304
    10  N    0.443938   0.057308
    11  N   -0.288829   0.237459
    12  C   -0.406334   0.017817
    13  N   -0.273955  -0.033992
    14  N    0.470122   0.017726
    15  C    1.111907   0.040651
    16  C   -0.490732   0.136272
    17  C   -0.459277  -0.028800
    18  C   -0.283744   0.145314
    19  C   -0.590196   0.015404
    20  C   -0.160360   0.037989
    21  H   -0.141484   0.276923
    22  H   -0.417672   0.572216
    23  H   -0.221175   0.362570
    24  H    0.116397   0.033710
    25  H   -0.082257   0.214239
    26  H    0.104656   0.046352
    27  H    0.032508   0.083445
    28  H    0.289298  -0.113812
    29  H    0.211652   0.022967
    30  H    0.162824   0.012957
    31  H    0.221328   0.041183
    32  H    0.077173   0.132176
    33  H    0.226753  -0.005127
    34  H    0.094554   0.054942
    35  H    0.046203   0.072590
    36  H    0.115834   0.026547
    37  H    0.033352   0.112486
    38  H    0.164699  -0.006257
    39  H    0.090795  -0.008894
    40  H    0.140771   0.003785
    41  H    0.110004  -0.012027
    42  H    0.125131  -0.002267
    43  H    0.185088   0.000326
 Sum of Mulliken charges =  -1.00000   1.00000

 Dipole moment (field-independent basis, Debye):
    X=             -2.0414    Y=              0.6514    Z=              0.6006  Tot=              2.2254
 Quadrupole moment (field-independent basis, Debye-Ang):
   XX=           -246.2015   YY=           -149.6297   ZZ=           -143.6320
   XY=             -4.4850   XZ=             -8.0366   YZ=             -1.1047

 Summary of Natural Population Analysis:

                                       Natural Population
                Natural  -----------------------------------------------
    Atom  No    Charge         Core      Valence    Rydberg      Total
 -----------------------------------------------------------------------
      C    1   -0.28971      0.99967     2.28465    0.00539     3.28971
      C    2   -0.19366      0.99964     2.18419    0.00983     3.19366
      C    3   -0.08743      0.99962     2.07692    0.01088     3.08743
      N    4   -0.33990      0.99974     2.82997    0.01019     3.83990
      C    5   -0.08678      0.99961     2.07604    0.01113     3.08678
      C    6   -0.01288      0.99955     1.99940    0.01393     3.01288
      C    7   -0.11742      0.99959     2.10799    0.00984     3.11742
      C    8   -0.29104      0.99965     2.28454    0.00686     3.29104
      C    9   -0.28598      0.99965     2.27942    0.00691     3.28598
      N   10    0.00546      0.99968     2.47476    0.02010     3.49454
      N   11   -0.10052      0.99969     2.59056    0.01027     3.60052
      C   12    0.15466      0.99963     1.82863    0.01708     2.84534
      N   13   -0.16312      0.99972     2.65043    0.01297     3.66312
      N   14   -0.04214      0.99977     2.52874    0.01363     3.54214
      C   15   -0.02580      0.99948     2.01777    0.00855     3.02580
      C   16   -0.06959      0.99954     2.06215    0.00789     3.06959
      C   17   -0.11698      0.99958     2.10833    0.00907     3.11698
      C   18   -0.07649      0.99958     2.06731    0.00961     3.07649
      C   19   -0.10629      0.99958     2.09758    0.00914     3.10629
      C   20   -0.08432      0.99955     2.07666    0.00811     3.08432
      H   21    0.09479      0.00000     0.40411    0.00110     0.40521
      H   22    0.10142      0.00000     0.39737    0.00121     0.39858
      H   23    0.09828      0.00000     0.40015    0.00158     0.40172
      H   24    0.09636      0.00000     0.40242    0.00122     0.40364
      H   25    0.09563      0.00000     0.40344    0.00093     0.40437
      H   26    0.09177      0.00000     0.40720    0.00103     0.40823
      H   27    0.07780      0.00000     0.42068    0.00152     0.42220
      H   28    0.17341      0.00000     0.32316    0.00342     0.32659
      H   29    0.10509      0.00000     0.39386    0.00105     0.39491
      H   30    0.09553      0.00000     0.40339    0.00108     0.40447
      H   31    0.10843      0.00000     0.38952    0.00205     0.39157
      H   32    0.09884      0.00000     0.39904    0.00212     0.40116
      H   33    0.11158      0.00000     0.38748    0.00094     0.38842
      H   34    0.09702      0.00000     0.40229    0.00069     0.40298
      H   35    0.09603      0.00000     0.40320    0.00077     0.40397
      H   36    0.10141      0.00000     0.39782    0.00077     0.39859
      H   37    0.09763      0.00000     0.40174    0.00063     0.40237
      H   38    0.10259      0.00000     0.39646    0.00095     0.39741
      H   39    0.10381      0.00000     0.39502    0.00117     0.39619
      H   40    0.09364      0.00000     0.40538    0.00098     0.40636
      H   41    0.09033      0.00000     0.40868    0.00099     0.40967
      H   42    0.09280      0.00000     0.40619    0.00101     0.40720
      H   43    0.10576      0.00000     0.39282    0.00141     0.39424
 =======================================================================
   * Total *   -0.00000     19.99251    53.76749    0.24000    74.00000

 Normal termination of Gaussian 16 at Sat Dec 12 17:38:57 2020.
