 Gaussian 16, Revision A.03,

 -----------------------------------------------------------
 # opt freq B3LYP/6-31G(d) empiricaldispersion=gd3bj scf=xqc
 -----------------------------------------------------------

 -------------------------------
 CID_117355392_JID_8657_neutraal
 -------------------------------
 Symbolic Z-matrix:
 Charge =  0 Multiplicity = 1

 SCF Done:  E(RB3LYP) =  -778.203065513     A.U. after   15 cycles
 SCF Done:  E(RB3LYP) =  -778.209758932     A.U. after   12 cycles
 SCF Done:  E(RB3LYP) =  -778.211021999     A.U. after   12 cycles
 SCF Done:  E(RB3LYP) =  -778.211962331     A.U. after   12 cycles
 SCF Done:  E(RB3LYP) =  -778.212480187     A.U. after   12 cycles
 SCF Done:  E(RB3LYP) =  -778.212734383     A.U. after   12 cycles
 SCF Done:  E(RB3LYP) =  -778.212820725     A.U. after   10 cycles
 SCF Done:  E(RB3LYP) =  -778.212888876     A.U. after   11 cycles
 SCF Done:  E(RB3LYP) =  -778.212915249     A.U. after   10 cycles
 SCF Done:  E(RB3LYP) =  -778.212933504     A.U. after   10 cycles
 SCF Done:  E(RB3LYP) =  -778.212935346     A.U. after    8 cycles
 SCF Done:  E(RB3LYP) =  -778.212935956     A.U. after    8 cycles
 SCF Done:  E(RB3LYP) =  -778.212936185     A.U. after    8 cycles
 SCF Done:  E(RB3LYP) =  -778.212936267     A.U. after    7 cycles
 Optimization completed.
    -- Stationary point found.
 Normal termination of Gaussian 16 at Fri Dec 11 20:12:02 2020.

 --------------------------------------------------------------------
 #N Geom=AllCheck Guess=TCheck SCRF=Check GenChk RB3LYP/6-31G(d) Freq
 --------------------------------------------------------------------

 Structure from the checkpoint file:  "JID_8657.chk"
 -------------------------------
 CID_117355392_JID_8657_neutraal
 -------------------------------
 Charge =  0 Multiplicity = 1

 SCF Done:  E(RB3LYP) =  -778.212936267     A.U. after    1 cycles

  Exact polarizability: 299.511  -9.743 142.859  -3.108 -14.762  99.158
 Approx polarizability: 382.560 -17.405 260.043 -12.404 -38.218 160.881

                      1                      2                      3
                      A                      A                      A
 Frequencies --     36.8364                41.7663                65.1696
 Red. masses --      4.8773                 4.0277                 4.5062
 Frc consts  --      0.0039                 0.0041                 0.0113
 IR Inten    --      0.8942                 1.7586                 0.2847

                      4                      5                      6
                      A                      A                      A
 Frequencies --     81.4588               111.3844               117.2888
 Red. masses --      3.3158                 3.4438                 3.3373
 Frc consts  --      0.0130                 0.0252                 0.0270
 IR Inten    --      0.3707                 0.2504                 0.1620

                      7                      8                      9
                      A                      A                      A
 Frequencies --    147.9431               166.0391               211.8617
 Red. masses --      1.8403                 1.6689                 5.9061
 Frc consts  --      0.0237                 0.0271                 0.1562
 IR Inten    --      1.7409                 1.4528                 1.1912

                     10                     11                     12
                      A                      A                      A
 Frequencies --    221.5174               254.1196               255.9464
 Red. masses --      3.3435                 2.0263                 1.3369
 Frc consts  --      0.0967                 0.0771                 0.0516
 IR Inten    --      9.9763                10.3104                32.7768

                     13                     14                     15
                      A                      A                      A
 Frequencies --    306.2678               339.2211               354.7308
 Red. masses --      4.4060                 3.9628                 2.8707
 Frc consts  --      0.2435                 0.2687                 0.2128
 IR Inten    --     11.7771                 8.4867                 8.5675

                     16                     17                     18
                      A                      A                      A
 Frequencies --    373.7475               421.1332               425.2160
 Red. masses --      4.0530                 3.0595                 2.1312
 Frc consts  --      0.3336                 0.3197                 0.2270
 IR Inten    --      6.9180                 0.8571                22.0590

                     19                     20                     21
                      A                      A                      A
 Frequencies --    457.2238               469.6499               497.6380
 Red. masses --      4.5116                 3.7358                 2.5864
 Frc consts  --      0.5557                 0.4855                 0.3774
 IR Inten    --     14.3366                 8.6749                46.5914

                     22                     23                     24
                      A                      A                      A
 Frequencies --    555.9199               649.0860               657.7466
 Red. masses --      2.9596                 6.2240                 4.2847
 Frc consts  --      0.5389                 1.5450                 1.0922
 IR Inten    --      9.0122                 0.5933                 4.1337

                     25                     26                     27
                      A                      A                      A
 Frequencies --    670.1710               682.5050               700.5320
 Red. masses --      3.1076                 3.4042                 3.6240
 Frc consts  --      0.8223                 0.9343                 1.0478
 IR Inten    --     60.7236                54.8733                12.6927

                     28                     29                     30
                      A                      A                      A
 Frequencies --    711.4986               752.8679               755.5051
 Red. masses --      4.7950                 1.6630                 4.4471
 Frc consts  --      1.4302                 0.5554                 1.4955
 IR Inten    --      2.9881                58.3977                 7.6947

                     31                     32                     33
                      A                      A                      A
 Frequencies --    771.7644               797.6695               800.4864
 Red. masses --      2.7023                 2.9155                 2.2887
 Frc consts  --      0.9483                 1.0930                 0.8641
 IR Inten    --      7.6075                60.6272               172.2771

                     34                     35                     36
                      A                      A                      A
 Frequencies --    859.0607               865.7629               868.4071
 Red. masses --      1.2848                 1.7110                 1.7262
 Frc consts  --      0.5586                 0.7556                 0.7670
 IR Inten    --      3.0056                25.1745                 7.6834

                     37                     38                     39
                      A                      A                      A
 Frequencies --    965.3835               972.9195               980.8465
 Red. masses --      2.6345                 1.4550                 2.0376
 Frc consts  --      1.4466                 0.8115                 1.1550
 IR Inten    --     13.8501                 0.2442                 1.3611

                     40                     41                     42
                      A                      A                      A
 Frequencies --    982.8459               985.4483              1015.8806
 Red. masses --      2.0391                 5.7194                 3.3011
 Frc consts  --      1.1605                 3.2724                 2.0072
 IR Inten    --      3.8101                36.6652                25.9121

                     43                     44                     45
                      A                      A                      A
 Frequencies --   1021.4349              1041.5004              1084.9635
 Red. masses --      3.3575                 2.9348                 2.5864
 Frc consts  --      2.0639                 1.8756                 1.7938
 IR Inten    --      3.7258                21.5181                65.2563

                     46                     47                     48
                      A                      A                      A
 Frequencies --   1096.2434              1113.9394              1121.5810
 Red. masses --      1.8023                 1.6006                 1.8565
 Frc consts  --      1.2761                 1.1702                 1.3760
 IR Inten    --     41.5311                 0.0817                14.3583

                     49                     50                     51
                      A                      A                      A
 Frequencies --   1147.3908              1163.7025              1208.5474
 Red. masses --      1.3905                 1.3107                 3.8992
 Frc consts  --      1.0785                 1.0458                 3.3555
 IR Inten    --      7.7799                 8.8938                19.3552

                     52                     53                     54
                      A                      A                      A
 Frequencies --   1214.2085              1222.1598              1224.1362
 Red. masses --      1.3294                 1.3637                 1.3362
 Frc consts  --      1.1548                 1.2001                 1.1797
 IR Inten    --      1.5870                21.1672                 5.5996

                     55                     56                     57
                      A                      A                      A
 Frequencies --   1242.6846              1251.1754              1279.8486
 Red. masses --      3.6949                 1.8872                 1.3738
 Frc consts  --      3.3618                 1.7406                 1.3258
 IR Inten    --     23.8040                 6.0099                 0.8430

                     58                     59                     60
                      A                      A                      A
 Frequencies --   1316.2937              1321.3079              1345.7229
 Red. masses --      2.7095                 1.7644                 1.4730
 Frc consts  --      2.7660                 1.8149                 1.5716
 IR Inten    --      5.8853                46.5971                 0.5072

                     61                     62                     63
                      A                      A                      A
 Frequencies --   1356.5238              1373.9226              1423.7864
 Red. masses --      3.6315                 1.6521                 2.2602
 Frc consts  --      3.9372                 1.8374                 2.6996
 IR Inten    --     10.0792                73.5252               105.8754

                     64                     65                     66
                      A                      A                      A
 Frequencies --   1435.8090              1467.3811              1489.5182
 Red. masses --      2.7664                 3.1005                 1.2316
 Frc consts  --      3.3602                 3.9334                 1.6099
 IR Inten    --      2.9509                15.4718                23.4670

                     67                     68                     69
                      A                      A                      A
 Frequencies --   1511.4628              1520.2184              1525.3517
 Red. masses --      4.3059                 1.0525                 1.1085
 Frc consts  --      5.7958                 1.4332                 1.5196
 IR Inten    --     12.1497                11.4663                 4.5287

                     70                     71                     72
                      A                      A                      A
 Frequencies --   1539.8245              1541.1164              1557.0069
 Red. masses --      1.0930                 2.7486                 1.1720
 Frc consts  --      1.5269                 3.8461                 1.6740
 IR Inten    --      3.6565                60.7007                30.3783

                     73                     74                     75
                      A                      A                      A
 Frequencies --   1572.5102              1609.3726              1635.4327
 Red. masses --      3.2389                 5.8822                 4.3439
 Frc consts  --      4.7188                 8.9764                 6.8454
 IR Inten    --    173.0365                 3.4277                39.8870

                     76                     77                     78
                      A                      A                      A
 Frequencies --   1676.0402              1682.9914              1684.0721
 Red. masses --      5.0289                 3.3461                 1.7062
 Frc consts  --      8.3232                 5.5841                 2.8511
 IR Inten    --     34.2002               158.5363                72.6003

                     79                     80                     81
                      A                      A                      A
 Frequencies --   2987.9224              2991.8150              3041.4723
 Red. masses --      1.0616                 1.0701                 1.0684
 Frc consts  --      5.5840                 5.6436                 5.8228
 IR Inten    --     24.5626               121.5909                59.2120

                     82                     83                     84
                      A                      A                      A
 Frequencies --   3088.2962              3094.3146              3097.9291
 Red. masses --      1.0907                 1.0827                 1.0991
 Frc consts  --      6.1290                 6.1078                 6.2147
 IR Inten    --     50.5652                36.0208                45.7325

                     85                     86                     87
                      A                      A                      A
 Frequencies --   3175.1837              3190.9419              3200.0596
 Red. masses --      1.0962                 1.0889                 1.0873
 Frc consts  --      6.5114                 6.5323                 6.5604
 IR Inten    --     16.9565                13.7326                 6.7436

                     88                     89                     90
                      A                      A                      A
 Frequencies --   3215.9312              3227.0906              3275.8620
 Red. masses --      1.0944                 1.0929                 1.0967
 Frc consts  --      6.6688                 6.7060                 6.9340
 IR Inten    --      9.1389                 2.6025                 1.2652

                     91                     92                     93
                      A                      A                      A
 Frequencies --   3529.2719              3626.8675              3673.8245
 Red. masses --      1.0482                 1.0964                 1.0806
 Frc consts  --      7.6921                 8.4974                 8.5935
 IR Inten    --      9.6130                10.4669                55.7147

 - Thermochemistry -
 -------------------
 Temperature   298.150 Kelvin.  Pressure   1.00000 Atm.
 Atom     1 has atomic number  6 and mass  12.00000

 Molecular mass:   241.13275 amu.
 Principal axes and moments of inertia in atomic units:
                           1         2         3
     Eigenvalues --  1098.77966********************
           X            0.99998   0.00186   0.00594
           Y           -0.00184   0.99999  -0.00374
           Z           -0.00595   0.00373   0.99998
 This molecule is an asymmetric top.
 Rotational symmetry number  1.
 Warning -- assumption of classical behavior for rotation
           may cause significant error
 Rotational temperatures (Kelvin)      0.07883     0.00740     0.00708
 Rotational constants (GHZ):           1.64250     0.15410     0.14760
 Zero-point vibrational energy     716529.8 (Joules/Mol)
                                  171.25474 (Kcal/Mol)
 Warning -- explicit consideration of  22 degrees of freedom as
           vibrations may cause significant error
 Vibrational temperatures:     53.00    60.09    93.76   117.20   160.26
          (Kelvin)            168.75   212.86   238.89   304.82   318.71
                              365.62   368.25   440.65   488.06   510.38
                              537.74   605.92   611.79   657.84   675.72
                              715.99   799.84   933.89   946.35   964.23
                              981.97  1007.91  1023.69  1083.21  1087.00
                             1110.40  1147.67  1151.72  1236.00  1245.64
                             1249.44  1388.97  1399.81  1411.22  1414.10
                             1417.84  1461.63  1469.62  1498.49  1561.02
                             1577.25  1602.71  1613.70  1650.84  1674.31
                             1738.83  1746.98  1758.42  1761.26  1787.95
                             1800.16  1841.42  1893.85  1901.07  1936.20
                             1951.74  1976.77  2048.51  2065.81  2111.23
                             2143.08  2174.66  2187.26  2194.64  2215.46
                             2217.32  2240.19  2262.49  2315.53  2353.02
                             2411.45  2421.45  2423.00  4298.95  4304.55
                             4376.00  4443.37  4452.03  4457.23  4568.38
                             4591.05  4604.17  4627.01  4643.06  4713.23
                             5077.84  5218.25  5285.81

 Zero-point correction=                           0.272912 (Hartree/Particle)
 Thermal correction to Energy=                    0.288712
 Thermal correction to Enthalpy=                  0.289656
 Thermal correction to Gibbs Free Energy=         0.228848
 Sum of electronic and zero-point Energies=           -777.940024
 Sum of electronic and thermal Energies=              -777.924225
 Sum of electronic and thermal Enthalpies=            -777.923281
 Sum of electronic and thermal Free Energies=         -777.984089

                     E (Thermal)             CV                S
                      KCal/Mol        Cal/Mol-Kelvin    Cal/Mol-Kelvin
 Total                  181.169             60.834            127.981
 Electronic               0.000              0.000              0.000
 Translational            0.889              2.981             42.342
 Rotational               0.889              2.981             33.420
 Vibrational            179.392             54.872             52.220
 Vibration     1          0.594              1.982              5.422
 Vibration     2          0.594              1.980              5.173
 Vibration     3          0.597              1.971              4.294
 Vibration     4          0.600              1.962              3.855
 Vibration     5          0.607              1.940              3.245
 Vibration     6          0.608              1.935              3.145
 Vibration     7          0.617              1.905              2.699
 Vibration     8          0.624              1.884              2.480
 Vibration     9          0.643              1.823              2.028
 Vibration    10          0.648              1.808              1.947
 Vibration    11          0.665              1.756              1.702
 Vibration    12          0.666              1.753              1.689
 Vibration    13          0.697              1.662              1.382
 Vibration    14          0.719              1.597              1.216
 Vibration    15          0.731              1.566              1.145
 Vibration    16          0.745              1.526              1.064
 Vibration    17          0.784              1.424              0.888
 Vibration    18          0.787              1.415              0.874
 Vibration    19          0.815              1.345              0.774
 Vibration    20          0.827              1.317              0.739
 Vibration    21          0.853              1.255              0.664
 Vibration    22          0.911              1.127              0.532

                           ! Non-Optimized Parameters !
 Normal termination of Gaussian 16 at Fri Dec 11 20:22:28 2020.

 ----------------------------------------------------------------------
 # B3LYP/6-311++G(d,p) empiricaldispersion=gd3bj scf=xqc pop=npa geom=c
 heck
 ----------------------------------------------------------------------

 ---------------------------------------
 CID_117355392_JID_8657_Energie_neutraal
 ---------------------------------------
 Structure from the checkpoint file:  "JID_8657.chk"
 Charge =  0 Multiplicity = 1

 SCF Done:  E(RB3LYP) =  -778.424125782     A.U. after   15 cycles
 Normal termination of Gaussian 16 at Fri Dec 11 20:27:01 2020.

 ----------------------------------------------------------------------
 # B3LYP/6-311++G(d,p) empiricaldispersion=gd3bj scf=xqc pop=npa geom=c
 heck
 ----------------------------------------------------------------------

 -------------------------------------
 CID_117355392_JID_8657_Energie_kation
 -------------------------------------
 Structure from the checkpoint file:  "JID_8657.chk"
 Charge =  1 Multiplicity = 2

 SCF Done:  E(UB3LYP) =  -778.156619740     A.U. after   29 cycles
 Normal termination of Gaussian 16 at Fri Dec 11 20:38:45 2020.
 Gaussian 16:  ES64L-G16RevA.03 25-Dec-2016

 ----------------------------------------------------------------------
 # B3LYP/6-311++G(d,p) empiricaldispersion=gd3bj scf=xqc pop=npa geom=c
 heck
 ----------------------------------------------------------------------

 ------------------------------------
 CID_117355392_JID_8657_Energie_anion
 ------------------------------------
 Structure from the checkpoint file:  "JID_8657.chk"
 Charge = -1 Multiplicity = 2

                         Standard orientation:
 ---------------------------------------------------------------------
 Center     Atomic      Atomic             Coordinates (Angstroms)
 Number     Number       Type             X           Y           Z
 ---------------------------------------------------------------------
      1          6           0        3.486173    1.726121    1.239131
      2          7           0        3.802153    0.855808    0.115843
      3          6           0        5.189648    0.365682    0.071672
      4          6           0        5.041214   -0.967486   -0.697472
      5          7           0        3.609235   -1.295859   -0.654710
      6          6           0        3.001992   -0.252160   -0.208696
      7          6           0        1.527887   -0.186380   -0.127802
      8          6           0        0.808967   -1.336504    0.223176
      9          6           0       -0.578991   -1.315214    0.268894
     10          6           0       -1.292787   -0.141935   -0.032464
     11          6           0       -0.568604    1.002551   -0.402786
     12          6           0        0.820078    0.979627   -0.453935
     13          6           0       -2.751552   -0.103087    0.029026
     14          6           0       -3.679990    0.701881   -0.619299
     15          6           0       -4.942268    0.262384   -0.147273
     16          7           0       -4.823523   -0.736697    0.730223
     17          7           0       -3.482254   -0.949378    0.808517
     18          7           0       -6.196250    0.790123   -0.461371
     19          1           0        4.030293    2.670483    1.134519
     20          1           0        3.772358    1.270253    2.202048
     21          1           0        2.419207    1.945961    1.266655
     22          1           0        5.850565    1.088477   -0.417134
     23          1           0        5.558934    0.204824    1.097737
     24          1           0        5.343987   -0.860761   -1.747632
     25          1           0        5.640314   -1.777321   -0.268278
     26          1           0        1.358045   -2.246485    0.439162
     27          1           0       -1.117875   -2.227130    0.510575
     28          1           0       -1.103528    1.916949   -0.639362
     29          1           0        1.362939    1.865856   -0.766929
     30          1           0       -3.476922    1.469167   -1.351573
     31          1           0       -3.134060   -1.567906    1.523887
     32          1           0       -6.941700    0.170067   -0.161996
     33          1           0       -6.298693    1.016699   -1.444218
 ---------------------------------------------------------------------

 SCF Done:  E(UB3LYP) =  -778.428886912     A.U. after   31 cycles

 The electronic state is 2-A.
 Alpha  occ. eigenvalues --  -14.23827 -14.21013 -14.20931 -14.18669 -14.14234
 Alpha  occ. eigenvalues --  -10.09870 -10.09419 -10.09255 -10.09062 -10.07869
 Alpha  occ. eigenvalues --  -10.07356 -10.03103 -10.03032 -10.02921 -10.02775
 Alpha  occ. eigenvalues --  -10.02746 -10.02544 -10.02317  -0.90956  -0.86016
 Alpha  occ. eigenvalues --   -0.80159  -0.74702  -0.72044  -0.67863  -0.65256
 Alpha  occ. eigenvalues --   -0.63736  -0.60577  -0.59742  -0.57959  -0.50302
 Alpha  occ. eigenvalues --   -0.50245  -0.47560  -0.47136  -0.45230  -0.41972
 Alpha  occ. eigenvalues --   -0.41367  -0.39160  -0.38031  -0.37824  -0.34653
 Alpha  occ. eigenvalues --   -0.33812  -0.32192  -0.31971  -0.31495  -0.31054
 Alpha  occ. eigenvalues --   -0.30604  -0.29489  -0.28355  -0.28043  -0.27155
 Alpha  occ. eigenvalues --   -0.26213  -0.25503  -0.24245  -0.21786  -0.21554
 Alpha  occ. eigenvalues --   -0.20631  -0.20009  -0.16981  -0.14515  -0.13785
 Alpha  occ. eigenvalues --   -0.12068  -0.10519  -0.09867  -0.08371   0.04740
 Alpha virt. eigenvalues --    0.07068   0.07347   0.08605   0.09362   0.09623
 Alpha virt. eigenvalues --    0.10158   0.10721   0.11446   0.11670   0.11871
 Alpha virt. eigenvalues --    0.12474   0.13187   0.13373   0.13708   0.14247

  Beta  occ. eigenvalues --  -14.23657 -14.21020 -14.20915 -14.18516 -14.13970
  Beta  occ. eigenvalues --  -10.09922 -10.09420 -10.09197 -10.09058 -10.07883
  Beta  occ. eigenvalues --  -10.07325 -10.03080 -10.02977 -10.02858 -10.02747
  Beta  occ. eigenvalues --  -10.02437 -10.02399 -10.02002  -0.90715  -0.85854
  Beta  occ. eigenvalues --   -0.80146  -0.74417  -0.71623  -0.67529  -0.64980
  Beta  occ. eigenvalues --   -0.63573  -0.60281  -0.59391  -0.57822  -0.50182
  Beta  occ. eigenvalues --   -0.49778  -0.47509  -0.46861  -0.45128  -0.41746
  Beta  occ. eigenvalues --   -0.41261  -0.39069  -0.37911  -0.37665  -0.34578
  Beta  occ. eigenvalues --   -0.33701  -0.31948  -0.31856  -0.31292  -0.30790
  Beta  occ. eigenvalues --   -0.30269  -0.29362  -0.28252  -0.27954  -0.27030
  Beta  occ. eigenvalues --   -0.26046  -0.25349  -0.23328  -0.21461  -0.21341
  Beta  occ. eigenvalues --   -0.20312  -0.19527  -0.16758  -0.13560  -0.13200
  Beta  occ. eigenvalues --   -0.11223  -0.09851  -0.09238  -0.07058
  Beta virt. eigenvalues --    0.07012   0.07305   0.08542   0.09244   0.09561
  Beta virt. eigenvalues --    0.09754   0.10275   0.10662   0.11408   0.11651
  Beta virt. eigenvalues --    0.11872   0.12570   0.13209   0.13437   0.13642

 Mulliken charges and spin densities:
               1          2
     1  C   -0.352622  -0.059549
     2  N    0.069212   0.013111
     3  C   -0.259472   0.031353
     4  C   -0.168431  -0.052026
     5  N   -0.077204   0.127900
     6  C   -0.322265   0.005032
     7  C    0.612296   0.160104
     8  C   -0.335698   0.030694
     9  C   -0.320448   0.087547
    10  C    0.921601   0.148088
    11  C   -0.716517   0.077545
    12  C   -0.801506   0.125627
    13  C   -0.463508  -0.020024
    14  C    0.098573   0.102019
    15  C   -0.263706  -0.048254
    16  N   -0.202671   0.075206
    17  N   -0.104868   0.065508
    18  N   -0.367593  -0.003305
    19  H    0.111240   0.017331
    20  H    0.077138   0.039061
    21  H    0.142530  -0.011532
    22  H    0.140256   0.006793
    23  H    0.041441   0.022908
    24  H    0.111086   0.002210
    25  H    0.098792   0.043423
    26  H    0.163125  -0.005895
    27  H    0.084373   0.001704
    28  H    0.103738  -0.003740
    29  H    0.140953   0.016228
    30  H    0.123788   0.002936
    31  H    0.261510  -0.001315
    32  H    0.235444   0.001189
    33  H    0.219410   0.002124
 Sum of Mulliken charges =  -1.00000   1.00000

 Dipole moment (field-independent basis, Debye):
    X=              2.0323    Y=              2.2581    Z=              0.3816  Tot=              3.0619
 Quadrupole moment (field-independent basis, Debye-Ang):
   XX=           -168.5918   YY=           -120.4627   ZZ=           -116.4144
   XY=              8.2971   XZ=             12.9991   YZ=             -5.4539

 Summary of Natural Population Analysis:

                                       Natural Population
                Natural  -----------------------------------------------
    Atom  No    Charge         Core      Valence    Rydberg      Total
 -----------------------------------------------------------------------
      C    1   -0.17386      0.99965     2.16781    0.00640     3.17386
      N    2   -0.26694      0.99966     2.75611    0.01117     3.76694
      C    3   -0.09021      0.99965     2.08197    0.00859     3.09021
      C    4   -0.10457      0.99965     2.09581    0.00911     3.10457
      N    5   -0.23496      0.99968     2.72177    0.01351     3.73496
      C    6    0.21840      0.99960     1.76123    0.02076     2.78160
      C    7    0.05351      0.99947     1.93620    0.01082     2.94649
      C    8   -0.09554      0.99960     2.08175    0.01419     3.09554
      C    9   -0.09038      0.99955     2.08237    0.00846     3.09038
      C   10   -0.00821      0.99953     1.99056    0.01812     3.00821
      C   11   -0.09150      0.99955     2.08363    0.00833     3.09150
      C   12   -0.10662      0.99960     2.09312    0.01390     3.10662
      C   13    0.14898      0.99955     1.84348    0.00799     2.85102
      C   14   -0.18004      0.99951     2.16733    0.01320     3.18004
      C   15    0.14344      0.99960     1.84027    0.01669     2.85656
      N   16   -0.18229      0.99969     2.66766    0.01495     3.68229
      N   17   -0.16688      0.99970     2.65240    0.01479     3.66688
      N   18   -0.41047      0.99970     2.90027    0.01050     3.91047
      H   19    0.08646      0.00000     0.41221    0.00133     0.41354
      H   20    0.07828      0.00000     0.41893    0.00279     0.42172
      H   21    0.10958      0.00000     0.38941    0.00101     0.39042
      H   22    0.08894      0.00000     0.40984    0.00122     0.41106
      H   23    0.07788      0.00000     0.41963    0.00249     0.42212
      H   24    0.08551      0.00000     0.41299    0.00151     0.41449
      H   25    0.08736      0.00000     0.41059    0.00205     0.41264
      H   26    0.10045      0.00000     0.39769    0.00187     0.39955
      H   27    0.08873      0.00000     0.40957    0.00170     0.41127
      H   28    0.09316      0.00000     0.40547    0.00137     0.40684
      H   29    0.09291      0.00000     0.40494    0.00214     0.40709
      H   30    0.10172      0.00000     0.39733    0.00095     0.39828
      H   31    0.19172      0.00000     0.30627    0.00201     0.30828
      H   32    0.18172      0.00000     0.31632    0.00196     0.31828
      H   33    0.17731      0.00000     0.32086    0.00183     0.32269
 =======================================================================
   * Total *    0.00359     17.99292    45.75577    0.24772    63.99641

 Normal termination of Gaussian 16 at Fri Dec 11 20:51:27 2020.
