 Gaussian 16, Revision A.03,

 -----------------------------------------------------------
 # opt freq B3LYP/6-31G(d) empiricaldispersion=gd3bj scf=xqc
 -----------------------------------------------------------

 ------------------------------
 CID_14888766_JID_8714_neutraal
 ------------------------------
 Symbolic Z-matrix:
 Charge =  0 Multiplicity = 1

 SCF Done:  E(RB3LYP) =  -804.132014093     A.U. after   15 cycles
 SCF Done:  E(RB3LYP) =  -804.137261027     A.U. after   12 cycles
 SCF Done:  E(RB3LYP) =  -804.137908960     A.U. after   12 cycles
 SCF Done:  E(RB3LYP) =  -804.138098243     A.U. after   11 cycles
 SCF Done:  E(RB3LYP) =  -804.138177285     A.U. after   11 cycles
 SCF Done:  E(RB3LYP) =  -804.138198318     A.U. after   10 cycles
 SCF Done:  E(RB3LYP) =  -804.138202230     A.U. after    9 cycles
 SCF Done:  E(RB3LYP) =  -804.138203961     A.U. after    8 cycles
 SCF Done:  E(RB3LYP) =  -804.138204342     A.U. after    7 cycles
 SCF Done:  E(RB3LYP) =  -804.138204399     A.U. after    7 cycles
 SCF Done:  E(RB3LYP) =  -804.138204428     A.U. after    6 cycles
 Optimization completed.
    -- Stationary point found.
 Normal termination of Gaussian 16 at Fri Dec 11 22:06:58 2020.

 --------------------------------------------------------------------
 #N Geom=AllCheck Guess=TCheck SCRF=Check GenChk RB3LYP/6-31G(d) Freq
 --------------------------------------------------------------------

 Structure from the checkpoint file:  "JID_8714.chk"
 ------------------------------
 CID_14888766_JID_8714_neutraal
 ------------------------------
 Charge =  0 Multiplicity = 1

 SCF Done:  E(RB3LYP) =  -804.138204428     A.U. after    1 cycles

  Exact polarizability: 207.330 -13.172 137.761  -7.374  -8.166 146.646
 Approx polarizability: 274.448 -24.835 192.954 -22.224 -19.025 240.295

                      1                      2                      3
                      A                      A                      A
 Frequencies --     26.3307                34.5816                51.3020
 Red. masses --      4.4871                 4.2361                 3.9912
 Frc consts  --      0.0018                 0.0030                 0.0062
 IR Inten    --      0.5115                 1.6647                 0.3495

                      4                      5                      6
                      A                      A                      A
 Frequencies --     56.6546                64.3953                83.0050
 Red. masses --      2.9236                 4.1381                 3.0477
 Frc consts  --      0.0055                 0.0101                 0.0124
 IR Inten    --      0.3001                 0.7082                 0.5370

                      7                      8                      9
                      A                      A                      A
 Frequencies --     90.7319               101.3036               123.6579
 Red. masses --      3.5305                 4.5811                 3.8986
 Frc consts  --      0.0171                 0.0277                 0.0351
 IR Inten    --      0.1888                 1.7561                 0.1641

                     10                     11                     12
                      A                      A                      A
 Frequencies --    141.3098               177.5381               209.2015
 Red. masses --      2.4234                 4.2399                 2.0365
 Frc consts  --      0.0285                 0.0787                 0.0525
 IR Inten    --      0.5293                 0.8571                 1.0786

                     13                     14                     15
                      A                      A                      A
 Frequencies --    222.8032               260.2607               275.2525
 Red. masses --      2.6051                 1.2026                 1.7120
 Frc consts  --      0.0762                 0.0480                 0.0764
 IR Inten    --      0.1873                 1.2805                 0.5797

                     16                     17                     18
                      A                      A                      A
 Frequencies --    283.7487               306.4799               324.3303
 Red. masses --      2.4851                 3.8391                 2.1052
 Frc consts  --      0.1179                 0.2125                 0.1305
 IR Inten    --      0.1146                 2.2108                 0.0287

                     19                     20                     21
                      A                      A                      A
 Frequencies --    344.5738               369.6616               374.8627
 Red. masses --      2.9948                 1.8427                 1.2898
 Frc consts  --      0.2095                 0.1484                 0.1068
 IR Inten    --      6.8246                27.5005                97.2324

                     22                     23                     24
                      A                      A                      A
 Frequencies --    397.9412               416.0768               434.9396
 Red. masses --      1.6808                 1.6451                 2.9033
 Frc consts  --      0.1568                 0.1678                 0.3236
 IR Inten    --     23.8730                28.6867                31.7833

                     25                     26                     27
                      A                      A                      A
 Frequencies --    451.5501               499.7237               515.6673
 Red. masses --      2.1485                 3.2806                 2.6409
 Frc consts  --      0.2581                 0.4827                 0.4138
 IR Inten    --      0.8320                 7.9988                 1.4475

                     28                     29                     30
                      A                      A                      A
 Frequencies --    556.7215               575.9608               601.5267
 Red. masses --      3.1327                 3.1392                 2.9583
 Frc consts  --      0.5721                 0.6136                 0.6307
 IR Inten    --      2.1720                 6.6697                49.6642

                     31                     32                     33
                      A                      A                      A
 Frequencies --    655.5105               683.5927               705.3220
 Red. masses --      3.5582                 3.0022                 1.7223
 Frc consts  --      0.9008                 0.8266                 0.5048
 IR Inten    --      4.8221                10.6978                 9.8276

                     34                     35                     36
                      A                      A                      A
 Frequencies --    713.3680               739.1090               748.9327
 Red. masses --      2.0867                 1.4502                 1.4199
 Frc consts  --      0.6257                 0.4668                 0.4692
 IR Inten    --     68.3646                13.4994                77.9923

                     37                     38                     39
                      A                      A                      A
 Frequencies --    777.1700               801.3135               822.7501
 Red. masses --      2.0957                 2.0420                 1.6914
 Frc consts  --      0.7458                 0.7725                 0.6746
 IR Inten    --      4.1366               111.8126                23.7680

                     40                     41                     42
                      A                      A                      A
 Frequencies --    837.8006               845.4916               859.2908
 Red. masses --      1.8091                 2.2824                 2.0746
 Frc consts  --      0.7481                 0.9613                 0.9025
 IR Inten    --      2.2333                 6.5671                 7.0910

                     43                     44                     45
                      A                      A                      A
 Frequencies --    904.3845               916.0330               937.3576
 Red. masses --      1.1836                 1.6453                 1.8621
 Frc consts  --      0.5704                 0.8134                 0.9640
 IR Inten    --     27.7116                 1.0065                 3.4683

                     46                     47                     48
                      A                      A                      A
 Frequencies --    970.8788               982.5507               991.9809
 Red. masses --      1.9304                 1.6692                 5.5770
 Frc consts  --      1.0721                 0.9494                 3.2334
 IR Inten    --      5.0258                 2.1351                11.5667

                     49                     50                     51
                      A                      A                      A
 Frequencies --   1027.4621              1046.8656              1058.2753
 Red. masses --      1.6889                 2.0265                 1.6689
 Frc consts  --      1.0505                 1.3085                 1.1012
 IR Inten    --      2.6243                 4.9477                 0.3881

                     52                     53                     54
                      A                      A                      A
 Frequencies --   1068.7301              1085.8274              1095.7156
 Red. masses --      1.8899                 2.0285                 1.9801
 Frc consts  --      1.2718                 1.4091                 1.4007
 IR Inten    --      7.8832                43.8059                 2.7752

                     55                     56                     57
                      A                      A                      A
 Frequencies --   1112.0942              1124.4297              1130.2600
 Red. masses --      2.0663                 2.3570                 1.7699
 Frc consts  --      1.5056                 1.7558                 1.3322
 IR Inten    --     19.5137                52.2868                56.3067

                     58                     59                     60
                      A                      A                      A
 Frequencies --   1150.2012              1162.8306              1175.0154
 Red. masses --      2.0363                 1.9277                 1.8541
 Frc consts  --      1.5872                 1.5358                 1.5082
 IR Inten    --     11.4591                31.6772                22.7578

                     61                     62                     63
                      A                      A                      A
 Frequencies --   1206.3996              1219.7571              1234.7843
 Red. masses --      1.4519                 1.4058                 1.3649
 Frc consts  --      1.2450                 1.2323                 1.2261
 IR Inten    --     30.6888                 5.6009                 6.9187

                     64                     65                     66
                      A                      A                      A
 Frequencies --   1252.5883              1278.9454              1297.0150
 Red. masses --      1.3004                 1.4863                 1.6926
 Frc consts  --      1.2021                 1.4324                 1.6776
 IR Inten    --      6.4677                 7.1739                12.5134

                     67                     68                     69
                      A                      A                      A
 Frequencies --   1311.0337              1317.4606              1322.2198
 Red. masses --      3.4082                 1.4294                 1.3805
 Frc consts  --      3.4515                 1.4618                 1.4219
 IR Inten    --     94.1037                 8.1668                 2.0527

                     70                     71                     72
                      A                      A                      A
 Frequencies --   1344.9773              1362.1407              1373.2038
 Red. masses --      1.2105                 1.3153                 1.7501
 Frc consts  --      1.2902                 1.4379                 1.9444
 IR Inten    --      1.5445                 0.5438                10.8051

                     73                     74                     75
                      A                      A                      A
 Frequencies --   1383.1323              1394.1897              1399.2553
 Red. masses --      1.4772                 1.4740                 2.1470
 Frc consts  --      1.6650                 1.6881                 2.4767
 IR Inten    --      0.5024                 5.5204                68.4888

                     76                     77                     78
                      A                      A                      A
 Frequencies --   1405.6285              1421.4654              1424.7376
 Red. masses --      1.7286                 1.4127                 1.4485
 Frc consts  --      2.0123                 1.6818                 1.7323
 IR Inten    --     16.1425                 4.1007                 1.2042

                     79                     80                     81
                      A                      A                      A
 Frequencies --   1434.2966              1444.7791              1448.8519
 Red. masses --      1.2285                 1.2699                 1.3288
 Frc consts  --      1.4891                 1.5617                 1.6435
 IR Inten    --     13.3125                 6.4655                25.1102

                     82                     83                     84
                      A                      A                      A
 Frequencies --   1461.1990              1471.5971              1510.2821
 Red. masses --      1.5560                 2.9553                 1.0778
 Frc consts  --      1.9574                 3.7708                 1.4485
 IR Inten    --     28.4791                52.3405                 0.1324

                     85                     86                     87
                      A                      A                      A
 Frequencies --   1518.6927              1522.7159              1528.1212
 Red. masses --      1.0750                 1.0598                 1.0987
 Frc consts  --      1.4608                 1.4478                 1.5116
 IR Inten    --      2.4112                 6.3138                12.6267

                     88                     89                     90
                      A                      A                      A
 Frequencies --   1530.5407              1532.7597              1534.2786
 Red. masses --      1.0631                 1.0647                 1.1513
 Frc consts  --      1.4673                 1.4737                 1.5967
 IR Inten    --      2.8214                 5.2579                10.8772

                     91                     92                     93
                      A                      A                      A
 Frequencies --   1538.9247              1540.5836              1545.8224
 Red. masses --      2.4659                 1.1094                 1.1145
 Frc consts  --      3.4408                 1.5514                 1.5691
 IR Inten    --     42.5878                 3.1393                 2.8609

                     94                     95                     96
                      A                      A                      A
 Frequencies --   1576.3815              1656.4417              1735.5840
 Red. masses --      4.9455                 1.3028                 4.9574
 Frc consts  --      7.2407                 2.1061                 8.7983
 IR Inten    --     26.6457               101.7963               157.6117

                     97                     98                     99
                      A                      A                      A
 Frequencies --   3029.8621              3035.9804              3042.0268
 Red. masses --      1.0618                 1.0651                 1.0603
 Frc consts  --      5.7432                 5.7841                 5.7808
 IR Inten    --     17.1783                23.0822                25.1939

                    100                    101                    102
                      A                      A                      A
 Frequencies --   3046.8509              3048.7371              3054.6133
 Red. masses --      1.0409                 1.0633                 1.0400
 Frc consts  --      5.6935                 5.8231                 5.7171
 IR Inten    --     13.6128                12.5334                 3.7938

                    103                    104                    105
                      A                      A                      A
 Frequencies --   3060.0222              3061.7094              3069.1621
 Red. masses --      1.0778                 1.0801                 1.0997
 Frc consts  --      5.9459                 5.9654                 6.1030
 IR Inten    --      3.9207                24.5886                33.5823

                    106                    107                    108
                      A                      A                      A
 Frequencies --   3078.5015              3083.3096              3084.5458
 Red. masses --      1.0967                 1.0946                 1.0883
 Frc consts  --      6.1236                 6.1311                 6.1007
 IR Inten    --     43.4635                66.3476                56.6635

                    109                    110                    111
                      A                      A                      A
 Frequencies --   3093.7623              3103.5692              3111.6116
 Red. masses --      1.0924                 1.0972                 1.1019
 Frc consts  --      6.1606                 6.2265                 6.2860
 IR Inten    --     32.8472                49.5271                49.0315

                    112                    113                    114
                      A                      A                      A
 Frequencies --   3117.3427              3123.5859              3140.6522
 Red. masses --      1.1018                 1.1006                 1.1019
 Frc consts  --      6.3087                 6.3266                 6.4036
 IR Inten    --     42.7867                34.3233                18.4823

                    115                    116                    117
                      A                      A                      A
 Frequencies --   3270.0710              3310.6226              3463.4291
 Red. masses --      1.0967                 1.0972                 1.0738
 Frc consts  --      6.9099                 7.0856                 7.5889
 IR Inten    --      0.5173                 0.3187                 2.2822

                    118                    119                    120
                      A                      A                      A
 Frequencies --   3526.5491              3630.3848              3716.6673
 Red. masses --      1.0475                 1.0972                 1.0657
 Frc consts  --      7.6751                 8.5199                 8.6731
 IR Inten    --     11.2559                 8.7083                14.6050

 - Thermochemistry -
 -------------------
 Temperature   298.150 Kelvin.  Pressure   1.00000 Atm.
 Atom     1 has atomic number  6 and mass  12.00000

 Molecular mass:   252.19501 amu.
 Principal axes and moments of inertia in atomic units:
                           1         2         3
     Eigenvalues --  2848.090489395.37475**********
           X            0.99988   0.01498   0.00352
           Y           -0.01502   0.99980   0.01353
           Z           -0.00332  -0.01358   0.99990
 This molecule is an asymmetric top.
 Rotational symmetry number  1.
 Warning -- assumption of classical behavior for rotation
           may cause significant error
 Rotational temperatures (Kelvin)      0.03041     0.00922     0.00819
 Rotational constants (GHZ):           0.63367     0.19209     0.17055
 Zero-point vibrational energy     982654.4 (Joules/Mol)
                                  234.86005 (Kcal/Mol)
 Warning -- explicit consideration of  30 degrees of freedom as
           vibrations may cause significant error
 Vibrational temperatures:     37.88    49.76    73.81    81.51    92.65
          (Kelvin)            119.43   130.54   145.75   177.92   203.31
                              255.44   300.99   320.56   374.46   396.03
                              408.25   440.96   466.64   495.76   531.86
                              539.34   572.55   598.64   625.78   649.68
                              718.99   741.93   801.00   828.68   865.46
                              943.13   983.54  1014.80  1026.38  1063.41
                             1077.55  1118.17  1152.91  1183.75  1205.41
                             1216.47  1236.33  1301.21  1317.97  1348.65
                             1396.88  1413.67  1427.24  1478.29  1506.21
                             1522.62  1537.66  1562.26  1576.49  1600.06
                             1617.80  1626.19  1654.88  1673.05  1690.59
                             1735.74  1754.96  1776.58  1802.20  1840.12
                             1866.12  1886.29  1895.53  1902.38  1935.12
                             1959.82  1975.73  1990.02  2005.93  2013.22
                             2022.39  2045.17  2049.88  2063.63  2078.71
                             2084.57  2102.34  2117.30  2172.96  2185.06
                             2190.85  2198.63  2202.11  2205.30  2207.48
                             2214.17  2216.56  2224.09  2268.06  2383.25
                             2497.12  4359.30  4368.10  4376.80  4383.74
                             4386.45  4394.91  4402.69  4405.12  4415.84
                             4429.28  4436.19  4437.97  4451.23  4465.34
                             4476.92  4485.16  4494.14  4518.70  4704.90
                             4763.25  4983.10  5073.92  5223.31  5347.46

 Zero-point correction=                           0.374273 (Hartree/Particle)
 Thermal correction to Energy=                    0.393827
 Thermal correction to Enthalpy=                  0.394772
 Thermal correction to Gibbs Free Energy=         0.325000
 Sum of electronic and zero-point Energies=           -803.763931
 Sum of electronic and thermal Energies=              -803.744377
 Sum of electronic and thermal Enthalpies=            -803.743433
 Sum of electronic and thermal Free Energies=         -803.813204

                     E (Thermal)             CV                S
                      KCal/Mol        Cal/Mol-Kelvin    Cal/Mol-Kelvin
 Total                  247.130             73.790            146.847
 Electronic               0.000              0.000              0.000
 Translational            0.889              2.981             42.475
 Rotational               0.889              2.981             34.003
 Vibrational            245.353             67.828             70.368
 Vibration     1          0.593              1.985              6.088
 Vibration     2          0.594              1.983              5.548
 Vibration     3          0.596              1.977              4.767
 Vibration     4          0.596              1.975              4.570
 Vibration     5          0.597              1.971              4.318
 Vibration     6          0.600              1.961              3.819
 Vibration     7          0.602              1.956              3.644
 Vibration     8          0.604              1.948              3.429
 Vibration     9          0.610              1.929              3.042
 Vibration    10          0.615              1.912              2.786
 Vibration    11          0.628              1.870              2.354
 Vibration    12          0.642              1.827              2.051
 Vibration    13          0.648              1.806              1.936
 Vibration    14          0.668              1.745              1.660
 Vibration    15          0.677              1.719              1.563
 Vibration    16          0.682              1.704              1.511
 Vibration    17          0.697              1.661              1.381
 Vibration    18          0.709              1.627              1.288
 Vibration    19          0.723              1.586              1.191
 Vibration    20          0.742              1.535              1.081
 Vibration    21          0.746              1.524              1.060
 Vibration    22          0.764              1.475              0.970
 Vibration    23          0.779              1.435              0.905
 Vibration    24          0.796              1.394              0.843
 Vibration    25          0.810              1.357              0.791
 Vibration    26          0.855              1.251              0.659
 Vibration    27          0.871              1.215              0.620
 Vibration    28          0.912              1.125              0.530
 Vibration    29          0.932              1.083              0.493
 Vibration    30          0.960              1.029              0.447

 Optimization completed.
    -- Stationary point found.
 Normal termination of Gaussian 16 at Fri Dec 11 22:25:28 2020.

 ----------------------------------------------------------------------
 # B3LYP/6-311++G(d,p) empiricaldispersion=gd3bj scf=xqc pop=npa geom=c
 heck
 ----------------------------------------------------------------------

 --------------------------------------
 CID_14888766_JID_8714_Energie_neutraal
 --------------------------------------
 Structure from the checkpoint file:  "JID_8714.chk"
 Charge =  0 Multiplicity = 1

 SCF Done:  E(RB3LYP) =  -804.380441121     A.U. after   15 cycles
 Normal termination of Gaussian 16 at Fri Dec 11 22:33:31 2020.

 ----------------------------------------------------------------------
 # B3LYP/6-311++G(d,p) empiricaldispersion=gd3bj scf=xqc pop=npa geom=c
 heck
 ----------------------------------------------------------------------

 ------------------------------------
 CID_14888766_JID_8714_Energie_kation
 ------------------------------------
 Structure from the checkpoint file:  "JID_8714.chk"
 Charge =  1 Multiplicity = 2

 SCF Done:  E(UB3LYP) =  -804.075764401     A.U. after   26 cycles
 Normal termination of Gaussian 16 at Fri Dec 11 22:52:16 2020.
 Gaussian 16:  ES64L-G16RevA.03 25-Dec-2016

 ----------------------------------------------------------------------
 # B3LYP/6-311++G(d,p) empiricaldispersion=gd3bj scf=xqc pop=npa geom=c
 heck
 ----------------------------------------------------------------------

 -----------------------------------
 CID_14888766_JID_8714_Energie_anion
 -----------------------------------
 Structure from the checkpoint file:  "JID_8714.chk"
 Charge = -1 Multiplicity = 2

                         Standard orientation:
 ---------------------------------------------------------------------
 Center     Atomic      Atomic             Coordinates (Angstroms)
 Number     Number       Type             X           Y           Z
 ---------------------------------------------------------------------
      1          6           0       -5.552482   -1.817896    0.250598
      2          6           0       -4.144185   -1.992012   -0.325463
      3          6           0       -3.615595   -0.752568   -1.063606
      4          6           0       -3.522999    0.523825   -0.211772
      5          6           0       -2.662007    0.396032    1.055085
      6          6           0       -1.219605   -0.080010    0.819710
      7          6           0       -0.424835    0.783874   -0.166406
      8          6           0       -0.285325    2.274905    0.230865
      9          6           0        0.412631    2.512839    1.567348
     10          8           0        0.345946    2.994795   -0.822242
     11          7           0        0.895959    0.202200   -0.430815
     12          6           0        1.770034   -0.382309    0.463717
     13          6           0        2.920675   -0.649817   -0.249690
     14          7           0        2.774420   -0.234157   -1.558216
     15          6           0        1.562103    0.268537   -1.631373
     16          6           0        4.180637   -1.254863    0.223820
     17          7           0        5.294235   -1.221751   -0.406705
     18          7           0        4.106313   -1.837876    1.492778
     19          1           0       -5.581870   -1.046061    1.027876
     20          1           0       -5.913252   -2.749870    0.699152
     21          1           0       -6.263778   -1.526060   -0.531815
     22          1           0       -3.452144   -2.269807    0.480878
     23          1           0       -4.142425   -2.837556   -1.025140
     24          1           0       -2.628977   -0.986675   -1.485890
     25          1           0       -4.267676   -0.546445   -1.923149
     26          1           0       -3.139594    1.338178   -0.840711
     27          1           0       -4.529933    0.837149    0.089420
     28          1           0       -2.653065    1.361010    1.577352
     29          1           0       -3.135439   -0.309888    1.748081
     30          1           0       -0.701724   -0.115384    1.784803
     31          1           0       -1.223786   -1.106554    0.435913
     32          1           0       -0.936031    0.779577   -1.133568
     33          1           0       -1.298196    2.687683    0.273799
     34          1           0        1.430061    2.104333    1.558043
     35          1           0        0.477309    3.588185    1.755209
     36          1           0       -0.130362    2.051113    2.398897
     37          1           0        1.281075    2.730602   -0.835641
     38          1           0        1.521736   -0.529596    1.501640
     39          1           0        1.095063    0.686239   -2.512753
     40          1           0        5.166636   -0.687647   -1.270192
     41          1           0        3.285586   -2.415805    1.637529
     42          1           0        4.962446   -2.337214    1.711907
 ---------------------------------------------------------------------

 SCF Done:  E(UB3LYP) =  -804.375460000     A.U. after   33 cycles
 SCF Done:  E(UB3LYP) =  -804.375460000     a.u. after    1 cycles

 The electronic state is 2-A.
 Alpha  occ. eigenvalues --  -19.05089 -14.29593 -14.22899 -14.22102 -14.18326
 Alpha  occ. eigenvalues --  -10.15354 -10.15110 -10.14766 -10.14302 -10.12318
 Alpha  occ. eigenvalues --  -10.11358 -10.09111 -10.08562 -10.08250 -10.07982
 Alpha  occ. eigenvalues --  -10.07867 -10.07704 -10.07002  -0.95972  -0.94166
 Alpha  occ. eigenvalues --   -0.85665  -0.81567  -0.75857  -0.73518  -0.70736
 Alpha  occ. eigenvalues --   -0.67785  -0.67331  -0.64180  -0.61003  -0.57378
 Alpha  occ. eigenvalues --   -0.55572  -0.54421  -0.51560  -0.49608  -0.48082
 Alpha  occ. eigenvalues --   -0.46349  -0.45838  -0.43569  -0.41929  -0.40310
 Alpha  occ. eigenvalues --   -0.38721  -0.38287  -0.37445  -0.36694  -0.36361
 Alpha  occ. eigenvalues --   -0.35373  -0.34811  -0.34009  -0.33386  -0.33119
 Alpha  occ. eigenvalues --   -0.31976  -0.31073  -0.30502  -0.29778  -0.28901
 Alpha  occ. eigenvalues --   -0.27930  -0.27565  -0.26722  -0.25964  -0.25224
 Alpha  occ. eigenvalues --   -0.23711  -0.23042  -0.22887  -0.21633  -0.20353
 Alpha  occ. eigenvalues --   -0.19287  -0.18097  -0.16675  -0.14960   0.03550
 Alpha virt. eigenvalues --    0.05588   0.05997   0.06510   0.06664   0.07540
 Alpha virt. eigenvalues --    0.07656   0.08355   0.08595   0.09092   0.09619
 Alpha virt. eigenvalues --    0.09810   0.10398   0.10555   0.10984   0.11140

  Beta  occ. eigenvalues --  -19.05085 -14.29581 -14.22867 -14.22105 -14.18308
  Beta  occ. eigenvalues --  -10.15344 -10.15099 -10.14757 -10.14299 -10.12283
  Beta  occ. eigenvalues --  -10.11353 -10.09085 -10.08538 -10.08224 -10.07968
  Beta  occ. eigenvalues --  -10.07853 -10.07684 -10.06971  -0.95958  -0.94149
  Beta  occ. eigenvalues --   -0.85630  -0.81551  -0.75812  -0.73484  -0.70706
  Beta  occ. eigenvalues --   -0.67744  -0.67292  -0.64143  -0.60958  -0.57324
  Beta  occ. eigenvalues --   -0.55530  -0.54383  -0.51500  -0.49551  -0.48036
  Beta  occ. eigenvalues --   -0.46294  -0.45793  -0.43537  -0.41890  -0.40280
  Beta  occ. eigenvalues --   -0.38684  -0.38253  -0.37407  -0.36656  -0.36325
  Beta  occ. eigenvalues --   -0.35335  -0.34778  -0.33978  -0.33364  -0.33080
  Beta  occ. eigenvalues --   -0.31933  -0.31040  -0.30476  -0.29748  -0.28861
  Beta  occ. eigenvalues --   -0.27882  -0.27517  -0.26687  -0.25923  -0.25199
  Beta  occ. eigenvalues --   -0.23683  -0.23007  -0.22845  -0.21606  -0.20350
  Beta  occ. eigenvalues --   -0.19254  -0.18058  -0.16611  -0.14871
  Beta virt. eigenvalues --    0.05678   0.06338   0.06459   0.06906   0.06999
  Beta virt. eigenvalues --    0.07752   0.07913   0.08552   0.09006   0.09334
  Beta virt. eigenvalues --    0.09936   0.10113   0.10638   0.10863   0.11093

 Mulliken charges and spin densities:
               1          2
     1  C    0.743321  -1.372175
     2  C   -0.424995   0.189821
     3  C    0.123702  -0.280574
     4  C    0.083034  -0.262658
     5  C    0.146676  -0.714518
     6  C   -0.422378   0.214808
     7  C   -0.098858  -0.495618
     8  C   -0.501223   0.109588
     9  C    0.477719  -0.972494
    10  O   -0.152575  -0.003043
    11  N    0.309352   0.028440
    12  C   -0.613448   0.290382
    13  C    0.712053  -0.575262
    14  N   -0.134173   0.039221
    15  C    0.256062  -0.020365
    16  C   -0.172648  -0.401945
    17  N   -0.339032  -0.012807
    18  N   -0.295480  -0.026873
    19  H   -0.043451   0.180787
    20  H   -0.158723   0.297804
    21  H   -0.092960   0.224730
    22  H   -0.154688   0.290525
    23  H   -0.080515   0.225318
    24  H   -0.104483   0.248624
    25  H   -0.092450   0.256231
    26  H   -0.094319   0.219568
    27  H   -0.152201   0.349324
    28  H   -0.096875   0.257186
    29  H   -0.384556   0.592113
    30  H   -0.276472   0.438487
    31  H    0.053232   0.187839
    32  H    0.369886  -0.041485
    33  H   -0.011119   0.257578
    34  H    0.115310   0.071979
    35  H    0.018549   0.155921
    36  H   -0.087745   0.243058
    37  H    0.242135   0.011235
    38  H   -0.050559   0.246576
    39  H    0.090702   0.102388
    40  H    0.225417  -0.003400
    41  H   -0.145608   0.376143
    42  H    0.214386   0.077543
 Sum of Mulliken charges =  -1.00000   1.00000

 Dipole moment (field-independent basis, Debye):
    X=              0.9539    Y=              3.2603    Z=             -2.5818  Tot=              4.2667
 Quadrupole moment (field-independent basis, Debye-Ang):
   XX=           -225.9767   YY=           -159.3467   ZZ=           -154.2491
   XY=              2.7389   XZ=              7.3577   YZ=              1.1651

 Summary of Natural Population Analysis:

                                       Natural Population
                Natural  -----------------------------------------------
    Atom  No    Charge         Core      Valence    Rydberg      Total
 -----------------------------------------------------------------------
      C    1   -0.28569      0.99967     2.28169    0.00433     3.28569
      C    2   -0.19149      0.99964     2.18505    0.00680     3.19149
      C    3   -0.18918      0.99962     2.18221    0.00735     3.18918
      C    4   -0.19416      0.99962     2.18567    0.00887     3.19416
      C    5   -0.19258      0.99962     2.18315    0.00980     3.19258
      C    6   -0.19946      0.99961     2.18876    0.01109     3.19946
      C    7   -0.01114      0.99955     1.99812    0.01347     3.01114
      C    8    0.05817      0.99954     1.92828    0.01401     2.94183
      C    9   -0.30431      0.99964     2.29869    0.00599     3.30431
      O   10   -0.36860      0.99990     3.36244    0.00626     4.36860
      N   11   -0.20685      0.99965     2.69506    0.01214     3.70685
      C   12   -0.01235      0.99950     2.00077    0.01208     3.01235
      C   13    0.00869      0.99949     1.97681    0.01501     2.99131
      N   14   -0.25113      0.99970     2.74215    0.00928     3.75113
      C   15    0.10495      0.99963     1.87960    0.01582     2.89505
      C   16    0.20798      0.99962     1.77479    0.01762     2.79202
      N   17   -0.35379      0.99972     2.84665    0.00742     3.85379
      N   18   -0.40447      0.99972     2.89480    0.00994     3.90447
      H   19    0.09711      0.00000     0.40167    0.00122     0.40289
      H   20    0.09922      0.00000     0.39968    0.00111     0.40078
      H   21    0.09423      0.00000     0.40452    0.00125     0.40577
      H   22    0.09533      0.00000     0.40305    0.00162     0.40467
      H   23    0.09540      0.00000     0.40337    0.00124     0.40460
      H   24    0.09418      0.00000     0.40441    0.00141     0.40582
      H   25    0.09608      0.00000     0.40280    0.00112     0.40392
      H   26    0.09428      0.00000     0.40447    0.00125     0.40572
      H   27    0.10071      0.00000     0.39811    0.00117     0.39929
      H   28    0.09868      0.00000     0.39977    0.00155     0.40132
      H   29    0.10432      0.00000     0.39416    0.00153     0.39568
      H   30    0.10519      0.00000     0.39252    0.00229     0.39481
      H   31    0.10558      0.00000     0.39285    0.00157     0.39442
      H   32    0.10639      0.00000     0.39156    0.00205     0.39361
      H   33    0.09500      0.00000     0.40359    0.00142     0.40500
      H   34    0.10066      0.00000     0.39834    0.00099     0.39934
      H   35    0.10591      0.00000     0.39333    0.00076     0.39409
      H   36    0.10780      0.00000     0.39107    0.00113     0.39220
      H   37    0.22806      0.00000     0.26920    0.00274     0.27194
      H   38    0.11510      0.00000     0.38326    0.00164     0.38490
      H   39    0.09864      0.00000     0.40024    0.00113     0.40136
      H   40    0.17182      0.00000     0.32612    0.00205     0.32818
      H   41    0.18823      0.00000     0.30879    0.00297     0.31177
      H   42    0.18750      0.00000     0.31064    0.00186     0.31250
 =======================================================================
   * Total *    0.00000     17.99343    50.78222    0.22435    69.00000

 Normal termination of Gaussian 16 at Fri Dec 11 23:16:22 2020.
