 Gaussian 16, Revision A.03,

 -----------------------------------------------------------
 # opt freq B3LYP/6-31G(d) empiricaldispersion=gd3bj scf=xqc
 -----------------------------------------------------------

 ------------------------------
 CID_64826808_JID_5799_neutraal
 ------------------------------
 Symbolic Z-matrix:
 Charge =  0 Multiplicity = 1

 SCF Done:  E(RB3LYP) =  -657.699221493     A.U. after   13 cycles
 SCF Done:  E(RB3LYP) =  -657.698166221     A.U. after   11 cycles
 SCF Done:  E(RB3LYP) =  -657.703196376     A.U. after   11 cycles
 SCF Done:  E(RB3LYP) =  -657.704050623     A.U. after   10 cycles
 SCF Done:  E(RB3LYP) =  -657.704090828     A.U. after   10 cycles
 SCF Done:  E(RB3LYP) =  -657.704200229     A.U. after   10 cycles
 SCF Done:  E(RB3LYP) =  -657.704220552     A.U. after    9 cycles
 SCF Done:  E(RB3LYP) =  -657.704240988     A.U. after    9 cycles
 SCF Done:  E(RB3LYP) =  -657.704253230     A.U. after    9 cycles
 SCF Done:  E(RB3LYP) =  -657.704261142     A.U. after    9 cycles
 SCF Done:  E(RB3LYP) =  -657.704268879     A.U. after    9 cycles
 SCF Done:  E(RB3LYP) =  -657.704273738     A.U. after    9 cycles
 SCF Done:  E(RB3LYP) =  -657.704275518     A.U. after    9 cycles
 SCF Done:  E(RB3LYP) =  -657.704276245     A.U. after    7 cycles
 SCF Done:  E(RB3LYP) =  -657.704276596     A.U. after    7 cycles
 SCF Done:  E(RB3LYP) =  -657.704276626     A.U. after    6 cycles
 Optimization completed.
    -- Stationary point found.
 Normal termination of Gaussian 16 at Thu Dec 10 17:35:52 2020.

 --------------------------------------------------------------------
 #N Geom=AllCheck Guess=TCheck SCRF=Check GenChk RB3LYP/6-31G(d) Freq
 --------------------------------------------------------------------

 Structure from the checkpoint file:  "JID_5799.chk"
 ------------------------------
 CID_64826808_JID_5799_neutraal
 ------------------------------
 Charge =  0 Multiplicity = 1

 SCF Done:  E(RB3LYP) =  -657.704276626     A.U. after    1 cycles

  Exact polarizability: 158.709   0.449 142.104  -1.352   0.999 123.946
 Approx polarizability: 198.186   6.083 197.219  -1.844   2.176 189.736

                      1                      2                      3
                      A                      A                      A
 Frequencies --     22.9363                45.8137                59.4967
 Red. masses --      4.2081                 3.3928                 3.4650
 Frc consts  --      0.0013                 0.0042                 0.0072
 IR Inten    --      0.6818                 0.0019                 0.1442

                      4                      5                      6
                      A                      A                      A
 Frequencies --     72.3733               108.2358               151.9287
 Red. masses --      2.2849                 3.1627                 2.9784
 Frc consts  --      0.0071                 0.0218                 0.0405
 IR Inten    --      0.0850                 0.6978                 0.2522

                      7                      8                      9
                      A                      A                      A
 Frequencies --    159.3091               191.5503               208.1301
 Red. masses --      2.7874                 2.4375                 2.2602
 Frc consts  --      0.0417                 0.0527                 0.0577
 IR Inten    --      0.9365                 2.5563                 0.9178

                     10                     11                     12
                      A                      A                      A
 Frequencies --    221.2436               222.3395               244.8800
 Red. masses --      2.1856                 2.0486                 1.1887
 Frc consts  --      0.0630                 0.0597                 0.0420
 IR Inten    --      1.1271                 1.8193                 0.2834

                     13                     14                     15
                      A                      A                      A
 Frequencies --    252.8581               267.1124               276.3880
 Red. masses --      1.5489                 2.2905                 1.5815
 Frc consts  --      0.0583                 0.0963                 0.0712
 IR Inten    --     13.5784                37.8136                39.1527

                     16                     17                     18
                      A                      A                      A
 Frequencies --    309.3976               313.8299               362.9997
 Red. masses --      1.9083                 1.1887                 2.6389
 Frc consts  --      0.1076                 0.0690                 0.2049
 IR Inten    --      0.9001                85.3845                 2.4123

                     19                     20                     21
                      A                      A                      A
 Frequencies --    386.4768               397.7233               412.2128
 Red. masses --      2.5267                 2.2481                 2.0656
 Frc consts  --      0.2224                 0.2095                 0.2068
 IR Inten    --      0.5654                 2.4376                 8.3996

                     22                     23                     24
                      A                      A                      A
 Frequencies --    421.1267               451.8914               483.7558
 Red. masses --      2.3510                 2.1099                 2.8405
 Frc consts  --      0.2457                 0.2538                 0.3916
 IR Inten    --      5.3949                 3.4529                 1.6047

                     25                     26                     27
                      A                      A                      A
 Frequencies --    513.6217               534.2207               636.5914
 Red. masses --      2.4375                 3.0043                 2.5791
 Frc consts  --      0.3789                 0.5052                 0.6158
 IR Inten    --      2.6984                 1.6900                 2.2016

                     28                     29                     30
                      A                      A                      A
 Frequencies --    645.0807               755.7939               800.0369
 Red. masses --      2.4421                 1.7896                 1.6382
 Frc consts  --      0.5987                 0.6023                 0.6178
 IR Inten    --      0.5845                 1.8363                 0.7779

                     31                     32                     33
                      A                      A                      A
 Frequencies --    808.0518               815.9070               840.1152
 Red. masses --      1.8934                 3.2350                 1.6114
 Frc consts  --      0.7284                 1.2688                 0.6701
 IR Inten    --      1.1093                 4.3801                 0.4093

                     34                     35                     36
                      A                      A                      A
 Frequencies --    887.3057               916.4690               918.6292
 Red. masses --      2.8354                 1.8948                 2.0033
 Frc consts  --      1.3152                 0.9377                 0.9961
 IR Inten    --      8.1960                15.6980                10.1525

                     37                     38                     39
                      A                      A                      A
 Frequencies --    926.3448               929.4955               956.6880
 Red. masses --      1.9804                 2.0609                 1.3964
 Frc consts  --      1.0013                 1.0491                 0.7530
 IR Inten    --     68.8916                31.1295                 1.2675

                     40                     41                     42
                      A                      A                      A
 Frequencies --    999.0993              1002.8886              1018.4335
 Red. masses --      2.0106                 2.0640                 1.8208
 Frc consts  --      1.1825                 1.2231                 1.1127
 IR Inten    --     97.4532                16.2773                17.5274

                     43                     44                     45
                      A                      A                      A
 Frequencies --   1031.5576              1043.8660              1067.2032
 Red. masses --      1.9924                 1.7269                 2.0660
 Frc consts  --      1.2491                 1.1087                 1.3863
 IR Inten    --      7.2700                 9.2299                 0.2285

                     46                     47                     48
                      A                      A                      A
 Frequencies --   1079.9922              1091.7303              1099.7321
 Red. masses --      1.7545                 1.8552                 2.8193
 Frc consts  --      1.2057                 1.3028                 2.0090
 IR Inten    --      9.9073                 6.7790                39.4769

                     49                     50                     51
                      A                      A                      A
 Frequencies --   1109.7961              1116.0655              1122.2981
 Red. masses --      1.6912                 1.3812                 1.5640
 Frc consts  --      1.2273                 1.0137                 1.1607
 IR Inten    --      6.0205                17.5115                31.3508

                     52                     53                     54
                      A                      A                      A
 Frequencies --   1155.2292              1170.6007              1184.1149
 Red. masses --      1.5839                 1.5891                 1.7892
 Frc consts  --      1.2454                 1.2830                 1.4780
 IR Inten    --     47.3674                 8.6530                12.2594

                     55                     56                     57
                      A                      A                      A
 Frequencies --   1193.9888              1213.0183              1224.7069
 Red. masses --      1.5100                 1.4960                 1.5559
 Frc consts  --      1.2684                 1.2969                 1.3750
 IR Inten    --      1.6717                 4.4145                 6.7318

                     58                     59                     60
                      A                      A                      A
 Frequencies --   1246.5414              1262.2945              1290.1302
 Red. masses --      1.4937                 1.4242                 1.5314
 Frc consts  --      1.3675                 1.3371                 1.5017
 IR Inten    --      0.1205                13.2634                 6.3408

                     61                     62                     63
                      A                      A                      A
 Frequencies --   1306.6703              1313.6575              1334.7849
 Red. masses --      1.2414                 1.3413                 1.3834
 Frc consts  --      1.2488                 1.3637                 1.4522
 IR Inten    --      7.9168                13.5907                 3.0924

                     64                     65                     66
                      A                      A                      A
 Frequencies --   1342.2660              1354.3191              1375.9113
 Red. masses --      1.7796                 1.3731                 1.4292
 Frc consts  --      1.8891                 1.4839                 1.5941
 IR Inten    --      3.6112                 0.8280                13.4861

                     67                     68                     69
                      A                      A                      A
 Frequencies --   1382.4734              1390.3615              1393.4774
 Red. masses --      1.3978                 1.3042                 1.3931
 Frc consts  --      1.5740                 1.4855                 1.5938
 IR Inten    --      1.1269                 1.7291                 1.0078

                     70                     71                     72
                      A                      A                      A
 Frequencies --   1399.6425              1402.9594              1406.5578
 Red. masses --      1.4699                 1.4667                 1.3001
 Frc consts  --      1.6966                 1.7009                 1.5154
 IR Inten    --     13.2940                 2.8315                13.7521

                     73                     74                     75
                      A                      A                      A
 Frequencies --   1414.8562              1419.5895              1424.5279
 Red. masses --      1.3151                 1.3352                 1.4422
 Frc consts  --      1.5511                 1.5853                 1.7243
 IR Inten    --     36.5441                21.7102                 1.9317

                     76                     77                     78
                      A                      A                      A
 Frequencies --   1437.7949              1441.9709              1442.5083
 Red. masses --      1.3981                 1.2880                 1.2616
 Frc consts  --      1.7028                 1.5780                 1.5467
 IR Inten    --     15.2718                 4.3451                 5.5842

                     79                     80                     81
                      A                      A                      A
 Frequencies --   1483.3534              1509.2563              1514.4112
 Red. masses --      1.1339                 1.0798                 1.0827
 Frc consts  --      1.4699                 1.4492                 1.4630
 IR Inten    --      4.1193                 1.9120                 6.7874

                     82                     83                     84
                      A                      A                      A
 Frequencies --   1517.0390              1519.4988              1522.5096
 Red. masses --      1.0792                 1.0841                 1.0859
 Frc consts  --      1.4633                 1.4748                 1.4830
 IR Inten    --      6.7381                 1.3947                 2.3539

                     85                     86                     87
                      A                      A                      A
 Frequencies --   1525.4962              1527.4970              1534.0668
 Red. masses --      1.0779                 1.0760                 1.0750
 Frc consts  --      1.4779                 1.4792                 1.4905
 IR Inten    --     12.7861                 0.4985                 4.9134

                     88                     89                     90
                      A                      A                      A
 Frequencies --   1537.6032              1546.1770              1552.9021
 Red. masses --      1.0679                 1.0834                 1.0576
 Frc consts  --      1.4876                 1.5260                 1.5027
 IR Inten    --      4.6256                 1.5673                 8.1607

                     91                     92                     93
                      A                      A                      A
 Frequencies --   1705.7503              2952.0270              2958.4752
 Red. masses --      1.0859                 1.0711                 1.0719
 Frc consts  --      1.8615                 5.4993                 5.5277
 IR Inten    --     24.0872                67.9259                39.4997

                     94                     95                     96
                      A                      A                      A
 Frequencies --   3010.9653              3027.0781              3035.4342
 Red. masses --      1.0795                 1.0660                 1.0652
 Frc consts  --      5.7659                 5.7552                 5.7825
 IR Inten    --     15.4242                36.9387                26.0472

                     97                     98                     99
                      A                      A                      A
 Frequencies --   3041.4723              3042.9443              3046.7159
 Red. masses --      1.0627                 1.0629                 1.0419
 Frc consts  --      5.7918                 5.7987                 5.6982
 IR Inten    --     41.9068                14.7168                35.6718

                    100                    101                    102
                      A                      A                      A
 Frequencies --   3047.6506              3052.5025              3054.3085
 Red. masses --      1.0681                 1.0674                 1.0645
 Frc consts  --      5.8453                 5.8597                 5.8510
 IR Inten    --     32.8644                55.0248                20.8258

                    103                    104                    105
                      A                      A                      A
 Frequencies --   3058.3946              3063.6230              3071.1412
 Red. masses --      1.0760                 1.0806                 1.0816
 Frc consts  --      5.9300                 5.9757                 6.0107
 IR Inten    --     36.9165                23.1385                76.8277

                    106                    107                    108
                      A                      A                      A
 Frequencies --   3074.5516              3085.4982              3087.0585
 Red. masses --      1.0936                 1.0942                 1.1026
 Frc consts  --      6.0906                 6.1378                 6.1909
 IR Inten    --     39.5234                55.1358                18.2999

                    109                    110                    111
                      A                      A                      A
 Frequencies --   3090.1620              3094.5964              3100.9772
 Red. masses --      1.1028                 1.1061                 1.1031
 Frc consts  --      6.2047                 6.2411                 6.2495
 IR Inten    --     74.8402                68.2522                49.5076

                    112                    113                    114
                      A                      A                      A
 Frequencies --   3110.7273              3114.6570              3117.9268
 Red. masses --      1.0999                 1.0981                 1.1016
 Frc consts  --      6.2707                 6.2765                 6.3099
 IR Inten    --     29.6959                52.6642                40.2342

                    115                    116                    117
                      A                      A                      A
 Frequencies --   3438.6633              3519.8572              3749.4833
 Red. masses --      1.0497                 1.0908                 1.0657
 Frc consts  --      7.3129                 7.9624                 8.8274
 IR Inten    --      3.0427                 1.4783                10.8499

 - Thermochemistry -
 -------------------
 Temperature   298.150 Kelvin.  Pressure   1.00000 Atm.
 Atom     1 has atomic number  6 and mass  12.00000

 Molecular mass:   214.20451 amu.
 Principal axes and moments of inertia in atomic units:
                           1         2         3
     Eigenvalues --  2312.590794483.030855797.45905
           X            0.99974  -0.02243  -0.00379
           Y            0.02245   0.99972   0.00701
           Z            0.00363  -0.00709   0.99997
 This molecule is an asymmetric top.
 Rotational symmetry number  1.
 Warning -- assumption of classical behavior for rotation
           may cause significant error
 Rotational temperatures (Kelvin)      0.03745     0.01932     0.01494
 Rotational constants (GHZ):           0.78040     0.40257     0.31130
 Zero-point vibrational energy    1002939.7 (Joules/Mol)
                                  239.70835 (Kcal/Mol)
 Warning -- explicit consideration of  26 degrees of freedom as
           vibrations may cause significant error
 Vibrational temperatures:     33.00    65.92    85.60   104.13   155.73
          (Kelvin)            218.59   229.21   275.60   299.45   318.32
                              319.90   352.33   363.81   384.32   397.66
                              445.15   451.53   522.28   556.05   572.24
                              593.08   605.91   650.17   696.02   738.99
                              768.62   915.91   928.13  1087.42  1151.07
                             1162.61  1173.91  1208.74  1276.63  1318.59
                             1321.70  1332.80  1337.34  1376.46  1437.48
                             1442.93  1465.30  1484.18  1501.89  1535.47
                             1553.87  1570.76  1582.27  1596.75  1605.77
                             1614.74  1662.12  1684.23  1703.68  1717.88
                             1745.26  1762.08  1793.50  1816.16  1856.21
                             1880.01  1890.06  1920.46  1931.22  1948.56
                             1979.63  1989.07  2000.42  2004.90  2013.77
                             2018.55  2023.72  2035.66  2042.47  2049.58
                             2068.67  2074.67  2075.45  2134.21  2171.48
                             2178.90  2182.68  2186.22  2190.55  2194.85
                             2197.73  2207.18  2212.27  2224.60  2234.28
                             2454.19  4247.31  4256.59  4332.11  4355.29
                             4367.31  4376.00  4378.12  4383.54  4384.89
                             4391.87  4394.47  4400.35  4407.87  4418.69
                             4423.59  4439.34  4441.59  4446.05  4452.43
                             4461.61  4475.64  4481.30  4486.00  4947.47
                             5064.29  5394.67

 Zero-point correction=                           0.382000 (Hartree/Particle)
 Thermal correction to Energy=                    0.399172
 Thermal correction to Enthalpy=                  0.400116
 Thermal correction to Gibbs Free Energy=         0.337278
 Sum of electronic and zero-point Energies=           -657.322277
 Sum of electronic and thermal Energies=              -657.305104
 Sum of electronic and thermal Enthalpies=            -657.304160
 Sum of electronic and thermal Free Energies=         -657.366999

                     E (Thermal)             CV                S
                      KCal/Mol        Cal/Mol-Kelvin    Cal/Mol-Kelvin
 Total                  250.484             65.947            132.255
 Electronic               0.000              0.000              0.000
 Translational            0.889              2.981             41.989
 Rotational               0.889              2.981             32.463
 Vibrational            248.707             59.986             57.803
 Vibration     1          0.593              1.985              6.362
 Vibration     2          0.595              1.979              4.990
 Vibration     3          0.597              1.974              4.474
 Vibration     4          0.598              1.967              4.088
 Vibration     5          0.606              1.943              3.300
 Vibration     6          0.619              1.901              2.648
 Vibration     7          0.621              1.892              2.558
 Vibration     8          0.634              1.852              2.213
 Vibration     9          0.641              1.828              2.060
 Vibration    10          0.648              1.809              1.949
 Vibration    11          0.648              1.807              1.940
 Vibration    12          0.660              1.771              1.767
 Vibration    13          0.664              1.758              1.711
 Vibration    14          0.672              1.733              1.615
 Vibration    15          0.678              1.717              1.556
 Vibration    16          0.699              1.656              1.366
 Vibration    17          0.702              1.647              1.342
 Vibration    18          0.737              1.548              1.109
 Vibration    19          0.755              1.499              1.014
 Vibration    20          0.764              1.475              0.971
 Vibration    21          0.776              1.444              0.919
 Vibration    22          0.784              1.424              0.888
 Vibration    23          0.811              1.357              0.790
 Vibration    24          0.840              1.286              0.700
 Vibration    25          0.869              1.220              0.625
 Vibration    26          0.889              1.174              0.578

                           ! Non-Optimized Parameters !
 Normal termination of Gaussian 16 at Thu Dec 10 17:52:51 2020.

 ----------------------------------------------------------------------
 # B3LYP/6-311++G(d,p) empiricaldispersion=gd3bj scf=xqc pop=npa geom=c
 heck
 ----------------------------------------------------------------------

 --------------------------------------
 CID_64826808_JID_5799_Energie_neutraal
 --------------------------------------
 Structure from the checkpoint file:  "JID_5799.chk"
 Charge =  0 Multiplicity = 1

 SCF Done:  E(RB3LYP) =  -657.904388135     A.U. after   14 cycles
 Normal termination of Gaussian 16 at Thu Dec 10 18:00:30 2020.

 ----------------------------------------------------------------------
 # B3LYP/6-311++G(d,p) empiricaldispersion=gd3bj scf=xqc pop=npa geom=c
 heck
 ----------------------------------------------------------------------

 ------------------------------------
 CID_64826808_JID_5799_Energie_kation
 ------------------------------------
 Structure from the checkpoint file:  "JID_5799.chk"
 Charge =  1 Multiplicity = 2

 SCF Done:  E(UB3LYP) =  -657.634501168     A.U. after   21 cycles
 Normal termination of Gaussian 16 at Thu Dec 10 18:14:41 2020.
 Gaussian 16:  ES64L-G16RevA.03 25-Dec-2016

 ----------------------------------------------------------------------
 # B3LYP/6-311++G(d,p) empiricaldispersion=gd3bj scf=xqc pop=npa geom=c
 heck
 ----------------------------------------------------------------------

 -----------------------------------
 CID_64826808_JID_5799_Energie_anion
 -----------------------------------
 Structure from the checkpoint file:  "JID_5799.chk"
 Charge = -1 Multiplicity = 2

                         Standard orientation:
 ---------------------------------------------------------------------
 Center     Atomic      Atomic             Coordinates (Angstroms)
 Number     Number       Type             X           Y           Z
 ---------------------------------------------------------------------
      1          6           0       -3.509595    2.111318    0.103553
      2          6           0       -2.734473    1.059947   -0.695258
      3          6           0       -2.853768   -0.371853   -0.137894
      4          6           0       -2.189537   -1.406995   -1.065871
      5          6           0       -0.655426   -1.323781   -1.052596
      6          6           0       -0.102154   -1.458787    0.384957
      7          6           0       -0.747087   -0.419831    1.310573
      8          6           0       -2.277941   -0.529273    1.283102
      9          7           0        1.353129   -1.508807    0.517230
     10          6           0        1.996794   -2.552722   -0.251034
     11          6           0        2.175407   -0.335003    0.747271
     12          6           0        2.556902    0.588353   -0.444861
     13          6           0        1.516428    1.681639   -0.740016
     14          8           0        1.381010    2.606951    0.339446
     15          7           0        3.880462    1.166811   -0.155543
     16          1           0       -4.565197    1.830681    0.205323
     17          1           0       -3.468902    3.087958   -0.390845
     18          1           0       -3.102704    2.239336    1.112605
     19          1           0       -3.103187    1.051868   -1.730040
     20          1           0       -1.682472    1.363943   -0.757316
     21          1           0       -3.927950   -0.603542   -0.089739
     22          1           0       -2.488529   -2.413434   -0.739653
     23          1           0       -2.563821   -1.288724   -2.090817
     24          1           0       -0.324453   -0.380412   -1.498725
     25          1           0       -0.242889   -2.120862   -1.681655
     26          1           0       -0.456105   -2.441845    0.742590
     27          1           0       -0.460324    0.594101    1.003700
     28          1           0       -0.373453   -0.561490    2.331438
     29          1           0       -2.716276    0.209031    1.963746
     30          1           0       -2.568156   -1.515197    1.671144
     31          1           0        2.100566   -2.344844   -1.331592
     32          1           0        3.003749   -2.728245    0.145661
     33          1           0        1.425465   -3.484081   -0.151073
     34          1           0        1.725919    0.265220    1.546999
     35          1           0        3.130651   -0.692219    1.148838
     36          1           0        2.658597   -0.036984   -1.341223
     37          1           0        1.852437    2.282349   -1.592659
     38          1           0        0.543273    1.253383   -1.008176
     39          1           0        0.914945    2.153921    1.058748
     40          1           0        4.208699    1.670991   -0.980049
     41          1           0        3.743614    1.889404    0.553846
 ---------------------------------------------------------------------

 SCF Done:  E(UB3LYP) =  -657.891550946     A.U. after   29 cycles

 The electronic state is 2-A.
 Alpha  occ. eigenvalues --  -19.03526 -14.20248 -14.19812 -10.12042 -10.10124
 Alpha  occ. eigenvalues --  -10.10115 -10.09540 -10.09005 -10.07219 -10.07109
 Alpha  occ. eigenvalues --  -10.06717 -10.06671 -10.06515 -10.06253 -10.06246
 Alpha  occ. eigenvalues --   -0.93525  -0.82732  -0.79030  -0.73790  -0.67701
 Alpha  occ. eigenvalues --   -0.64942  -0.64272  -0.62361  -0.60161  -0.55864
 Alpha  occ. eigenvalues --   -0.52586  -0.51589  -0.50228  -0.46653  -0.44185
 Alpha  occ. eigenvalues --   -0.41975  -0.41091  -0.39122  -0.37548  -0.37018
 Alpha  occ. eigenvalues --   -0.36278  -0.35407  -0.34390  -0.34000  -0.33145
 Alpha  occ. eigenvalues --   -0.32859  -0.31060  -0.30825  -0.29742  -0.28707
 Alpha  occ. eigenvalues --   -0.27995  -0.27261  -0.26904  -0.26208  -0.25517
 Alpha  occ. eigenvalues --   -0.25385  -0.24369  -0.23504  -0.23458  -0.21452
 Alpha  occ. eigenvalues --   -0.21062  -0.20191  -0.19946  -0.15357  -0.10406
 Alpha  occ. eigenvalues --    0.04189
 Alpha virt. eigenvalues --    0.06168   0.06502   0.06913   0.07899   0.08432
 Alpha virt. eigenvalues --    0.08756   0.09134   0.09390   0.10569   0.11058
 Alpha virt. eigenvalues --    0.11142   0.11210   0.11472   0.12327   0.12758

  Beta  occ. eigenvalues --  -19.03507 -14.20242 -14.19791 -10.12028 -10.10116
  Beta  occ. eigenvalues --  -10.10108 -10.09526 -10.08982 -10.07212 -10.07092
  Beta  occ. eigenvalues --  -10.06702 -10.06652 -10.06498 -10.06244 -10.06219
  Beta  occ. eigenvalues --   -0.93485  -0.82712  -0.78994  -0.73762  -0.67674
  Beta  occ. eigenvalues --   -0.64908  -0.64234  -0.62324  -0.60119  -0.55824
  Beta  occ. eigenvalues --   -0.52525  -0.51541  -0.50188  -0.46617  -0.44141
  Beta  occ. eigenvalues --   -0.41947  -0.41050  -0.39075  -0.37519  -0.36993
  Beta  occ. eigenvalues --   -0.36256  -0.35381  -0.34353  -0.33970  -0.33115
  Beta  occ. eigenvalues --   -0.32831  -0.31029  -0.30796  -0.29713  -0.28671
  Beta  occ. eigenvalues --   -0.27966  -0.27226  -0.26881  -0.26173  -0.25490
  Beta  occ. eigenvalues --   -0.25356  -0.24342  -0.23473  -0.23434  -0.21423
  Beta  occ. eigenvalues --   -0.21028  -0.20160  -0.19918  -0.15336  -0.10386
  Beta virt. eigenvalues --    0.06171   0.06921   0.07128   0.07452   0.08348
  Beta virt. eigenvalues --    0.08821   0.09109   0.09503   0.09730   0.10839
  Beta virt. eigenvalues --    0.11381   0.11451   0.11473   0.11705   0.12620

 Mulliken charges and spin densities:
               1          2
     1  C    0.733307  -1.362031
     2  C   -0.382311   0.088951
     3  C    0.167637   0.485489
     4  C    0.347009  -1.260793
     5  C   -0.350647   0.579484
     6  C   -0.999651  -0.005430
     7  C    0.107580   0.112030
     8  C    0.568487  -1.443775
     9  N    0.203012   0.102940
    10  C    0.393962  -0.654046
    11  C   -0.309113  -0.110303
    12  C    0.247324  -0.681067
    13  C   -0.224331  -0.066955
    14  O   -0.166883  -0.038169
    15  N   -0.305923   0.113813
    16  H   -0.118746   0.254326
    17  H   -0.048921   0.183162
    18  H   -0.162051   0.298127
    19  H   -0.143356   0.304572
    20  H    0.004722   0.133888
    21  H   -0.108773   0.324372
    22  H   -0.172880   0.323227
    23  H   -0.190480   0.362872
    24  H   -0.072677   0.250397
    25  H   -0.074829   0.254479
    26  H    0.148488   0.026926
    27  H    0.304744  -0.334448
    28  H   -0.002737   0.209553
    29  H   -0.171237   0.348885
    30  H   -0.137200   0.286123
    31  H   -0.130823   0.255246
    32  H    0.008302   0.120208
    33  H   -0.211164   0.355301
    34  H   -0.159428   0.286326
    35  H    0.083416   0.104747
    36  H    0.101383   0.083525
    37  H   -0.351240   0.553235
    38  H    0.293028  -0.315300
    39  H    0.094069   0.187908
    40  H   -0.010538   0.231297
    41  H    0.199466   0.050910
 Sum of Mulliken charges =  -1.00000   1.00000

 Dipole moment (field-independent basis, Debye):
    X=              1.2803    Y=             -0.0253    Z=              0.6685  Tot=              1.4446
 Quadrupole moment (field-independent basis, Debye-Ang):
   XX=           -173.6398   YY=           -150.7828   ZZ=           -136.5731
   XY=             -0.6441   XZ=              1.4954   YZ=             -1.8216

 Summary of Natural Population Analysis:

                                       Natural Population
                Natural  -----------------------------------------------
    Atom  No    Charge         Core      Valence    Rydberg      Total
 -----------------------------------------------------------------------
      C    1   -0.28248      0.99967     2.27863    0.00418     3.28248
      C    2   -0.19220      0.99961     2.18376    0.00882     3.19220
      C    3   -0.10857      0.99959     2.09790    0.01108     3.10857
      C    4   -0.18638      0.99961     2.17694    0.00982     3.18638
      C    5   -0.19959      0.99960     2.19134    0.00866     3.19959
      C    6    0.00492      0.99956     1.98269    0.01283     2.99508
      C    7   -0.19622      0.99960     2.18685    0.00977     3.19622
      C    8   -0.18731      0.99961     2.17810    0.00960     3.18731
      N    9   -0.28358      0.99971     2.77007    0.01380     3.78358
      C   10   -0.17579      0.99964     2.16757    0.00857     3.17579
      C   11   -0.08451      0.99957     2.07284    0.01210     3.08451
      C   12   -0.03990      0.99960     2.02884    0.01147     3.03990
      C   13   -0.01941      0.99956     2.00667    0.01319     3.01941
      O   14   -0.37252      0.99990     3.36584    0.00678     4.37252
      N   15   -0.42398      0.99978     2.91375    0.01045     3.92398
      H   16    0.09543      0.00000     0.40336    0.00121     0.40457
      H   17    0.09843      0.00000     0.40071    0.00086     0.40157
      H   18    0.09638      0.00000     0.40239    0.00123     0.40362
      H   19    0.09608      0.00000     0.40272    0.00119     0.40392
      H   20    0.09335      0.00000     0.40476    0.00189     0.40665
      H   21    0.09716      0.00000     0.40116    0.00169     0.40284
      H   22    0.09637      0.00000     0.40235    0.00128     0.40363
      H   23    0.09987      0.00000     0.39895    0.00117     0.40013
      H   24    0.09124      0.00000     0.40663    0.00213     0.40876
      H   25    0.10153      0.00000     0.39723    0.00124     0.39847
      H   26    0.08945      0.00000     0.40862    0.00193     0.41055
      H   27    0.08716      0.00000     0.41035    0.00249     0.41284
      H   28    0.10388      0.00000     0.39479    0.00133     0.39612
      H   29    0.10137      0.00000     0.39750    0.00113     0.39863
      H   30    0.09748      0.00000     0.40127    0.00125     0.40252
      H   31    0.08079      0.00000     0.41762    0.00159     0.41921
      H   32    0.09428      0.00000     0.40481    0.00091     0.40572
      H   33    0.09536      0.00000     0.40366    0.00098     0.40464
      H   34    0.09069      0.00000     0.40776    0.00155     0.40931
      H   35    0.10198      0.00000     0.39634    0.00168     0.39802
      H   36    0.09501      0.00000     0.40348    0.00151     0.40499
      H   37    0.08567      0.00000     0.41293    0.00140     0.41433
      H   38    0.08080      0.00000     0.41705    0.00215     0.41920
      H   39    0.22848      0.00000     0.26821    0.00332     0.27152
      H   40    0.17348      0.00000     0.32485    0.00167     0.32652
      H   41    0.17580      0.00000     0.32216    0.00205     0.32420
 =======================================================================
   * Total *   -0.00000     14.99459    44.81346    0.19195    60.00000

 Normal termination of Gaussian 16 at Thu Dec 10 18:33:47 2020.
