 Gaussian 16, Revision A.03,

 -----------------------------------------------------------
 # opt freq B3LYP/6-31G(d) empiricaldispersion=gd3bj scf=xqc
 -----------------------------------------------------------

 ------------------------------
 CID_82408065_JID_2751_neutraal
 ------------------------------
 Symbolic Z-matrix:
 Charge =  0 Multiplicity = 1

 SCF Done:  E(RB3LYP) =  -843.062371168     A.U. after   14 cycles
 SCF Done:  E(RB3LYP) =  -843.065764633     A.U. after   12 cycles
 SCF Done:  E(RB3LYP) =  -843.066097239     A.U. after   11 cycles
 SCF Done:  E(RB3LYP) =  -843.066524368     A.U. after   11 cycles
 SCF Done:  E(RB3LYP) =  -843.066742301     A.U. after   11 cycles
 SCF Done:  E(RB3LYP) =  -843.066940706     A.U. after   11 cycles
 SCF Done:  E(RB3LYP) =  -843.067053629     A.U. after   11 cycles
 SCF Done:  E(RB3LYP) =  -843.067115214     A.U. after   10 cycles
 SCF Done:  E(RB3LYP) =  -843.067137794     A.U. after   10 cycles
 SCF Done:  E(RB3LYP) =  -843.067144829     A.U. after   10 cycles
 SCF Done:  E(RB3LYP) =  -843.067147074     A.U. after    8 cycles
 SCF Done:  E(RB3LYP) =  -843.067148398     A.U. after    8 cycles
 SCF Done:  E(RB3LYP) =  -843.067148578     A.U. after    8 cycles
 SCF Done:  E(RB3LYP) =  -843.067148706     A.U. after    7 cycles
 SCF Done:  E(RB3LYP) =  -843.067148716     A.U. after    7 cycles
 Optimization completed.
    -- Stationary point found.
 Normal termination of Gaussian 16 at Wed Dec  9 17:32:13 2020.

 --------------------------------------------------------------------
 #N Geom=AllCheck Guess=TCheck SCRF=Check GenChk RB3LYP/6-31G(d) Freq
 --------------------------------------------------------------------

 Structure from the checkpoint file:  "JID_2751.chk"
 ------------------------------
 CID_82408065_JID_2751_neutraal
 ------------------------------
 Charge =  0 Multiplicity = 1

 SCF Done:  E(RB3LYP) =  -843.067148716     A.U. after    1 cycles

  Exact polarizability: 147.109  -0.288 130.282   4.529   4.057  86.701
 Approx polarizability: 207.362  -1.360 212.562   9.270  10.826 131.041

                      1                      2                      3
                      A                      A                      A
 Frequencies --     45.4296                71.7585               103.2048
 Red. masses --      2.9534                 3.1532                 2.9691
 Frc consts  --      0.0036                 0.0096                 0.0186
 IR Inten    --      0.9798                 0.6509                 1.3613

                      4                      5                      6
                      A                      A                      A
 Frequencies --    119.9725               162.9880               211.8677
 Red. masses --      3.9101                 2.7295                 2.9737
 Frc consts  --      0.0332                 0.0427                 0.0786
 IR Inten    --      0.5989                 0.6267                 1.6741

                      7                      8                      9
                      A                      A                      A
 Frequencies --    266.2162               275.0559               293.7095
 Red. masses --      3.9715                 1.5590                 1.6085
 Frc consts  --      0.1658                 0.0695                 0.0818
 IR Inten    --      0.0200                 1.2574                 1.3637

                     10                     11                     12
                      A                      A                      A
 Frequencies --    308.2416               361.8627               427.6268
 Red. masses --      4.0247                 2.1453                 3.5484
 Frc consts  --      0.2253                 0.1655                 0.3823
 IR Inten    --      0.1902                 1.2079                 0.2798

                     13                     14                     15
                      A                      A                      A
 Frequencies --    523.0155               526.6079               562.1881
 Red. masses --      4.7895                 3.8464                 2.2933
 Frc consts  --      0.7719                 0.6285                 0.4270
 IR Inten    --      3.3144                 0.2810                18.1199

                     16                     17                     18
                      A                      A                      A
 Frequencies --    599.3329               651.7442               675.8440
 Red. masses --      2.6233                 2.2766                 2.8500
 Frc consts  --      0.5552                 0.5698                 0.7670
 IR Inten    --     36.1193                17.4762                 9.6906

                     19                     20                     21
                      A                      A                      A
 Frequencies --    730.7681               746.0008               802.6632
 Red. masses --      1.9452                 3.4280                 1.3080
 Frc consts  --      0.6120                 1.1240                 0.4965
 IR Inten    --     19.2488                 5.9551                 4.2020

                     22                     23                     24
                      A                      A                      A
 Frequencies --    837.8533               849.9152               887.4862
 Red. masses --      2.0991                 3.5329                 1.2943
 Frc consts  --      0.8682                 1.5036                 0.6006
 IR Inten    --     37.6414                12.0621                 1.8789

                     25                     26                     27
                      A                      A                      A
 Frequencies --    892.2619               899.5011               921.3645
 Red. masses --      2.2207                 3.7491                 2.6614
 Frc consts  --      1.0417                 1.7872                 1.3312
 IR Inten    --     22.5628                10.8048                 1.7392

                     28                     29                     30
                      A                      A                      A
 Frequencies --    954.7480               959.5238              1005.2827
 Red. masses --      2.2428                 1.8218                 2.3269
 Frc consts  --      1.2045                 0.9883                 1.3855
 IR Inten    --      1.2042                 4.3550                 1.6182

                     31                     32                     33
                      A                      A                      A
 Frequencies --   1037.3454              1080.0311              1087.6913
 Red. masses --      1.5261                 1.8782                 2.0738
 Frc consts  --      0.9676                 1.2908                 1.4455
 IR Inten    --      2.7337                 0.9009                 1.6096

                     34                     35                     36
                      A                      A                      A
 Frequencies --   1102.7261              1113.3555              1121.2520
 Red. masses --      1.8251                 1.4300                 1.4836
 Frc consts  --      1.3076                 1.0444                 1.0989
 IR Inten    --      2.2152                 0.5946                 3.2851

                     37                     38                     39
                      A                      A                      A
 Frequencies --   1135.6808              1200.2968              1215.7126
 Red. masses --      3.2993                 1.8248                 1.3885
 Frc consts  --      2.5072                 1.5489                 1.2091
 IR Inten    --      9.5495                 4.2306                 4.8673

                     40                     41                     42
                      A                      A                      A
 Frequencies --   1228.3387              1245.4023              1253.2242
 Red. masses --      1.4058                 1.8052                 1.2500
 Frc consts  --      1.2497                 1.6496                 1.1567
 IR Inten    --      6.9982                 2.8721                 6.5280

                     43                     44                     45
                      A                      A                      A
 Frequencies --   1305.9165              1310.8463              1322.7403
 Red. masses --      1.2361                 1.2248                 1.2668
 Frc consts  --      1.2420                 1.2400                 1.3059
 IR Inten    --     19.6578                 2.3415                 0.8418

                     46                     47                     48
                      A                      A                      A
 Frequencies --   1346.7528              1372.4297              1402.7308
 Red. masses --      1.2283                 1.4654                 1.5181
 Frc consts  --      1.3126                 1.6263                 1.7599
 IR Inten    --      1.8273                 8.1719                 4.2888

                     49                     50                     51
                      A                      A                      A
 Frequencies --   1411.4171              1433.5063              1449.1322
 Red. masses --      1.6776                 1.9185                 1.2226
 Frc consts  --      1.9690                 2.3228                 1.5127
 IR Inten    --      1.6936                 0.8713                 1.4043

                     52                     53                     54
                      A                      A                      A
 Frequencies --   1453.4497              1496.1325              1515.9700
 Red. masses --      1.3760                 5.8065                 1.0957
 Frc consts  --      1.7127                 7.6578                 1.4836
 IR Inten    --      5.7829                 8.1860                 0.1755

                     55                     56                     57
                      A                      A                      A
 Frequencies --   1532.2986              1535.8213              1542.9264
 Red. masses --      1.0821                 1.0479                 1.0950
 Frc consts  --      1.4969                 1.4563                 1.5358
 IR Inten    --      4.7154                 3.6268                 2.2199

                     58                     59                     60
                      A                      A                      A
 Frequencies --   1553.7684              1568.1936              1606.8176
 Red. masses --      1.0872                 1.0752                 5.6525
 Frc consts  --      1.5464                 1.5578                 8.5986
 IR Inten    --      2.7367                 2.2303                 0.2136

                     61                     62                     63
                      A                      A                      A
 Frequencies --   2940.0736              2981.0543              3044.2244
 Red. masses --      1.0738                 1.0746                 1.0361
 Frc consts  --      5.4689                 5.6265                 5.6573
 IR Inten    --    107.2116                77.5900                43.7858

                     64                     65                     66
                      A                      A                      A
 Frequencies --   3048.1252              3053.0901              3076.1831
 Red. masses --      1.0608                 1.0840                 1.1018
 Frc consts  --      5.8068                 5.9535                 6.1429
 IR Inten    --     31.6438                15.8863                32.3646

                     67                     68                     69
                      A                      A                      A
 Frequencies --   3088.5071              3098.7707              3103.5131
 Red. masses --      1.0867                 1.0900                 1.0691
 Frc consts  --      6.1073                 6.1669                 6.0671
 IR Inten    --     33.2125                35.8243                26.2012

                     70                     71                     72
                      A                      A                      A
 Frequencies --   3109.7870              3132.5199              3162.0168
 Red. masses --      1.1014                 1.1039                 1.0991
 Frc consts  --      6.2755                 6.3821                 6.4748
 IR Inten    --     47.7592                 4.0969                20.5598

                     73                     74                     75
                      A                      A                      A
 Frequencies --   3206.4449              3271.0659              3519.6183
 Red. masses --      1.0909                 1.0964                 1.0751
 Frc consts  --      6.6081                 6.9119                 7.8469
 IR Inten    --     11.3656                 1.2971                 0.5950

 - Thermochemistry -
 -------------------
 Temperature   298.150 Kelvin.  Pressure   1.00000 Atm.
 Atom     1 has atomic number  6 and mass  12.00000

 Molecular mass:   181.09252 amu.
 Principal axes and moments of inertia in atomic units:
                           1         2         3
     Eigenvalues --  1402.984172856.707953677.96973
           X            0.99963  -0.02694   0.00211
           Y            0.02695   0.99962  -0.00550
           Z           -0.00197   0.00555   0.99998
 This molecule is an asymmetric top.
 Rotational symmetry number  1.
 Warning -- assumption of classical behavior for rotation
           may cause significant error
 Rotational temperatures (Kelvin)      0.06174     0.03032     0.02355
 Rotational constants (GHZ):           1.28636     0.63176     0.49069
 Zero-point vibrational energy     619013.3 (Joules/Mol)
                                  147.94772 (Kcal/Mol)
 Warning -- explicit consideration of  16 degrees of freedom as
           vibrations may cause significant error
 Vibrational temperatures:     65.36   103.24   148.49   172.61   234.50
          (Kelvin)            304.83   383.03   395.74   422.58   443.49
                              520.64   615.26   752.50   757.67   808.86
                              862.31   937.71   972.39  1051.41  1073.33
                             1154.85  1205.48  1222.84  1276.89  1283.77
                             1294.18  1325.64  1373.67  1380.54  1446.38
                             1492.51  1553.92  1564.95  1586.58  1601.87
                             1613.23  1633.99  1726.96  1749.14  1767.31
                             1791.86  1803.11  1878.92  1886.02  1903.13
                             1937.68  1974.62  2018.22  2030.71  2062.50
                             2084.98  2091.19  2152.60  2181.14  2204.64
                             2209.70  2219.93  2235.53  2256.28  2311.85
                             4230.11  4289.07  4379.96  4385.57  4392.72
                             4425.94  4443.67  4458.44  4465.26  4474.29
                             4507.00  4549.44  4613.36  4706.33  5063.95

 Zero-point correction=                           0.235770 (Hartree/Particle)
 Thermal correction to Energy=                    0.247338
 Thermal correction to Enthalpy=                  0.248282
 Thermal correction to Gibbs Free Energy=         0.197715
 Sum of electronic and zero-point Energies=           -842.831379
 Sum of electronic and thermal Energies=              -842.819810
 Sum of electronic and thermal Enthalpies=            -842.818866
 Sum of electronic and thermal Free Energies=         -842.869434

                     E (Thermal)             CV                S
                      KCal/Mol        Cal/Mol-Kelvin    Cal/Mol-Kelvin
 Total                  155.207             44.730            106.428
 Electronic               0.000              0.000              0.000
 Translational            0.889              2.981             41.488
 Rotational               0.889              2.981             31.067
 Vibrational            153.430             38.768             33.873
 Vibration     1          0.595              1.979              5.007
 Vibration     2          0.598              1.967              4.105
 Vibration     3          0.605              1.947              3.393
 Vibration     4          0.609              1.933              3.101
 Vibration     5          0.623              1.888              2.515
 Vibration     6          0.643              1.823              2.028
 Vibration     7          0.672              1.735              1.621
 Vibration     8          0.677              1.719              1.564
 Vibration     9          0.689              1.685              1.452
 Vibration    10          0.698              1.658              1.372
 Vibration    11          0.736              1.551              1.114
 Vibration    12          0.789              1.410              0.866
 Vibration    13          0.878              1.199              0.603
 Vibration    14          0.882              1.191              0.595
 Vibration    15          0.918              1.113              0.519
 Vibration    16          0.957              1.033              0.451

 Optimization completed.
    -- Stationary point found.
 Normal termination of Gaussian 16 at Wed Dec  9 17:39:13 2020.

 ----------------------------------------------------------------------
 # B3LYP/6-311++G(d,p) empiricaldispersion=gd3bj scf=xqc pop=npa geom=c
 heck
 ----------------------------------------------------------------------

 --------------------------------------
 CID_82408065_JID_2751_Energie_neutraal
 --------------------------------------
 Structure from the checkpoint file:  "JID_2751.chk"
 Charge =  0 Multiplicity = 1

 SCF Done:  E(RB3LYP) =  -843.215230072     A.U. after   15 cycles
 Normal termination of Gaussian 16 at Wed Dec  9 17:43:06 2020.

 ----------------------------------------------------------------------
 # B3LYP/6-311++G(d,p) empiricaldispersion=gd3bj scf=xqc pop=npa geom=c
 heck
 ----------------------------------------------------------------------

 ------------------------------------
 CID_82408065_JID_2751_Energie_kation
 ------------------------------------
 Structure from the checkpoint file:  "JID_2751.chk"
 Charge =  1 Multiplicity = 2

 SCF Done:  E(UB3LYP) =  -842.929455797     A.U. after   27 cycles
 Normal termination of Gaussian 16 at Wed Dec  9 17:50:29 2020.
 Gaussian 16:  ES64L-G16RevA.03 25-Dec-2016

 ----------------------------------------------------------------------
 # B3LYP/6-311++G(d,p) empiricaldispersion=gd3bj scf=xqc pop=npa geom=c
 heck
 ----------------------------------------------------------------------

 -----------------------------------
 CID_82408065_JID_2751_Energie_anion
 -----------------------------------
 Structure from the checkpoint file:  "JID_2751.chk"
 Charge = -1 Multiplicity = 2

                         Standard orientation:
 ---------------------------------------------------------------------
 Center     Atomic      Atomic             Coordinates (Angstroms)
 Number     Number       Type             X           Y           Z
 ---------------------------------------------------------------------
      1          6           0        0.556073    2.578428   -0.632674
      2          6           0       -0.369050    2.144774    0.515291
      3          6           0       -1.132480    0.858783    0.271831
      4          6           0       -0.629324   -0.421936    0.152508
      5         16           0       -1.919779   -1.571013   -0.143074
      6          6           0       -3.128102   -0.334173   -0.104725
      7          6           0       -2.560912    0.885715    0.122898
      8          6           0        0.770057   -0.980966    0.156599
      9          6           0        1.718190   -0.476474    1.274413
     10          6           0        3.097473   -0.573897    0.620109
     11          7           0        2.815786   -0.090291   -0.732756
     12          6           0        1.572320   -0.740483   -1.167280
     13          1           0        1.411817    1.904609   -0.739182
     14          1           0        0.944879    3.586253   -0.444284
     15          1           0        0.008257    2.600450   -1.581602
     16          1           0        0.212716    2.076854    1.442272
     17          1           0       -1.108270    2.935159    0.692636
     18          1           0       -4.173021   -0.576480   -0.240774
     19          1           0       -3.134554    1.804658    0.193174
     20          1           0        0.681670   -2.065753    0.282008
     21          1           0        1.625576   -1.073037    2.186097
     22          1           0        1.512882    0.564047    1.527535
     23          1           0        3.849975    0.055889    1.106576
     24          1           0        3.458450   -1.619777    0.649186
     25          1           0        3.583302   -0.260680   -1.377310
     26          1           0        1.741948   -1.706555   -1.670440
     27          1           0        1.024854   -0.096031   -1.861232
 ---------------------------------------------------------------------

 SCF Done:  E(UB3LYP) =  -843.198914991     A.U. after   33 cycles
 SCF Done:  E(UB3LYP) =  -843.198914991     a.u. after    1 cycles

 The electronic state is 2-A.
 Alpha  occ. eigenvalues --  -88.77347 -14.18993 -10.10180 -10.09744 -10.08657
 Alpha  occ. eigenvalues --  -10.08605 -10.08371 -10.07996 -10.07564 -10.07432
 Alpha  occ. eigenvalues --  -10.06398 -10.05269  -7.85983  -5.82262  -5.81896
 Alpha  occ. eigenvalues --   -5.81594  -0.81412  -0.78214  -0.68516  -0.67951
 Alpha  occ. eigenvalues --   -0.63228  -0.61564  -0.59767  -0.52219  -0.49536
 Alpha  occ. eigenvalues --   -0.48680  -0.46644  -0.42019  -0.40507  -0.39480
 Alpha  occ. eigenvalues --   -0.35914  -0.34278  -0.33134  -0.32347  -0.31335
 Alpha  occ. eigenvalues --   -0.29534  -0.28105  -0.27456  -0.26954  -0.26535
 Alpha  occ. eigenvalues --   -0.25912  -0.25010  -0.24427  -0.23844  -0.22636
 Alpha  occ. eigenvalues --   -0.21974  -0.15001  -0.12879  -0.12055   0.04609
 Alpha virt. eigenvalues --    0.06102   0.07080   0.07660   0.08019   0.08348
 Alpha virt. eigenvalues --    0.09192   0.10045   0.10187   0.10846   0.11221
 Alpha virt. eigenvalues --    0.11750   0.12294   0.12714   0.13555   0.13802

  Beta  occ. eigenvalues --  -88.77344 -14.18965 -10.10173 -10.09738 -10.08637
  Beta  occ. eigenvalues --  -10.08596 -10.08336 -10.07997 -10.07551 -10.07418
  Beta  occ. eigenvalues --  -10.06379 -10.05254  -7.85980  -5.82258  -5.81892
  Beta  occ. eigenvalues --   -5.81591  -0.81372  -0.78195  -0.68491  -0.67919
  Beta  occ. eigenvalues --   -0.63183  -0.61537  -0.59729  -0.52177  -0.49484
  Beta  occ. eigenvalues --   -0.48598  -0.46618  -0.41961  -0.40441  -0.39450
  Beta  occ. eigenvalues --   -0.35876  -0.34256  -0.33089  -0.32308  -0.31301
  Beta  occ. eigenvalues --   -0.29505  -0.28075  -0.27414  -0.26907  -0.26512
  Beta  occ. eigenvalues --   -0.25885  -0.24972  -0.24398  -0.23817  -0.22608
  Beta  occ. eigenvalues --   -0.21939  -0.14989  -0.12854  -0.12001
  Beta virt. eigenvalues --    0.06682   0.07268   0.07484   0.08019   0.08737
  Beta virt. eigenvalues --    0.08894   0.09711   0.10469   0.10522   0.11402
  Beta virt. eigenvalues --    0.11627   0.11926   0.12742   0.13143   0.13672

 Mulliken charges and spin densities:
               1          2
     1  C    0.127382  -0.799321
     2  C    0.317639  -0.841636
     3  C   -0.280829   0.664905
     4  C   -2.135625   2.839320
     5  S   -0.050031  -0.557611
     6  C    0.549335  -0.708849
     7  C    0.704356  -0.736166
     8  C    1.435432  -1.434972
     9  C   -0.544430   0.266069
    10  C    1.194485  -1.693380
    11  N   -0.439378   0.292236
    12  C    0.398449  -1.107203
    13  H    0.403430  -0.187401
    14  H   -0.068438   0.191841
    15  H   -0.045937   0.171430
    16  H   -0.220509   0.358436
    17  H   -0.156179   0.327459
    18  H   -0.232847   0.462835
    19  H   -0.599624   0.747432
    20  H    0.090790   0.109090
    21  H   -0.435532   0.625844
    22  H    0.507611  -0.407229
    23  H   -0.442621   0.613300
    24  H   -0.405100   0.544810
    25  H   -0.178145   0.442426
    26  H   -0.669565   0.825465
    27  H    0.175878  -0.009132
 Sum of Mulliken charges =  -1.00000   1.00000

 Dipole moment (field-independent basis, Debye):
    X=             -4.5261    Y=              0.5298    Z=              0.0864  Tot=              4.5578
 Quadrupole moment (field-independent basis, Debye-Ang):
   XX=           -153.0740   YY=           -127.9798   ZZ=           -114.4146
   XY=             14.7666   XZ=              1.7168   YZ=             -0.8533

 Summary of Natural Population Analysis:

                                       Natural Population
                Natural  -----------------------------------------------
    Atom  No    Charge         Core      Valence    Rydberg      Total
 -----------------------------------------------------------------------
      C    1   -0.28807      0.99965     2.28381    0.00461     3.28807
      C    2   -0.19454      0.99960     2.18624    0.00870     3.19454
      C    3   -0.04631      0.99942     2.03533    0.01156     3.04631
      C    4   -0.07947      0.99943     2.06692    0.01312     3.07947
      S    5    0.20342      4.99941     2.77683    0.02034     7.79658
      C    6   -0.20205      0.99954     2.19155    0.01097     3.20205
      C    7   -0.11864      0.99950     2.10794    0.01120     3.11864
      C    8   -0.13469      0.99955     2.12100    0.01414     3.13469
      C    9   -0.18542      0.99961     2.17695    0.00886     3.18542
      C   10   -0.08516      0.99963     2.07422    0.01131     3.08516
      N   11   -0.34706      0.99975     2.83459    0.01272     3.84706
      C   12   -0.08020      0.99962     2.06877    0.01181     3.08020
      H   13    0.11220      0.00000     0.38546    0.00234     0.38780
      H   14    0.09458      0.00000     0.40427    0.00115     0.40542
      H   15    0.09414      0.00000     0.40467    0.00120     0.40586
      H   16    0.09997      0.00000     0.39870    0.00133     0.40003
      H   17    0.09803      0.00000     0.40056    0.00141     0.40197
      H   18    0.10862      0.00000     0.39043    0.00095     0.39138
      H   19    0.10553      0.00000     0.39302    0.00145     0.39447
      H   20    0.10563      0.00000     0.39249    0.00187     0.39437
      H   21    0.10249      0.00000     0.39632    0.00119     0.39751
      H   22    0.09858      0.00000     0.39944    0.00197     0.40142
      H   23    0.09514      0.00000     0.40345    0.00141     0.40486
      H   24    0.08117      0.00000     0.41517    0.00365     0.41883
      H   25    0.18177      0.00000     0.31457    0.00365     0.31823
      H   26    0.08656      0.00000     0.41129    0.00215     0.41344
      H   27    0.09380      0.00000     0.40449    0.00171     0.40620
 =======================================================================
   * Total *    0.00000     15.99471    32.83850    0.16679    49.00000

 Normal termination of Gaussian 16 at Wed Dec  9 17:59:17 2020.
