 Gaussian 16, Revision A.03,

 -----------------------------------------------------------
 # opt freq B3LYP/6-31G(d) empiricaldispersion=gd3bj scf=xqc
 -----------------------------------------------------------

 -------------------------------
 CID_136398131_JID_2219_neutraal
 -------------------------------
 Symbolic Z-matrix:
 Charge =  0 Multiplicity = 1

 SCF Done:  E(RB3LYP) =  -544.705004379     A.U. after   16 cycles
 SCF Done:  E(RB3LYP) =  -544.720735212     A.U. after   13 cycles
 SCF Done:  E(RB3LYP) =  -544.722704407     A.U. after   12 cycles
 SCF Done:  E(RB3LYP) =  -544.722862856     A.U. after   11 cycles
 SCF Done:  E(RB3LYP) =  -544.722886108     A.U. after    9 cycles
 SCF Done:  E(RB3LYP) =  -544.722891193     A.U. after   10 cycles
 SCF Done:  E(RB3LYP) =  -544.722893703     A.U. after    8 cycles
 SCF Done:  E(RB3LYP) =  -544.722894533     A.U. after    8 cycles
 Optimization completed.
    -- Stationary point found.
 Normal termination of Gaussian 16 at Wed Dec  9 16:52:03 2020.

 --------------------------------------------------------------------
 #N Geom=AllCheck Guess=TCheck SCRF=Check GenChk RB3LYP/6-31G(d) Freq
 --------------------------------------------------------------------

 Structure from the checkpoint file:  "JID_2219.chk"
 -------------------------------
 CID_136398131_JID_2219_neutraal
 -------------------------------
 Charge =  0 Multiplicity = 1

 SCF Done:  E(RB3LYP) =  -544.722894533     A.U. after    1 cycles

  Exact polarizability: 154.529  11.189 111.259  -3.714  -1.608  43.594
 Approx polarizability: 257.588  17.962 213.779  -9.991  -0.041  69.028

                      1                      2                      3
                      A                      A                      A
 Frequencies --     77.7243               113.6659               143.5000
 Red. masses --      4.6238                 4.7394                 5.4962
 Frc consts  --      0.0165                 0.0361                 0.0667
 IR Inten    --      1.9005                 2.7856                 4.4018

                      4                      5                      6
                      A                      A                      A
 Frequencies --    229.0438               278.1898               361.3354
 Red. masses --      5.0484                 4.4143                 4.7051
 Frc consts  --      0.1560                 0.2013                 0.3619
 IR Inten    --      4.1874                 6.1972                11.8693

                      7                      8                      9
                      A                      A                      A
 Frequencies --    394.1123               446.1677               460.3082
 Red. masses --      3.8756                 1.9228                 1.9959
 Frc consts  --      0.3547                 0.2255                 0.2492
 IR Inten    --      9.2451                18.0891                13.4178

                     10                     11                     12
                      A                      A                      A
 Frequencies --    536.9274               564.6416               595.4689
 Red. masses --      4.9004                 4.1134                 3.9136
 Frc consts  --      0.8324                 0.7727                 0.8176
 IR Inten    --      9.0282                25.9796                29.5762

                     13                     14                     15
                      A                      A                      A
 Frequencies --    606.6456               618.7000               654.9342
 Red. masses --      2.7925                 3.4532                 2.1549
 Frc consts  --      0.6055                 0.7788                 0.5446
 IR Inten    --     72.4714                31.1951                90.0376

                     16                     17                     18
                      A                      A                      A
 Frequencies --    693.4179               721.3344               750.7362
 Red. masses --      1.3057                 5.3733                 4.2751
 Frc consts  --      0.3699                 1.6473                 1.4196
 IR Inten    --     41.7562                13.2913                70.4121

                     19                     20                     21
                      A                      A                      A
 Frequencies --    796.0142               802.1840               820.1678
 Red. masses --      6.5603                 1.8292                 2.7236
 Frc consts  --      2.4491                 0.6935                 1.0794
 IR Inten    --     14.7034                41.9228                 0.6163

                     22                     23                     24
                      A                      A                      A
 Frequencies --    845.7576               926.1809               970.9889
 Red. masses --      1.2315                 6.0312                 1.3956
 Frc consts  --      0.5190                 3.0482                 0.7752
 IR Inten    --     25.8835                 1.8660                 0.0100

                     25                     26                     27
                      A                      A                      A
 Frequencies --    995.9232              1045.1327              1060.5756
 Red. masses --      1.3034                 2.4042                 5.2776
 Frc consts  --      0.7617                 1.5472                 3.4976
 IR Inten    --      0.6730                 4.5586                22.0381

                     28                     29                     30
                      A                      A                      A
 Frequencies --   1124.8597              1166.3118              1181.5939
 Red. masses --      1.8579                 1.3386                 1.3916
 Frc consts  --      1.3851                 1.0728                 1.1447
 IR Inten    --     43.1353                 2.7817                86.5763

                     31                     32                     33
                      A                      A                      A
 Frequencies --   1211.7501              1263.8041              1296.7865
 Red. masses --      3.9012                 2.4347                 2.2045
 Frc consts  --      3.3750                 2.2911                 2.1842
 IR Inten    --     71.9345                16.0807                16.7522

                     34                     35                     36
                      A                      A                      A
 Frequencies --   1382.9420              1389.4813              1412.4000
 Red. masses --      2.7206                 3.2983                 3.1430
 Frc consts  --      3.0657                 3.7518                 3.6941
 IR Inten    --     40.1407                12.3130                 4.2157

                     37                     38                     39
                      A                      A                      A
 Frequencies --   1438.0515              1463.1036              1535.2558
 Red. masses --      2.9919                 2.6527                 3.1709
 Frc consts  --      3.6454                 3.3458                 4.4035
 IR Inten    --     16.5399               107.3441                71.1279

                     40                     41                     42
                      A                      A                      A
 Frequencies --   1571.0478              1595.3484              1646.2575
 Red. masses --      4.1433                 5.1267                 1.4873
 Frc consts  --      6.0253                 7.6878                 2.3750
 IR Inten    --      5.3039                20.4895               129.1552

                     43                     44                     45
                      A                      A                      A
 Frequencies --   1671.8706              1713.8472              3166.9837
 Red. masses --      5.7421                 3.7835                 1.0895
 Frc consts  --      9.4564                 6.5477                 6.4382
 IR Inten    --     32.9194               168.9597                31.0788

                     46                     47                     48
                      A                      A                      A
 Frequencies --   3206.0274              3221.6734              3472.8257
 Red. masses --      1.0883                 1.0970                 1.0754
 Frc consts  --      6.5909                 6.7081                 7.6414
 IR Inten    --      5.0553                14.2113                 3.6935

                     49                     50                     51
                      A                      A                      A
 Frequencies --   3546.8074              3629.6014              3658.1789
 Red. masses --      1.0468                 1.0807                 1.0999
 Frc consts  --      7.7590                 8.3883                 8.6723
 IR Inten    --     26.9063               106.4423                19.3092

 - Thermochemistry -
 -------------------
 Temperature   298.150 Kelvin.  Pressure   1.00000 Atm.
 Atom     1 has atomic number  6 and mass  12.00000

 Molecular mass:   161.07015 amu.
 Principal axes and moments of inertia in atomic units:
                           1         2         3
     Eigenvalues --   901.355632428.578963253.29892
           X            0.99987   0.01571   0.00334
           Y           -0.01567   0.99983  -0.01019
           Z           -0.00350   0.01014   0.99994
 This molecule is an asymmetric top.
 Rotational symmetry number  1.
 Warning -- assumption of classical behavior for rotation
           may cause significant error
 Rotational temperatures (Kelvin)      0.09609     0.03566     0.02662
 Rotational constants (GHZ):           2.00225     0.74313     0.55474
 Zero-point vibrational energy     385655.6 (Joules/Mol)
                                   92.17391 (Kcal/Mol)
 Warning -- explicit consideration of  14 degrees of freedom as
           vibrations may cause significant error
 Vibrational temperatures:    111.83   163.54   206.46   329.54   400.25
          (Kelvin)            519.88   567.04   641.94   662.28   772.52
                              812.39   856.75   872.83   890.17   942.30
                              997.67  1037.84  1080.14  1145.29  1154.16
                             1180.04  1216.86  1332.57  1397.04  1432.91
                             1503.71  1525.93  1618.42  1678.06  1700.05
                             1743.44  1818.33  1865.79  1989.75  1999.15
                             2032.13  2069.04  2105.08  2208.89  2260.39
                             2295.35  2368.60  2405.45  2465.84  4556.58
                             4612.76  4635.27  4996.62  5103.06  5222.19
                             5263.30

 Zero-point correction=                           0.146888 (Hartree/Particle)
 Thermal correction to Energy=                    0.155944
 Thermal correction to Enthalpy=                  0.156888
 Thermal correction to Gibbs Free Energy=         0.112348
 Sum of electronic and zero-point Energies=           -544.576006
 Sum of electronic and thermal Energies=              -544.566951
 Sum of electronic and thermal Enthalpies=            -544.566006
 Sum of electronic and thermal Free Energies=         -544.610546

                     E (Thermal)             CV                S
                      KCal/Mol        Cal/Mol-Kelvin    Cal/Mol-Kelvin
 Total                   97.856             36.059             93.742
 Electronic               0.000              0.000              0.000
 Translational            0.889              2.981             41.139
 Rotational               0.889              2.981             30.344
 Vibrational             96.079             30.098             22.259
 Vibration     1          0.599              1.964              3.948
 Vibration     2          0.607              1.938              3.205
 Vibration     3          0.616              1.910              2.757
 Vibration     4          0.652              1.797              1.886
 Vibration     5          0.679              1.714              1.545
 Vibration     6          0.736              1.552              1.116
 Vibration     7          0.761              1.483              0.985
 Vibration     8          0.805              1.369              0.807
 Vibration     9          0.818              1.338              0.765
 Vibration    10          0.892              1.168              0.572
 Vibration    11          0.920              1.108              0.515
 Vibration    12          0.953              1.041              0.458
 Vibration    13          0.965              1.018              0.438
 Vibration    14          0.979              0.992              0.419

 Optimization completed.
    -- Stationary point found.
 Normal termination of Gaussian 16 at Wed Dec  9 16:56:08 2020.

 ----------------------------------------------------------------------
 # B3LYP/6-311++G(d,p) empiricaldispersion=gd3bj scf=xqc pop=npa geom=c
 heck
 ----------------------------------------------------------------------

 ---------------------------------------
 CID_136398131_JID_2219_Energie_neutraal
 ---------------------------------------
 Structure from the checkpoint file:  "JID_2219.chk"
 Charge =  0 Multiplicity = 1

 SCF Done:  E(RB3LYP) =  -544.877893191     A.U. after   16 cycles
 Normal termination of Gaussian 16 at Wed Dec  9 16:58:00 2020.

 ----------------------------------------------------------------------
 # B3LYP/6-311++G(d,p) empiricaldispersion=gd3bj scf=xqc pop=npa geom=c
 heck
 ----------------------------------------------------------------------

 -------------------------------------
 CID_136398131_JID_2219_Energie_kation
 -------------------------------------
 Structure from the checkpoint file:  "JID_2219.chk"
 Charge =  1 Multiplicity = 2

 SCF Done:  E(UB3LYP) =  -544.566223601     A.U. after   28 cycles
 Normal termination of Gaussian 16 at Wed Dec  9 17:02:40 2020.
 Gaussian 16:  ES64L-G16RevA.03 25-Dec-2016

 ----------------------------------------------------------------------
 # B3LYP/6-311++G(d,p) empiricaldispersion=gd3bj scf=xqc pop=npa geom=c
 heck
 ----------------------------------------------------------------------

 ------------------------------------
 CID_136398131_JID_2219_Energie_anion
 ------------------------------------
 Structure from the checkpoint file:  "JID_2219.chk"
 Charge = -1 Multiplicity = 2

                         Standard orientation:
 ---------------------------------------------------------------------
 Center     Atomic      Atomic             Coordinates (Angstroms)
 Number     Number       Type             X           Y           Z
 ---------------------------------------------------------------------
      1          6           0       -2.286395   -1.558223   -0.177162
      2          6           0       -0.911597   -1.511873   -0.165441
      3          6           0       -0.326722   -0.233553   -0.026314
      4          6           0        0.971765    0.296601    0.017830
      5          7           0        0.787287    1.640305    0.129089
      6          7           0       -0.484222    2.060523    0.171619
      7          6           0       -1.191540    0.912683    0.068565
      8          7           0       -2.545626    0.858205    0.054761
      9          6           0       -3.047976   -0.354735   -0.061111
     10          6           0        2.308837   -0.312375   -0.042190
     11          7           0        3.375255    0.233443   -0.510846
     12          7           0        2.350817   -1.614413    0.431689
     13          1           0       -2.811071   -2.502650   -0.280415
     14          1           0       -0.300054   -2.403083   -0.265665
     15          1           0        1.522888    2.326120    0.238914
     16          1           0       -4.135011   -0.422874   -0.071769
     17          1           0        3.160837    1.119254   -0.972433
     18          1           0        1.785076   -1.812492    1.247577
     19          1           0        3.294529   -1.981863    0.484550
 ---------------------------------------------------------------------

 SCF Done:  E(UB3LYP) =  -544.899221943     A.U. after   26 cycles

 The electronic state is 2-A.
 Alpha  occ. eigenvalues --  -14.22777 -14.19826 -14.16601 -14.14140 -14.13791
 Alpha  occ. eigenvalues --  -10.11037 -10.06244 -10.05269 -10.04619 -10.02989
 Alpha  occ. eigenvalues --  -10.02331 -10.01943  -0.90006  -0.81911  -0.78046
 Alpha  occ. eigenvalues --   -0.72256  -0.66950  -0.64972  -0.61404  -0.52352
 Alpha  occ. eigenvalues --   -0.49393  -0.46636  -0.43542  -0.41495  -0.37251
 Alpha  occ. eigenvalues --   -0.35300  -0.34421  -0.32667  -0.30920  -0.30585
 Alpha  occ. eigenvalues --   -0.27727  -0.25682  -0.24490  -0.23406  -0.22556
 Alpha  occ. eigenvalues --   -0.16116  -0.15471  -0.14114  -0.12898  -0.10973
 Alpha  occ. eigenvalues --   -0.10100  -0.08151   0.04082
 Alpha virt. eigenvalues --    0.08626   0.09800   0.10317   0.11662   0.11948
 Alpha virt. eigenvalues --    0.12445   0.13622   0.14028   0.15873   0.16543
 Alpha virt. eigenvalues --    0.16975   0.17206   0.18080   0.19322   0.19521

  Beta  occ. eigenvalues --  -14.22249 -14.19802 -14.16275 -14.13991 -14.13418
  Beta  occ. eigenvalues --  -10.10942 -10.06329 -10.05085 -10.04565 -10.03072
  Beta  occ. eigenvalues --  -10.02038 -10.01864  -0.89296  -0.81717  -0.77507
  Beta  occ. eigenvalues --   -0.72037  -0.66436  -0.64400  -0.60966  -0.51752
  Beta  occ. eigenvalues --   -0.49061  -0.46452  -0.43362  -0.41224  -0.37008
  Beta  occ. eigenvalues --   -0.35062  -0.34158  -0.32533  -0.30369  -0.29537
  Beta  occ. eigenvalues --   -0.27538  -0.25407  -0.23852  -0.23218  -0.20975
  Beta  occ. eigenvalues --   -0.15062  -0.14794  -0.13790  -0.12227  -0.09757
  Beta  occ. eigenvalues --   -0.09718  -0.06152
  Beta virt. eigenvalues --    0.08577   0.09738   0.09951   0.10303   0.11701
  Beta virt. eigenvalues --    0.12416   0.13226   0.13832   0.14052   0.16409
  Beta virt. eigenvalues --    0.16705   0.16990   0.17280   0.18159   0.19365

 Mulliken charges and spin densities:
               1          2
     1  C   -0.181033   0.122735
     2  C   -1.146603   0.172628
     3  C    0.980507  -0.085304
     4  C    0.063521   0.169650
     5  N   -0.155143   0.183621
     6  N   -0.228301   0.172519
     7  C   -0.211542  -0.064331
     8  N   -0.146740   0.171312
     9  C   -0.319171   0.036793
    10  C   -0.218948   0.052296
    11  N   -0.415939   0.087629
    12  N   -0.305249   0.009607
    13  H    0.120884  -0.004446
    14  H    0.116152  -0.016155
    15  H    0.287541  -0.004925
    16  H    0.124762  -0.007028
    17  H    0.169474  -0.004574
    18  H    0.197743   0.010003
    19  H    0.268085  -0.002030
 Sum of Mulliken charges =  -1.00000   1.00000

 Dipole moment (field-independent basis, Debye):
    X=              2.1656    Y=             -2.8507    Z=              1.2634  Tot=              3.7964
 Quadrupole moment (field-independent basis, Debye-Ang):
   XX=           -110.4197   YY=            -83.1065   ZZ=            -76.6317
   XY=              7.1986   XZ=              4.9208   YZ=             -3.9666

 Summary of Natural Population Analysis:

                                       Natural Population
                Natural  -----------------------------------------------
    Atom  No    Charge         Core      Valence    Rydberg      Total
 -----------------------------------------------------------------------
      C    1   -0.12991      0.99958     2.12108    0.00925     3.12991
      C    2   -0.03792      0.99954     2.02972    0.00866     3.03792
      C    3   -0.08842      0.99947     2.08053    0.00843     3.08842
      C    4    0.04855      0.99947     1.93678    0.01520     2.95145
      N    5   -0.07289      0.99966     2.56169    0.01154     3.57289
      N    6   -0.11881      0.99971     2.60451    0.01459     3.61881
      C    7    0.13813      0.99952     1.84088    0.02147     2.86187
      N    8   -0.18911      0.99967     2.67548    0.01396     3.68911
      C    9    0.02650      0.99963     1.95826    0.01560     2.97350
      C   10    0.22204      0.99964     1.76271    0.01561     2.77796
      N   11   -0.36649      0.99971     2.85695    0.00983     3.86649
      N   12   -0.40069      0.99972     2.89206    0.00891     3.90069
      H   13    0.08938      0.00000     0.40944    0.00118     0.41062
      H   14    0.09263      0.00000     0.40533    0.00204     0.40737
      H   15    0.18434      0.00000     0.31341    0.00225     0.31566
      H   16    0.07449      0.00000     0.42389    0.00162     0.42551
      H   17    0.15863      0.00000     0.33914    0.00223     0.34137
      H   18    0.18646      0.00000     0.31214    0.00140     0.31354
      H   19    0.18306      0.00000     0.31522    0.00172     0.31694
 =======================================================================
   * Total *   -0.00000     11.99531    29.83920    0.16548    42.00000

 Normal termination of Gaussian 16 at Wed Dec  9 17:07:25 2020.
