 Gaussian 16, Revision A.03,

 -----------------------------------------------------------
 # opt freq B3LYP/6-31G(d) empiricaldispersion=gd3bj scf=xqc
 -----------------------------------------------------------

 -------------------------------
 CID_134484768_JID_3961_neutraal
 -------------------------------
 Symbolic Z-matrix:
 Charge =  0 Multiplicity = 1

 SCF Done:  E(RB3LYP) =  -609.978389288     A.U. after   15 cycles
 SCF Done:  E(RB3LYP) =  -609.984976366     A.U. after   12 cycles
 SCF Done:  E(RB3LYP) =  -609.986012858     A.U. after   12 cycles
 SCF Done:  E(RB3LYP) =  -609.986407731     A.U. after   12 cycles
 SCF Done:  E(RB3LYP) =  -609.986622877     A.U. after   12 cycles
 SCF Done:  E(RB3LYP) =  -609.986872611     A.U. after   12 cycles
 SCF Done:  E(RB3LYP) =  -609.987060252     A.U. after   12 cycles
 SCF Done:  E(RB3LYP) =  -609.987310844     A.U. after   11 cycles
 SCF Done:  E(RB3LYP) =  -609.987947306     A.U. after   13 cycles
 SCF Done:  E(RB3LYP) =  -609.987878299     A.U. after   13 cycles
 SCF Done:  E(RB3LYP) =  -609.991152865     A.U. after   10 cycles
 SCF Done:  E(RB3LYP) =  -609.991155304     A.U. after    9 cycles
 SCF Done:  E(RB3LYP) =  -609.991156900     A.U. after    8 cycles
 SCF Done:  E(RB3LYP) =  -609.991157757     A.U. after    8 cycles
 SCF Done:  E(RB3LYP) =  -609.991158124     A.U. after    8 cycles
 Optimization completed.
    -- Stationary point found.
 Normal termination of Gaussian 16 at Mon Dec 14 18:50:14 2020.

 --------------------------------------------------------------------
 #N Geom=AllCheck Guess=TCheck SCRF=Check GenChk RB3LYP/6-31G(d) Freq
 --------------------------------------------------------------------

 Structure from the checkpoint file:  "JID_3961.chk"
 -------------------------------
 CID_134484768_JID_3961_neutraal
 -------------------------------
 Charge =  0 Multiplicity = 1

 SCF Done:  E(RB3LYP) =  -609.991158124     A.U. after    1 cycles

  Exact polarizability: 137.573  -0.979 113.375   3.811 -11.613  92.363
 Approx polarizability: 165.974   1.090 181.965   3.945 -28.664 139.491

                      1                      2                      3
                      A                      A                      A
 Frequencies --     38.8979                51.5297                61.9469
 Red. masses --      3.1057                 3.7687                 3.3657
 Frc consts  --      0.0028                 0.0059                 0.0076
 IR Inten    --      0.9740                 0.4693                 0.3423

                      4                      5                      6
                      A                      A                      A
 Frequencies --     92.8128               116.4444               137.1399
 Red. masses --      3.3094                 6.2912                 4.3360
 Frc consts  --      0.0168                 0.0503                 0.0480
 IR Inten    --      0.7581                 4.2061                 7.5925

                      7                      8                      9
                      A                      A                      A
 Frequencies --    147.2955               181.0871               239.2802
 Red. masses --      4.5985                 3.5593                 1.0400
 Frc consts  --      0.0588                 0.0688                 0.0351
 IR Inten    --      2.8149                 5.9968                 0.1196

                     10                     11                     12
                      A                      A                      A
 Frequencies --    257.3425               272.0379               288.7539
 Red. masses --      3.0170                 1.1960                 3.1748
 Frc consts  --      0.1177                 0.0521                 0.1560
 IR Inten    --     17.3100                 1.3515                 6.7669

                     13                     14                     15
                      A                      A                      A
 Frequencies --    342.8986               367.2337               387.9376
 Red. masses --      2.5561                 2.1334                 1.8819
 Frc consts  --      0.1771                 0.1695                 0.1669
 IR Inten    --     10.5239                 0.9930                15.0878

                     16                     17                     18
                      A                      A                      A
 Frequencies --    425.7115               434.7894               441.4140
 Red. masses --      2.0657                 1.0720                 1.2280
 Frc consts  --      0.2206                 0.1194                 0.1410
 IR Inten    --      0.3758                31.2078                41.2592

                     19                     20                     21
                      A                      A                      A
 Frequencies --    458.8567               507.3706               539.8555
 Red. masses --      2.8158                 2.7489                 3.1361
 Frc consts  --      0.3493                 0.4169                 0.5385
 IR Inten    --      3.1339                 5.1897                37.1246

                     22                     23                     24
                      A                      A                      A
 Frequencies --    562.7829               592.0083               627.7900
 Red. masses --      2.8443                 3.0599                 3.0192
 Frc consts  --      0.5308                 0.6319                 0.7011
 IR Inten    --     30.0930                 4.2416                 5.1084

                     25                     26                     27
                      A                      A                      A
 Frequencies --    654.2391               665.8777               756.5098
 Red. masses --      2.2017                 1.2277                 2.0846
 Frc consts  --      0.5552                 0.3207                 0.7029
 IR Inten    --     73.8083               187.0928               251.2741

                     28                     29                     30
                      A                      A                      A
 Frequencies --    803.6809               839.5030               855.0667
 Red. masses --      1.4031                 2.8106                 3.1939
 Frc consts  --      0.5340                 1.1671                 1.3759
 IR Inten    --    117.6123                 1.3214                10.5660

                     31                     32                     33
                      A                      A                      A
 Frequencies --    866.6468               901.4847               933.4846
 Red. masses --      2.4735                 1.6902                 1.9272
 Frc consts  --      1.0946                 0.8093                 0.9894
 IR Inten    --     12.6486                 9.6670                 8.8344

                     34                     35                     36
                      A                      A                      A
 Frequencies --    946.8927               953.0882               982.2580
 Red. masses --      1.2426                 2.7944                 1.5563
 Frc consts  --      0.6564                 1.4956                 0.8847
 IR Inten    --      1.2467                12.0727                 0.1924

                     37                     38                     39
                      A                      A                      A
 Frequencies --    984.6862              1075.9302              1105.7969
 Red. masses --      1.8387                 2.2446                 1.8310
 Frc consts  --      1.0504                 1.5309                 1.3191
 IR Inten    --      0.0324                32.1973                 8.7794

                     40                     41                     42
                      A                      A                      A
 Frequencies --   1130.7865              1133.5075              1146.3764
 Red. masses --      1.6573                 1.6522                 2.7119
 Frc consts  --      1.2486                 1.2507                 2.0998
 IR Inten    --     20.0752                 3.2919                 0.7685

                     43                     44                     45
                      A                      A                      A
 Frequencies --   1158.1979              1207.2986              1230.4060
 Red. masses --      2.1422                 1.7452                 1.4861
 Frc consts  --      1.6931                 1.4987                 1.3256
 IR Inten    --      5.5986                11.9824                 3.6624

                     46                     47                     48
                      A                      A                      A
 Frequencies --   1255.2976              1267.4286              1303.6652
 Red. masses --      1.6084                 1.2970                 1.3369
 Frc consts  --      1.4933                 1.2276                 1.3387
 IR Inten    --     55.9794                 1.0136                17.7651

                     49                     50                     51
                      A                      A                      A
 Frequencies --   1307.4482              1363.6453              1390.1161
 Red. masses --      1.3081                 1.6364                 1.3826
 Frc consts  --      1.3174                 1.7928                 1.5742
 IR Inten    --      0.7905                54.0952                 5.2154

                     52                     53                     54
                      A                      A                      A
 Frequencies --   1392.8679              1398.5448              1417.6693
 Red. masses --      1.3643                 1.3069                 3.1320
 Frc consts  --      1.5595                 1.5060                 3.7087
 IR Inten    --     29.8082                 0.1363               160.2367

                     55                     56                     57
                      A                      A                      A
 Frequencies --   1432.9047              1440.3764              1452.5741
 Red. masses --      1.2709                 1.7683                 1.2814
 Frc consts  --      1.5375                 2.1615                 1.5929
 IR Inten    --      3.1336                44.4366                 5.5205

                     58                     59                     60
                      A                      A                      A
 Frequencies --   1490.4685              1497.2839              1518.9251
 Red. masses --      1.3633                 1.2857                 1.0587
 Frc consts  --      1.7844                 1.6982                 1.4391
 IR Inten    --     29.2396                47.4208                 6.0460

                     61                     62                     63
                      A                      A                      A
 Frequencies --   1520.6962              1526.0695              1527.6233
 Red. masses --      1.1150                 1.0567                 1.1006
 Frc consts  --      1.5192                 1.4499                 1.5132
 IR Inten    --     14.4534                 6.7564                 7.5553

                     64                     65                     66
                      A                      A                      A
 Frequencies --   1536.1904              1543.3846              1655.3211
 Red. masses --      1.0569                 1.0473                 1.2848
 Frc consts  --      1.4696                 1.4699                 2.0743
 IR Inten    --      3.6711                14.8731                67.2000

                     67                     68                     69
                      A                      A                      A
 Frequencies --   1699.4095              1726.6491              1756.7404
 Red. masses --      1.1642                 4.8295                 6.0258
 Frc consts  --      1.9809                 8.4833                10.9566
 IR Inten    --     32.4000                78.9866               527.6918

                     70                     71                     72
                      A                      A                      A
 Frequencies --   3007.3255              3035.9058              3039.2178
 Red. masses --      1.0577                 1.0376                 1.0466
 Frc consts  --      5.6362                 5.6343                 5.6957
 IR Inten    --     45.4419                25.4751                28.4627

                     73                     74                     75
                      A                      A                      A
 Frequencies --   3044.5774              3048.5511              3067.1375
 Red. masses --      1.0619                 1.1018                 1.0826
 Frc consts  --      5.7994                 6.0330                 6.0004
 IR Inten    --     12.5418                29.4747                 1.8648

                     76                     77                     78
                      A                      A                      A
 Frequencies --   3088.5015              3098.6711              3102.7256
 Red. masses --      1.0664                 1.0996                 1.0957
 Frc consts  --      5.9934                 6.2206                 6.2148
 IR Inten    --     40.3038                10.0217                 0.5931

                     79                     80                     81
                      A                      A                      A
 Frequencies --   3110.9599              3113.6280              3127.6063
 Red. masses --      1.0977                 1.1009                 1.1005
 Frc consts  --      6.2595                 6.2885                 6.3425
 IR Inten    --     66.5438                58.9023                22.6320

                     82                     83                     84
                      A                      A                      A
 Frequencies --   3144.6774              3508.2521              3529.7736
 Red. masses --      1.1008                 1.0540                 1.0484
 Frc consts  --      6.4139                 7.6431                 7.6964
 IR Inten    --     30.0521               146.0365                 7.6568

                     85                     86                     87
                      A                      A                      A
 Frequencies --   3541.4533              3629.3599              3640.4711
 Red. masses --      1.0738                 1.0943                 1.0969
 Frc consts  --      7.9345                 8.4925                 8.5654
 IR Inten    --     14.4908                66.2177                13.2209

 - Thermochemistry -
 -------------------
 Temperature   298.150 Kelvin.  Pressure   1.00000 Atm.
 Atom     1 has atomic number  6 and mass  12.00000

 Molecular mass:   186.14806 amu.
 Principal axes and moments of inertia in atomic units:
                           1         2         3
     Eigenvalues --  1337.586134284.133044511.59713
           X            0.99987   0.00237   0.01597
           Y           -0.00218   0.99993  -0.01147
           Z           -0.01600   0.01144   0.99981
 This molecule is an asymmetric top.
 Rotational symmetry number  1.
 Warning -- assumption of classical behavior for rotation
           may cause significant error
 Rotational temperatures (Kelvin)      0.06475     0.02022     0.01920
 Rotational constants (GHZ):           1.34925     0.42126     0.40002
 Zero-point vibrational energy     724967.1 (Joules/Mol)
                                  173.27129 (Kcal/Mol)
 Warning -- explicit consideration of  23 degrees of freedom as
           vibrations may cause significant error
 Vibrational temperatures:     55.97    74.14    89.13   133.54   167.54
          (Kelvin)            197.31   211.93   260.54   344.27   370.26
                              391.40   415.45   493.35   528.37   558.16
                              612.50   625.56   635.10   660.19   729.99
                              776.73   809.72   851.77   903.25   941.30
                              958.05  1088.45  1156.32  1207.86  1230.25
                             1246.91  1297.04  1343.08  1362.37  1371.28
                             1413.25  1416.74  1548.02  1591.00  1626.95
                             1630.86  1649.38  1666.39  1737.03  1770.28
                             1806.09  1823.55  1875.68  1881.13  1961.98
                             2000.07  2004.03  2012.19  2039.71  2061.63
                             2072.38  2089.93  2144.45  2154.26  2185.39
                             2187.94  2195.67  2197.91  2210.24  2220.59
                             2381.64  2445.07  2484.26  2527.56  4326.87
                             4367.99  4372.76  4380.47  4386.19  4412.93
                             4443.66  4458.30  4464.13  4475.98  4479.82
                             4499.93  4524.49  5047.59  5078.56  5095.36
                             5221.84  5237.83

 Zero-point correction=                           0.276125 (Hartree/Particle)
 Thermal correction to Energy=                    0.290921
 Thermal correction to Enthalpy=                  0.291865
 Thermal correction to Gibbs Free Energy=         0.234292
 Sum of electronic and zero-point Energies=           -609.715033
 Sum of electronic and thermal Energies=              -609.700237
 Sum of electronic and thermal Enthalpies=            -609.699293
 Sum of electronic and thermal Free Energies=         -609.756866

                     E (Thermal)             CV                S
                      KCal/Mol        Cal/Mol-Kelvin    Cal/Mol-Kelvin
 Total                  182.556             55.700            121.173
 Electronic               0.000              0.000              0.000
 Translational            0.889              2.981             41.570
 Rotational               0.889              2.981             31.625
 Vibrational            180.778             49.739             47.978
 Vibration     1          0.594              1.981              5.314
 Vibration     2          0.596              1.977              4.758
 Vibration     3          0.597              1.972              4.394
 Vibration     4          0.602              1.954              3.600
 Vibration     5          0.608              1.936              3.159
 Vibration     6          0.614              1.916              2.843
 Vibration     7          0.617              1.906              2.707
 Vibration     8          0.630              1.865              2.317
 Vibration     9          0.657              1.780              1.808
 Vibration    10          0.667              1.750              1.680
 Vibration    11          0.675              1.725              1.583
 Vibration    12          0.685              1.695              1.481
 Vibration    13          0.722              1.590              1.199
 Vibration    14          0.740              1.540              1.091
 Vibration    15          0.756              1.496              1.008
 Vibration    16          0.788              1.414              0.873
 Vibration    17          0.795              1.394              0.843
 Vibration    18          0.801              1.380              0.822
 Vibration    19          0.817              1.341              0.769
 Vibration    20          0.863              1.234              0.640
 Vibration    21          0.895              1.162              0.566
 Vibration    22          0.919              1.112              0.518
 Vibration    23          0.949              1.049              0.464

                           ! Non-Optimized Parameters !
 Normal termination of Gaussian 16 at Mon Dec 14 18:58:20 2020.

 ----------------------------------------------------------------------
 # B3LYP/6-311++G(d,p) empiricaldispersion=gd3bj scf=xqc pop=npa geom=c
 heck
 ----------------------------------------------------------------------

 ---------------------------------------
 CID_134484768_JID_3961_Energie_neutraal
 ---------------------------------------
 Structure from the checkpoint file:  "JID_3961.chk"
 Charge =  0 Multiplicity = 1

 SCF Done:  E(RB3LYP) =  -610.185184479     A.U. after   14 cycles
 Normal termination of Gaussian 16 at Mon Dec 14 19:02:01 2020.

 ----------------------------------------------------------------------
 # B3LYP/6-311++G(d,p) empiricaldispersion=gd3bj scf=xqc pop=npa geom=c
 heck
 ----------------------------------------------------------------------

 -------------------------------------
 CID_134484768_JID_3961_Energie_kation
 -------------------------------------
 Structure from the checkpoint file:  "JID_3961.chk"
 Charge =  1 Multiplicity = 2

 SCF Done:  E(UB3LYP) =  -609.877776839     A.U. after   29 cycles
 Normal termination of Gaussian 16 at Mon Dec 14 19:12:32 2020.
 Gaussian 16:  ES64L-G16RevA.03 25-Dec-2016

 ----------------------------------------------------------------------
 # B3LYP/6-311++G(d,p) empiricaldispersion=gd3bj scf=xqc pop=npa geom=c
 heck
 ----------------------------------------------------------------------

 ------------------------------------
 CID_134484768_JID_3961_Energie_anion
 ------------------------------------
 Structure from the checkpoint file:  "JID_3961.chk"
 Charge = -1 Multiplicity = 2

                         Standard orientation:
 ---------------------------------------------------------------------
 Center     Atomic      Atomic             Coordinates (Angstroms)
 Number     Number       Type             X           Y           Z
 ---------------------------------------------------------------------
      1          6           0        2.007312    1.196891    1.246037
      2          6           0        2.790178    0.597431    0.071562
      3          6           0        4.242904    0.313749    0.467492
      4          6           0        2.120848   -0.683074   -0.454383
      5          6           0        0.779192   -0.416011   -1.116407
      6          8           0        0.615163    0.570227   -1.841302
      7          7           0       -0.228256   -1.334011   -0.963123
      8          6           0       -0.574136   -2.011531    0.285772
      9          6           0       -1.329068   -1.066639    1.236185
     10          7           0       -2.591649   -0.641438    0.668937
     11          6           0       -2.717272    0.544643    0.186254
     12          7           0       -1.716891    1.494879   -0.022174
     13          7           0       -4.002808    1.023314   -0.077848
     14          1           0        1.957899    0.489452    2.084588
     15          1           0        0.982279    1.457765    0.963920
     16          1           0        2.492748    2.108761    1.611873
     17          1           0        2.781354    1.319971   -0.752661
     18          1           0        4.293514   -0.422153    1.280683
     19          1           0        4.819614   -0.081116   -0.377227
     20          1           0        4.738474    1.226610    0.816642
     21          1           0        2.752402   -1.131036   -1.234372
     22          1           0        2.044951   -1.427078    0.344480
     23          1           0       -1.052622   -1.050570   -1.485982
     24          1           0       -1.208699   -2.867111    0.035643
     25          1           0        0.330170   -2.397177    0.761113
     26          1           0       -1.540105   -1.621889    2.161022
     27          1           0       -0.667558   -0.225975    1.497233
     28          1           0       -2.059408    2.411091   -0.282290
     29          1           0       -0.911805    1.216583   -0.578080
     30          1           0       -4.699233    0.305410    0.087281
     31          1           0       -4.117791    1.474683   -0.979069
 ---------------------------------------------------------------------

 SCF Done:  E(UB3LYP) =  -610.172720091     A.U. after   33 cycles
 SCF Done:  E(UB3LYP) =  -610.172720091     a.u. after    1 cycles

 The electronic state is 2-A.
 Alpha  occ. eigenvalues --  -19.00219 -14.24218 -14.21668 -14.21338 -14.17409
 Alpha  occ. eigenvalues --  -10.18419 -10.16641 -10.11408 -10.09459 -10.08363
 Alpha  occ. eigenvalues --  -10.08280 -10.06523 -10.06247  -0.95094  -0.87362
 Alpha  occ. eigenvalues --   -0.83280  -0.76579  -0.76487  -0.71970  -0.64781
 Alpha  occ. eigenvalues --   -0.62258  -0.59180  -0.55058  -0.50341  -0.48122
 Alpha  occ. eigenvalues --   -0.45654  -0.42928  -0.42511  -0.40205  -0.40022
 Alpha  occ. eigenvalues --   -0.37843  -0.37081  -0.36063  -0.34504  -0.34351
 Alpha  occ. eigenvalues --   -0.33279  -0.31643  -0.29637  -0.29332  -0.29004
 Alpha  occ. eigenvalues --   -0.28214  -0.27704  -0.25617  -0.24535  -0.23929
 Alpha  occ. eigenvalues --   -0.23361  -0.18154  -0.17736  -0.16370  -0.15183
 Alpha  occ. eigenvalues --   -0.13258   0.04256
 Alpha virt. eigenvalues --    0.05722   0.07060   0.07471   0.08698   0.08858
 Alpha virt. eigenvalues --    0.09362   0.09620   0.10234   0.10511   0.10851
 Alpha virt. eigenvalues --    0.11559   0.12106   0.13077   0.13272   0.13504

  Beta  occ. eigenvalues --  -19.00210 -14.24209 -14.21637 -14.21272 -14.17400
  Beta  occ. eigenvalues --  -10.18416 -10.16627 -10.11391 -10.09450 -10.08339
  Beta  occ. eigenvalues --  -10.08276 -10.06488 -10.06228  -0.95079  -0.87316
  Beta  occ. eigenvalues --   -0.83259  -0.76527  -0.76419  -0.71947  -0.64744
  Beta  occ. eigenvalues --   -0.62212  -0.59128  -0.55010  -0.50294  -0.48058
  Beta  occ. eigenvalues --   -0.45605  -0.42883  -0.42433  -0.40164  -0.39988
  Beta  occ. eigenvalues --   -0.37802  -0.37036  -0.36018  -0.34473  -0.34320
  Beta  occ. eigenvalues --   -0.33243  -0.31618  -0.29606  -0.29303  -0.28975
  Beta  occ. eigenvalues --   -0.28177  -0.27675  -0.25569  -0.24504  -0.23899
  Beta  occ. eigenvalues --   -0.23324  -0.18134  -0.17685  -0.16352  -0.15144
  Beta  occ. eigenvalues --   -0.13229
  Beta virt. eigenvalues --    0.06386   0.07242   0.07620   0.07795   0.09082
  Beta virt. eigenvalues --    0.09370   0.09635   0.09898   0.10638   0.10856
  Beta virt. eigenvalues --    0.11175   0.11946   0.12308   0.13319   0.13478

 Mulliken charges and spin densities:
               1          2
     1  C    0.055150  -0.716875
     2  C   -1.529105   1.928675
     3  C    0.902714  -1.584985
     4  C    1.550833  -1.823281
     5  C   -0.938564   0.757353
     6  O   -0.267024  -0.003704
     7  N   -0.122345   0.000395
     8  C    0.358851  -0.626847
     9  C   -0.033569  -0.268729
    10  N   -0.087913  -0.062200
    11  C    0.408116  -0.633825
    12  N   -0.313900  -0.080087
    13  N   -0.460405   0.190779
    14  H   -0.044787   0.193283
    15  H    0.201164  -0.045870
    16  H   -0.051559   0.194197
    17  H    0.140331   0.060976
    18  H   -0.283405   0.424670
    19  H   -0.183428   0.313027
    20  H   -0.172728   0.306514
    21  H   -0.090823   0.296379
    22  H    0.139890  -0.026743
    23  H    0.007094   0.318081
    24  H   -0.084489   0.276376
    25  H   -0.160423   0.294107
    26  H   -0.041752   0.246055
    27  H    0.256481  -0.142257
    28  H   -0.014840   0.282785
    29  H    0.388041  -0.108482
    30  H    0.021710   0.240393
    31  H   -0.549316   0.799841
 Sum of Mulliken charges =  -1.00000   1.00000

 Dipole moment (field-independent basis, Debye):
    X=              1.9798    Y=             -1.4195    Z=              1.1105  Tot=              2.6773
 Quadrupole moment (field-independent basis, Debye-Ang):
   XX=           -170.2605   YY=           -117.1105   ZZ=           -117.5611
   XY=              9.2188   XZ=             -9.5068   YZ=              5.0886

 Summary of Natural Population Analysis:

                                       Natural Population
                Natural  -----------------------------------------------
    Atom  No    Charge         Core      Valence    Rydberg      Total
 -----------------------------------------------------------------------
      C    1   -0.28819      0.99964     2.28264    0.00590     3.28819
      C    2   -0.11550      0.99962     2.10634    0.00954     3.11550
      C    3   -0.28293      0.99965     2.27759    0.00569     3.28293
      C    4   -0.23238      0.99956     2.22325    0.00957     3.23238
      C    5    0.34987      0.99966     1.62846    0.02201     2.65013
      O    6   -0.33376      0.99988     3.32800    0.00588     4.33376
      N    7   -0.32025      0.99967     2.80975    0.01083     3.82025
      C    8   -0.08935      0.99960     2.07917    0.01059     3.08935
      C    9   -0.10412      0.99960     2.09396    0.01056     3.10412
      N   10   -0.31403      0.99964     2.80301    0.01138     3.81403
      C   11    0.30320      0.99962     1.68016    0.01702     2.69680
      N   12   -0.42582      0.99970     2.91669    0.00943     3.92582
      N   13   -0.40698      0.99972     2.89693    0.01033     3.90698
      H   14    0.09536      0.00000     0.40357    0.00107     0.40464
      H   15    0.10462      0.00000     0.39410    0.00128     0.39538
      H   16    0.09906      0.00000     0.40014    0.00079     0.40094
      H   17    0.10270      0.00000     0.39540    0.00190     0.39730
      H   18    0.09726      0.00000     0.40144    0.00130     0.40274
      H   19    0.09874      0.00000     0.40022    0.00104     0.40126
      H   20    0.09909      0.00000     0.39997    0.00094     0.40091
      H   21    0.11535      0.00000     0.38356    0.00109     0.38465
      H   22    0.10271      0.00000     0.39571    0.00159     0.39729
      H   23    0.19338      0.00000     0.30374    0.00288     0.30662
      H   24    0.09850      0.00000     0.40018    0.00133     0.40150
      H   25    0.09822      0.00000     0.40038    0.00141     0.40178
      H   26    0.09257      0.00000     0.40607    0.00136     0.40743
      H   27    0.08857      0.00000     0.40896    0.00247     0.41143
      H   28    0.19081      0.00000     0.30744    0.00175     0.30919
      H   29    0.20265      0.00000     0.29485    0.00250     0.29735
      H   30    0.19121      0.00000     0.30598    0.00281     0.30879
      H   31    0.18943      0.00000     0.29768    0.01288     0.31057
 =======================================================================
   * Total *    0.00000     12.99555    37.82532    0.17913    51.00000

 Normal termination of Gaussian 16 at Mon Dec 14 19:24:06 2020.
