 Gaussian 16, Revision A.03,

 -----------------------------------------------------------
 # opt freq B3LYP/6-31G(d) empiricaldispersion=gd3bj scf=xqc
 -----------------------------------------------------------

 -------------------------------
 CID_105648772_JID_6261_neutraal
 -------------------------------
 Symbolic Z-matrix:
 Charge =  0 Multiplicity = 1

 SCF Done:  E(RB3LYP) =  -785.090253974     A.U. after   14 cycles
 SCF Done:  E(RB3LYP) =  -785.094397601     A.U. after   12 cycles
 SCF Done:  E(RB3LYP) =  -785.095507442     A.U. after   12 cycles
 SCF Done:  E(RB3LYP) =  -785.095982384     A.U. after   12 cycles
 SCF Done:  E(RB3LYP) =  -785.096075711     A.U. after   12 cycles
 SCF Done:  E(RB3LYP) =  -785.096248757     A.U. after   10 cycles
 SCF Done:  E(RB3LYP) =  -785.096283397     A.U. after   11 cycles
 SCF Done:  E(RB3LYP) =  -785.096297373     A.U. after   10 cycles
 SCF Done:  E(RB3LYP) =  -785.096304571     A.U. after   10 cycles
 SCF Done:  E(RB3LYP) =  -785.096308748     A.U. after   10 cycles
 SCF Done:  E(RB3LYP) =  -785.096310482     A.U. after    8 cycles
 SCF Done:  E(RB3LYP) =  -785.096310567     A.U. after    7 cycles
 SCF Done:  E(RB3LYP) =  -785.096310599     A.U. after    7 cycles
 SCF Done:  E(RB3LYP) =  -785.096310625     A.U. after    7 cycles
 SCF Done:  E(RB3LYP) =  -785.096310641     A.U. after    7 cycles
 Optimization completed.
    -- Stationary point found.
 Normal termination of Gaussian 16 at Thu Dec 10 21:54:29 2020.

 --------------------------------------------------------------------
 #N Geom=AllCheck Guess=TCheck SCRF=Check GenChk RB3LYP/6-31G(d) Freq
 --------------------------------------------------------------------

 Structure from the checkpoint file:  "JID_6261.chk"
 -------------------------------
 CID_105648772_JID_6261_neutraal
 -------------------------------
 Charge =  0 Multiplicity = 1

 SCF Done:  E(RB3LYP) =  -785.096310641     A.U. after    1 cycles

  Exact polarizability: 193.079  12.390 128.824   0.692  15.748  98.981
 Approx polarizability: 239.774  24.045 206.305  -2.734  36.977 155.006

                      1                      2                      3
                      A                      A                      A
 Frequencies --     22.3816                25.0476                50.5083
 Red. masses --      4.5461                 5.5076                 3.1270
 Frc consts  --      0.0013                 0.0020                 0.0047
 IR Inten    --      0.2661                 1.3465                 0.1207

                      4                      5                      6
                      A                      A                      A
 Frequencies --     62.9658                88.8255                94.8835
 Red. masses --      4.3819                 6.2655                 5.6496
 Frc consts  --      0.0102                 0.0291                 0.0300
 IR Inten    --      0.5617                 0.5269                 1.8259

                      7                      8                      9
                      A                      A                      A
 Frequencies --    137.3340               161.5824               169.7863
 Red. masses --      5.6279                 3.0906                 3.5798
 Frc consts  --      0.0625                 0.0475                 0.0608
 IR Inten    --      4.6503                 1.7505                 2.6737

                     10                     11                     12
                      A                      A                      A
 Frequencies --    187.9562               218.5609               234.9407
 Red. masses --      5.0826                 2.5629                 1.0484
 Frc consts  --      0.1058                 0.0721                 0.0341
 IR Inten    --      4.0184                 1.5596                 0.1971

                     13                     14                     15
                      A                      A                      A
 Frequencies --    265.7512               312.4351               320.4789
 Red. masses --      1.3007                 4.2119                 2.4888
 Frc consts  --      0.0541                 0.2422                 0.1506
 IR Inten    --      0.0726                 3.8717                 0.2335

                     16                     17                     18
                      A                      A                      A
 Frequencies --    353.0124               354.5411               412.7595
 Red. masses --      4.0810                 2.6409                 2.0448
 Frc consts  --      0.2996                 0.1956                 0.2053
 IR Inten    --      4.1631                 1.7074                 3.8061

                     19                     20                     21
                      A                      A                      A
 Frequencies --    437.7475               461.3823               472.3222
 Red. masses --      1.3665                 3.4095                 2.8500
 Frc consts  --      0.1543                 0.4276                 0.3746
 IR Inten    --    104.8370                 7.2314                 2.2392

                     22                     23                     24
                      A                      A                      A
 Frequencies --    486.6041               537.7627               549.0460
 Red. masses --      2.8203                 1.3729                 2.3691
 Frc consts  --      0.3935                 0.2339                 0.4208
 IR Inten    --     34.3450                54.8703               132.2905

                     25                     26                     27
                      A                      A                      A
 Frequencies --    559.7624               616.5364               661.5237
 Red. masses --      5.1906                 2.9553                 1.5943
 Frc consts  --      0.9582                 0.6619                 0.4111
 IR Inten    --      4.9681                29.2764                95.9002

                     28                     29                     30
                      A                      A                      A
 Frequencies --    696.5357               698.7014               747.6221
 Red. masses --      4.1681                 3.9630                 4.1034
 Frc consts  --      1.1914                 1.1399                 1.3513
 IR Inten    --     39.1884                40.4296                59.9948

                     31                     32                     33
                      A                      A                      A
 Frequencies --    753.9983               782.1387               836.8003
 Red. masses --      1.5574                 3.1231                 2.5514
 Frc consts  --      0.5217                 1.1256                 1.0526
 IR Inten    --     16.5313                 9.8659                 0.0999

                     34                     35                     36
                      A                      A                      A
 Frequencies --    844.1353               885.4305               926.6601
 Red. masses --      2.6991                 1.3385                 1.5584
 Frc consts  --      1.1331                 0.6183                 0.7884
 IR Inten    --      6.7629                 3.1195                12.0512

                     37                     38                     39
                      A                      A                      A
 Frequencies --    942.5740               949.3291               967.0798
 Red. masses --      1.3756                 1.7264                 5.6149
 Frc consts  --      0.7201                 0.9167                 3.0940
 IR Inten    --      6.7696                14.6632                 6.1763

                     40                     41                     42
                      A                      A                      A
 Frequencies --    980.4901               985.3411              1015.5093
 Red. masses --      1.8382                 1.6358                 3.2093
 Frc consts  --      1.0412                 0.9357                 1.9499
 IR Inten    --      2.3753                 9.1617                11.2963

                     43                     44                     45
                      A                      A                      A
 Frequencies --   1052.6832              1070.2133              1096.2995
 Red. masses --      1.3465                 2.6303                 2.1563
 Frc consts  --      0.8791                 1.7750                 1.5269
 IR Inten    --     43.8905               100.3201               103.3120

                     46                     47                     48
                      A                      A                      A
 Frequencies --   1118.9813              1130.8709              1157.3914
 Red. masses --      2.7208                 2.8965                 2.0585
 Frc consts  --      2.0072                 2.1825                 1.6246
 IR Inten    --    111.6280               376.0393                 5.1700

                     49                     50                     51
                      A                      A                      A
 Frequencies --   1179.6321              1208.9266              1244.7602
 Red. masses --      2.3926                 1.7459                 1.5566
 Frc consts  --      1.9616                 1.5034                 1.4210
 IR Inten    --     16.6310                 2.4515                 5.5550

                     52                     53                     54
                      A                      A                      A
 Frequencies --   1250.3592              1263.3631              1275.3000
 Red. masses --      1.4513                 2.1845                 1.7022
 Frc consts  --      1.3368                 2.0543                 1.6311
 IR Inten    --     95.2608                11.0609                28.6545

                     55                     56                     57
                      A                      A                      A
 Frequencies --   1286.6473              1309.1474              1345.3345
 Red. masses --      1.4293                 1.6170                 1.4049
 Frc consts  --      1.3941                 1.6329                 1.4982
 IR Inten    --     14.0745                16.2442                 3.6848

                     58                     59                     60
                      A                      A                      A
 Frequencies --   1378.0989              1391.9063              1397.4168
 Red. masses --      1.4132                 1.6595                 1.4064
 Frc consts  --      1.5813                 1.8943                 1.6181
 IR Inten    --      3.3295                25.4863                 5.7004

                     61                     62                     63
                      A                      A                      A
 Frequencies --   1412.2575              1417.3318              1425.3721
 Red. masses --      3.0226                 1.6202                 1.9998
 Frc consts  --      3.5519                 1.9176                 2.3938
 IR Inten    --    113.0176                25.2766                 8.8539

                     64                     65                     66
                      A                      A                      A
 Frequencies --   1431.6861              1450.8954              1453.5293
 Red. masses --      1.2773                 1.2730                 1.2594
 Frc consts  --      1.5426                 1.5789                 1.5677
 IR Inten    --     10.3922                39.7719                39.2192

                     67                     68                     69
                      A                      A                      A
 Frequencies --   1514.2332              1518.2270              1522.4777
 Red. masses --      1.1534                 1.1232                 1.0721
 Frc consts  --      1.5582                 1.5254                 1.4642
 IR Inten    --      1.1914                10.6227                16.8732

                     70                     71                     72
                      A                      A                      A
 Frequencies --   1529.1598              1536.6209              1540.9672
 Red. masses --      1.0826                 1.0584                 1.1207
 Frc consts  --      1.4915                 1.4725                 1.5679
 IR Inten    --     19.0529                 5.0337                17.0725

                     73                     74                     75
                      A                      A                      A
 Frequencies --   1544.7251              1606.1777              1652.9688
 Red. masses --      1.3606                 5.9524                 6.7147
 Frc consts  --      1.9128                 9.0475                10.8095
 IR Inten    --      5.2100               699.1201               163.6619

                     76                     77                     78
                      A                      A                      A
 Frequencies --   1822.9825              3001.6770              3022.1755
 Red. masses --      9.4851                 1.0823                 1.0664
 Frc consts  --     18.5719                 5.7455                 5.7389
 IR Inten    --    450.2974                36.2397                36.1267

                     79                     80                     81
                      A                      A                      A
 Frequencies --   3027.2099              3040.7019              3045.7218
 Red. masses --      1.0703                 1.0356                 1.0372
 Frc consts  --      5.7789                 5.6413                 5.6689
 IR Inten    --     41.0142                30.7528                13.3951

                     82                     83                     84
                      A                      A                      A
 Frequencies --   3072.5253              3090.8722              3105.9146
 Red. masses --      1.0918                 1.0901                 1.1016
 Frc consts  --      6.0728                 6.1359                 6.2614
 IR Inten    --     13.7392                62.8340                14.0569

                     85                     86                     87
                      A                      A                      A
 Frequencies --   3110.4439              3114.3760              3117.5650
 Red. masses --      1.1014                 1.1020                 1.1015
 Frc consts  --      6.2782                 6.2975                 6.3077
 IR Inten    --     52.0492                37.6802                51.2640

                     88                     89                     90
                      A                      A                      A
 Frequencies --   3125.1276              3280.6334              3293.2677
 Red. masses --      1.0933                 1.0931                 1.1007
 Frc consts  --      6.2909                 6.9316                 7.0335
 IR Inten    --     15.6955                 4.2726                 2.0726

                     91                     92                     93
                      A                      A                      A
 Frequencies --   3561.7918              3691.9283              3708.4944
 Red. masses --      1.0744                 1.0652                 1.0642
 Frc consts  --      8.0308                 8.5547                 8.6231
 IR Inten    --     21.2563                35.5545                89.8917

 - Thermochemistry -
 -------------------
 Temperature   298.150 Kelvin.  Pressure   1.00000 Atm.
 Atom     1 has atomic number  6 and mass  12.00000

 Molecular mass:   227.11576 amu.
 Principal axes and moments of inertia in atomic units:
                           1         2         3
     Eigenvalues --  1763.349849098.634749897.27609
           X            0.99984  -0.01730   0.00335
           Y            0.01724   0.99970   0.01716
           Z           -0.00365  -0.01710   0.99985
 This molecule is an asymmetric top.
 Rotational symmetry number  1.
 Warning -- assumption of classical behavior for rotation
           may cause significant error
 Rotational temperatures (Kelvin)      0.04912     0.00952     0.00875
 Rotational constants (GHZ):           1.02347     0.19835     0.18235
 Zero-point vibrational energy     731014.9 (Joules/Mol)
                                  174.71676 (Kcal/Mol)
 Warning -- explicit consideration of  26 degrees of freedom as
           vibrations may cause significant error
 Vibrational temperatures:     32.20    36.04    72.67    90.59   127.80
          (Kelvin)            136.52   197.59   232.48   244.28   270.43
                              314.46   338.03   382.36   449.52   461.10
                              507.91   510.11   593.87   629.82   663.83
                              679.57   700.11   773.72   789.95   805.37
                              887.06   951.79  1002.16  1005.28  1075.66
                             1084.84  1125.32  1203.97  1214.52  1273.94
                             1333.26  1356.15  1365.87  1391.41  1410.71
                             1417.69  1461.09  1514.58  1539.80  1577.33
                             1609.96  1627.07  1665.23  1697.23  1739.38
                             1790.93  1798.99  1817.70  1834.87  1851.20
                             1883.57  1935.64  1982.78  2002.64  2010.57
                             2031.92  2039.22  2050.79  2059.88  2087.51
                             2091.30  2178.64  2184.39  2190.51  2200.12
                             2210.85  2217.11  2222.51  2310.93  2378.25
                             2622.87  4318.74  4348.24  4355.48  4374.89
                             4382.11  4420.68  4447.08  4468.72  4475.24
                             4480.89  4485.48  4496.36  4720.10  4738.28
                             5124.62  5311.86  5335.70

 Zero-point correction=                           0.278429 (Hartree/Particle)
 Thermal correction to Energy=                    0.295194
 Thermal correction to Enthalpy=                  0.296138
 Thermal correction to Gibbs Free Energy=         0.232045
 Sum of electronic and zero-point Energies=           -784.817882
 Sum of electronic and thermal Energies=              -784.801116
 Sum of electronic and thermal Enthalpies=            -784.800172
 Sum of electronic and thermal Free Energies=         -784.864266

                     E (Thermal)             CV                S
                      KCal/Mol        Cal/Mol-Kelvin    Cal/Mol-Kelvin
 Total                  185.237             62.279            134.897
 Electronic               0.000              0.000              0.000
 Translational            0.889              2.981             42.163
 Rotational               0.889              2.981             33.429
 Vibrational            183.460             56.318             59.305
 Vibration     1          0.593              1.985              6.411
 Vibration     2          0.593              1.985              6.187
 Vibration     3          0.595              1.977              4.797
 Vibration     4          0.597              1.972              4.362
 Vibration     5          0.602              1.957              3.686
 Vibration     6          0.603              1.953              3.557
 Vibration     7          0.614              1.916              2.841
 Vibration     8          0.622              1.890              2.531
 Vibration     9          0.625              1.880              2.438
 Vibration    10          0.633              1.856              2.248
 Vibration    11          0.646              1.813              1.971
 Vibration    12          0.655              1.787              1.841
 Vibration    13          0.672              1.736              1.624
 Vibration    14          0.701              1.650              1.349
 Vibration    15          0.706              1.634              1.308
 Vibration    16          0.729              1.569              1.153
 Vibration    17          0.730              1.566              1.146
 Vibration    18          0.777              1.443              0.917
 Vibration    19          0.798              1.388              0.834
 Vibration    20          0.819              1.336              0.762
 Vibration    21          0.829              1.311              0.731
 Vibration    22          0.843              1.280              0.692
 Vibration    23          0.893              1.167              0.570
 Vibration    24          0.904              1.142              0.546
 Vibration    25          0.915              1.118              0.524
 Vibration    26          0.976              0.997              0.422

                           ! Non-Optimized Parameters !
 Normal termination of Gaussian 16 at Thu Dec 10 22:03:05 2020.

 ----------------------------------------------------------------------
 # B3LYP/6-311++G(d,p) empiricaldispersion=gd3bj scf=xqc pop=npa geom=c
 heck
 ----------------------------------------------------------------------

 ---------------------------------------
 CID_105648772_JID_6261_Energie_neutraal
 ---------------------------------------
 Structure from the checkpoint file:  "JID_6261.chk"
 Charge =  0 Multiplicity = 1

 SCF Done:  E(RB3LYP) =  -785.343203666     A.U. after   15 cycles
 Normal termination of Gaussian 16 at Thu Dec 10 22:07:11 2020.

 ----------------------------------------------------------------------
 # B3LYP/6-311++G(d,p) empiricaldispersion=gd3bj scf=xqc pop=npa geom=c
 heck
 ----------------------------------------------------------------------

 -------------------------------------
 CID_105648772_JID_6261_Energie_kation
 -------------------------------------
 Structure from the checkpoint file:  "JID_6261.chk"
 Charge =  1 Multiplicity = 2

 SCF Done:  E(UB3LYP) =  -785.053531476     A.U. after   22 cycles
 Normal termination of Gaussian 16 at Thu Dec 10 22:14:43 2020.
 Gaussian 16:  ES64L-G16RevA.03 25-Dec-2016

 ----------------------------------------------------------------------
 # B3LYP/6-311++G(d,p) empiricaldispersion=gd3bj scf=xqc pop=npa geom=c
 heck
 ----------------------------------------------------------------------

 ------------------------------------
 CID_105648772_JID_6261_Energie_anion
 ------------------------------------
 Structure from the checkpoint file:  "JID_6261.chk"
 Charge = -1 Multiplicity = 2

                         Standard orientation:
 ---------------------------------------------------------------------
 Center     Atomic      Atomic             Coordinates (Angstroms)
 Number     Number       Type             X           Y           Z
 ---------------------------------------------------------------------
      1          6           0       -4.522009    0.420389   -1.403286
      2          6           0       -3.526894    1.075536   -0.436197
      3          6           0       -4.061855    2.425835    0.057286
      4          6           0       -3.199070    0.168296    0.762990
      5          6           0       -2.614306   -1.216001    0.438978
      6          6           0       -1.354480   -1.170746   -0.433093
      7          7           0       -0.301301   -0.425882    0.257167
      8          6           0        1.006661   -0.605372   -0.123704
      9          6           0        1.672281   -1.603264   -0.806261
     10          6           0        3.040144   -1.215340   -0.805545
     11          6           0        3.127406   -0.019956   -0.141805
     12          8           0        1.861614    0.357277    0.280896
     13          6           0        4.216390    0.880162    0.177802
     14          8           0        4.123040    1.934468    0.776503
     15          8           0        5.405246    0.395703   -0.286556
     16          8           0       -2.343911   -1.933803    1.636706
     17          1           0       -5.451229    0.158144   -0.881731
     18          1           0       -4.122866   -0.495216   -1.853054
     19          1           0       -4.779205    1.103985   -2.220016
     20          1           0       -2.596020    1.271869   -0.990629
     21          1           0       -5.001540    2.292582    0.607709
     22          1           0       -3.348825    2.917271    0.729428
     23          1           0       -4.258380    3.103573   -0.781044
     24          1           0       -2.501967    0.691828    1.434231
     25          1           0       -4.107368    0.004034    1.356339
     26          1           0       -3.362541   -1.810959   -0.094654
     27          1           0       -1.003113   -2.197137   -0.563587
     28          1           0       -1.566185   -0.755576   -1.429185
     29          1           0       -0.517733    0.550823    0.427267
     30          1           0        1.240088   -2.487960   -1.247485
     31          1           0        3.870953   -1.746103   -1.247454
     32          1           0        6.068119    1.060920   -0.026984
     33          1           0       -1.526609   -1.547308    1.997296
 ---------------------------------------------------------------------

 SCF Done:  E(UB3LYP) =  -785.340389946     A.U. after   33 cycles
 SCF Done:  E(UB3LYP) =  -785.340389946     a.u. after    1 cycles

 The electronic state is 2-A.
 Alpha  occ. eigenvalues --  -19.06996 -19.04752 -19.03080 -18.97474 -14.24151
 Alpha  occ. eigenvalues --  -10.16471 -10.15321 -10.13409 -10.11538 -10.09974
 Alpha  occ. eigenvalues --  -10.09013 -10.07915 -10.07199 -10.06688 -10.05944
 Alpha  occ. eigenvalues --  -10.05893  -1.00781  -0.98040  -0.93734  -0.88858
 Alpha  occ. eigenvalues --   -0.84277  -0.72760  -0.69496  -0.67102  -0.63506
 Alpha  occ. eigenvalues --   -0.60012  -0.59593  -0.53943  -0.52538  -0.49368
 Alpha  occ. eigenvalues --   -0.47135  -0.46322  -0.44027  -0.41069  -0.39980
 Alpha  occ. eigenvalues --   -0.38319  -0.37989  -0.36544  -0.36089  -0.35489
 Alpha  occ. eigenvalues --   -0.34844  -0.32792  -0.31948  -0.31715  -0.30987
 Alpha  occ. eigenvalues --   -0.30076  -0.29634  -0.29107  -0.28574  -0.27532
 Alpha  occ. eigenvalues --   -0.26847  -0.26363  -0.24617  -0.24113  -0.23581
 Alpha  occ. eigenvalues --   -0.21331  -0.20272  -0.18485  -0.17821  -0.15886
 Alpha  occ. eigenvalues --   -0.09789   0.04128
 Alpha virt. eigenvalues --    0.05650   0.07073   0.07722   0.07931   0.08178
 Alpha virt. eigenvalues --    0.09052   0.09575   0.10056   0.10554   0.10788
 Alpha virt. eigenvalues --    0.11647   0.11982   0.13243   0.13536   0.14148

  Beta  occ. eigenvalues --  -19.06865 -19.04709 -19.03070 -18.97258 -14.24148
  Beta  occ. eigenvalues --  -10.16250 -10.15161 -10.13401 -10.11519 -10.09946
  Beta  occ. eigenvalues --  -10.09006 -10.07907 -10.07177 -10.06644 -10.06001
  Beta  occ. eigenvalues --  -10.05694  -1.00558  -0.97825  -0.93710  -0.88540
  Beta  occ. eigenvalues --   -0.84201  -0.72734  -0.69265  -0.66997  -0.63299
  Beta  occ. eigenvalues --   -0.59933  -0.59522  -0.53653  -0.52382  -0.49261
  Beta  occ. eigenvalues --   -0.47073  -0.46271  -0.43871  -0.40985  -0.39883
  Beta  occ. eigenvalues --   -0.38223  -0.37885  -0.36412  -0.35828  -0.34959
  Beta  occ. eigenvalues --   -0.34761  -0.32679  -0.31880  -0.31059  -0.30822
  Beta  occ. eigenvalues --   -0.29996  -0.29565  -0.29068  -0.28441  -0.27500
  Beta  occ. eigenvalues --   -0.26682  -0.26329  -0.24570  -0.24081  -0.23503
  Beta  occ. eigenvalues --   -0.20985  -0.19493  -0.18422  -0.17057  -0.15690
  Beta  occ. eigenvalues --   -0.09158
  Beta virt. eigenvalues --    0.06298   0.07419   0.07769   0.08261   0.08339
  Beta virt. eigenvalues --    0.08515   0.09116   0.09847   0.10201   0.10799
  Beta virt. eigenvalues --    0.11049   0.11770   0.12121   0.13310   0.13680

 Mulliken charges and spin densities:
               1          2
     1  C    1.158414  -1.808610
     2  C   -1.100624   1.425541
     3  C   -0.056026  -0.519408
     4  C    0.449295  -0.751470
     5  C   -0.505355   0.122141
     6  C   -0.016588  -0.370659
     7  N   -0.163637   0.070373
     8  C   -0.497115  -0.099234
     9  C    0.282622   0.180399
    10  C   -0.558114   0.012684
    11  C   -0.025369  -0.058021
    12  O   -0.107575   0.020899
    13  C    0.555868   0.012186
    14  O   -0.391388   0.074565
    15  O   -0.226174   0.007693
    16  O   -0.173908   0.005905
    17  H   -0.137464   0.287242
    18  H   -0.390884   0.522889
    19  H   -0.374525   0.515378
    20  H    0.122227   0.022271
    21  H   -0.035174   0.168517
    22  H   -0.001868   0.131031
    23  H   -0.153913   0.297904
    24  H    0.089690   0.048488
    25  H    0.065408   0.115957
    26  H    0.071836   0.156136
    27  H    0.219535  -0.027405
    28  H   -0.065440   0.280700
    29  H    0.320473  -0.034999
    30  H   -0.029279   0.176578
    31  H    0.152004  -0.007673
    32  H    0.265320   0.000352
    33  H    0.257727   0.021650
 Sum of Mulliken charges =  -1.00000   1.00000

 Dipole moment (field-independent basis, Debye):
    X=              2.0160    Y=             -2.0042    Z=              1.4752  Tot=              3.2027
 Quadrupole moment (field-independent basis, Debye-Ang):
   XX=           -188.2868   YY=           -130.7349   ZZ=           -127.0194
   XY=             -3.5644   XZ=            -15.1324   YZ=              1.9542

 Summary of Natural Population Analysis:

                                       Natural Population
                Natural  -----------------------------------------------
    Atom  No    Charge         Core      Valence    Rydberg      Total
 -----------------------------------------------------------------------
      C    1   -0.28663      0.99965     2.28034    0.00664     3.28663
      C    2   -0.11885      0.99961     2.10981    0.00942     3.11885
      C    3   -0.28226      0.99965     2.27666    0.00594     3.28226
      C    4   -0.20110      0.99959     2.19225    0.00925     3.20110
      C    5    0.05995      0.99955     1.92510    0.01540     2.94005
      C    6   -0.09811      0.99960     2.08758    0.01093     3.09811
      N    7   -0.33190      0.99967     2.82217    0.01006     3.83190
      C    8    0.29072      0.99949     1.69481    0.01498     2.70928
      C    9   -0.20962      0.99952     2.20222    0.00788     3.20962
      C   10   -0.07194      0.99954     2.06347    0.00893     3.07194
      C   11    0.07033      0.99941     1.91569    0.01458     2.92967
      O   12   -0.22409      0.99985     3.21651    0.00773     4.22409
      C   13    0.39410      0.99964     1.58308    0.02318     2.60590
      O   14   -0.30350      0.99987     3.29638    0.00725     4.30350
      O   15   -0.35430      0.99988     3.34876    0.00566     4.35430
      O   16   -0.37294      0.99990     3.36640    0.00664     4.37294
      H   17    0.09670      0.00000     0.40215    0.00115     0.40330
      H   18    0.10022      0.00000     0.39814    0.00165     0.39978
      H   19    0.10267      0.00000     0.39596    0.00137     0.39733
      H   20    0.09131      0.00000     0.40622    0.00247     0.40869
      H   21    0.09632      0.00000     0.40281    0.00087     0.40368
      H   22    0.09763      0.00000     0.40160    0.00076     0.40237
      H   23    0.10130      0.00000     0.39785    0.00085     0.39870
      H   24    0.09470      0.00000     0.40394    0.00137     0.40530
      H   25    0.10326      0.00000     0.39562    0.00111     0.39674
      H   26    0.09150      0.00000     0.40726    0.00124     0.40850
      H   27    0.10210      0.00000     0.39658    0.00133     0.39790
      H   28    0.09550      0.00000     0.40288    0.00162     0.40450
      H   29    0.19129      0.00000     0.30535    0.00337     0.30871
      H   30    0.10620      0.00000     0.39284    0.00096     0.39380
      H   31    0.10557      0.00000     0.39338    0.00104     0.39443
      H   32    0.23271      0.00000     0.26435    0.00294     0.26729
      H   33    0.23117      0.00000     0.26601    0.00282     0.26883
 =======================================================================
   * Total *   -0.00000     15.99443    44.81415    0.19141    61.00000

 Normal termination of Gaussian 16 at Thu Dec 10 22:26:21 2020.
