 Gaussian 16, Revision A.03,

 -----------------------------------------------------------
 # opt freq B3LYP/6-31G(d) empiricaldispersion=gd3bj scf=xqc
 -----------------------------------------------------------

 -----------------------------
 CID_18917405_JID_912_neutraal
 -----------------------------
 Symbolic Z-matrix:
 Charge =  0 Multiplicity = 1

 SCF Done:  E(RB3LYP) =  -474.764261821     A.U. after   14 cycles
 SCF Done:  E(RB3LYP) =  -474.766670914     A.U. after   12 cycles
 SCF Done:  E(RB3LYP) =  -474.766964107     A.U. after   12 cycles
 SCF Done:  E(RB3LYP) =  -474.766921546     A.U. after   12 cycles
 SCF Done:  E(RB3LYP) =  -474.767127009     A.U. after   11 cycles
 SCF Done:  E(RB3LYP) =  -474.767143764     A.U. after   10 cycles
 SCF Done:  E(RB3LYP) =  -474.767149339     A.U. after    8 cycles
 SCF Done:  E(RB3LYP) =  -474.767150493     A.U. after    8 cycles
 SCF Done:  E(RB3LYP) =  -474.767150835     A.U. after    8 cycles
 Optimization completed.
    -- Stationary point found.
 Normal termination of Gaussian 16 at Tue Dec  8 13:40:18 2020.

 --------------------------------------------------------------------
 #N Geom=AllCheck Guess=TCheck SCRF=Check GenChk RB3LYP/6-31G(d) Freq
 --------------------------------------------------------------------

 Structure from the checkpoint file:  "JID_912.chk"
 -----------------------------
 CID_18917405_JID_912_neutraal
 -----------------------------
 Charge =  0 Multiplicity = 1

 SCF Done:  E(RB3LYP) =  -474.767150835     A.U. after    1 cycles

  Exact polarizability: 102.673   0.533  76.831  -5.496   0.086  60.390
 Approx polarizability: 133.529   0.578 133.228  -9.666  -2.392  87.515

                      1                      2                      3
                      A                      A                      A
 Frequencies --     66.3545                84.3651               145.6184
 Red. masses --      4.2792                 3.9033                 4.0162
 Frc consts  --      0.0111                 0.0164                 0.0502
 IR Inten    --      2.2178                 0.8785                 2.8978

                      4                      5                      6
                      A                      A                      A
 Frequencies --    231.3950               262.0155               275.7156
 Red. masses --      1.0641                 1.2028                 3.5757
 Frc consts  --      0.0336                 0.0487                 0.1602
 IR Inten    --      0.0895                 0.1582                 1.0404

                      7                      8                      9
                      A                      A                      A
 Frequencies --    295.8652               322.7021               332.5715
 Red. masses --      2.0248                 1.3867                 3.3556
 Frc consts  --      0.1044                 0.0851                 0.2187
 IR Inten    --     12.5162                63.5844                11.7182

                     10                     11                     12
                      A                      A                      A
 Frequencies --    361.1651               404.9100               458.0739
 Red. masses --      2.0887                 2.1364                 3.0980
 Frc consts  --      0.1605                 0.2064                 0.3830
 IR Inten    --     14.5317                 1.7861                13.6856

                     13                     14                     15
                      A                      A                      A
 Frequencies --    524.6951               619.9174               702.2370
 Red. masses --      2.8022                 2.3402                 4.0584
 Frc consts  --      0.4545                 0.5299                 1.1792
 IR Inten    --     12.5755                29.7482                 5.2528

                     16                     17                     18
                      A                      A                      A
 Frequencies --    728.5120               773.5659               792.2343
 Red. masses --      1.6190                 3.6963                 4.6046
 Frc consts  --      0.5063                 1.3032                 1.7028
 IR Inten    --     84.9639                 0.3674                10.0496

                     19                     20                     21
                      A                      A                      A
 Frequencies --    889.4627               901.7424               933.1581
 Red. masses --      1.3608                 2.2364                 1.9940
 Frc consts  --      0.6343                 1.0714                 1.0230
 IR Inten    --     10.9722                14.5947                15.6021

                     22                     23                     24
                      A                      A                      A
 Frequencies --    945.5053               985.4844               987.8362
 Red. masses --      1.5565                 2.0294                 4.8188
 Frc consts  --      0.8199                 1.1612                 2.7705
 IR Inten    --      4.4226                 1.9985                13.4896

                     25                     26                     27
                      A                      A                      A
 Frequencies --   1037.6669              1061.3059              1122.0286
 Red. masses --      1.3853                 3.5689                 2.9879
 Frc consts  --      0.8788                 2.3684                 2.2163
 IR Inten    --      0.8399                25.3365                18.1718

                     28                     29                     30
                      A                      A                      A
 Frequencies --   1146.7711              1176.7472              1208.6444
 Red. masses --      1.5573                 1.4313                 2.2987
 Frc consts  --      1.2066                 1.1677                 1.9785
 IR Inten    --     47.4764                34.2798                 2.7268

                     31                     32                     33
                      A                      A                      A
 Frequencies --   1219.6874              1286.7946              1299.5752
 Red. masses --      2.9946                 1.9883                 1.6480
 Frc consts  --      2.6247                 1.9398                 1.6398
 IR Inten    --     50.2453                24.4403                26.5646

                     34                     35                     36
                      A                      A                      A
 Frequencies --   1318.3913              1364.1805              1396.3958
 Red. masses --      3.0183                 1.6112                 1.9497
 Frc consts  --      3.0910                 1.7666                 2.2400
 IR Inten    --      2.7099                14.4825                46.5163

                     37                     38                     39
                      A                      A                      A
 Frequencies --   1431.1807              1438.0955              1450.1781
 Red. masses --      1.2879                 2.6503                 1.3297
 Frc consts  --      1.5543                 3.2293                 1.6476
 IR Inten    --      8.6920                 8.0136                 7.6897

                     40                     41                     42
                      A                      A                      A
 Frequencies --   1493.8670              1504.2385              1512.5682
 Red. masses --      1.2837                 2.3057                 1.0477
 Frc consts  --      1.6879                 3.0739                 1.4123
 IR Inten    --     11.1686                25.3527                 0.1477

                     43                     44                     45
                      A                      A                      A
 Frequencies --   1518.9933              1531.2555              1538.5819
 Red. masses --      1.1601                 1.0641                 1.0695
 Frc consts  --      1.5770                 1.4700                 1.4916
 IR Inten    --      3.1938                 0.3026                10.9836

                     46                     47                     48
                      A                      A                      A
 Frequencies --   1597.9209              3045.7984              3050.2972
 Red. masses --      4.4515                 1.0385                 1.0459
 Frc consts  --      6.6969                 5.6762                 5.7338
 IR Inten    --     53.7627                10.6203                26.1971

                     49                     50                     51
                      A                      A                      A
 Frequencies --   3055.5827              3111.2931              3117.9789
 Red. masses --      1.0615                 1.0994                 1.0983
 Frc consts  --      5.8391                 6.2701                 6.2910
 IR Inten    --     18.6553                 4.1610                41.5767

                     52                     53                     54
                      A                      A                      A
 Frequencies --   3130.9336              3136.6695              3145.7281
 Red. masses --      1.0973                 1.1004                 1.1020
 Frc consts  --      6.3374                 6.3787                 6.4248
 IR Inten    --      3.4404                22.8220                20.5633

                     55                     56                     57
                      A                      A                      A
 Frequencies --   3276.2966              3642.5107              3739.5838
 Red. masses --      1.0969                 1.0823                 1.0660
 Frc consts  --      6.9371                 8.4604                 8.7836
 IR Inten    --      9.6921               100.1498                12.3826

 - Thermochemistry -
 -------------------
 Temperature   298.150 Kelvin.  Pressure   1.00000 Atm.
 Atom     1 has atomic number  6 and mass  12.00000

 Molecular mass:   141.09021 amu.
 Principal axes and moments of inertia in atomic units:
                           1         2         3
     Eigenvalues --   580.818642155.840022308.79061
           X            0.99998  -0.00609   0.00173
           Y            0.00603   0.99950   0.03100
           Z           -0.00192  -0.03099   0.99952
 This molecule is an asymmetric top.
 Rotational symmetry number  1.
 Warning -- assumption of classical behavior for rotation
           may cause significant error
 Rotational temperatures (Kelvin)      0.14912     0.04018     0.03751
 Rotational constants (GHZ):           3.10724     0.83714     0.78168
 Zero-point vibrational energy     467338.2 (Joules/Mol)
                                  111.69651 (Kcal/Mol)
 Warning -- explicit consideration of  14 degrees of freedom as
           vibrations may cause significant error
 Vibrational temperatures:     95.47   121.38   209.51   332.93   376.98
          (Kelvin)            396.69   425.68   464.30   478.50   519.64
                              582.58   659.07   754.92   891.92  1010.36
                             1048.17  1112.99  1139.85  1279.74  1297.41
                             1342.61  1360.37  1417.89  1421.28  1492.97
                             1526.98  1614.35  1649.95  1693.08  1738.97
                             1754.86  1851.41  1869.80  1896.87  1962.75
                             2009.10  2059.15  2069.10  2086.48  2149.34
                             2164.26  2176.25  2185.49  2203.14  2213.68
                             2299.05  4382.22  4388.70  4396.30  4476.46
                             4486.08  4504.72  4512.97  4526.00  4713.86
                             5240.76  5380.43

 Zero-point correction=                           0.178000 (Hartree/Particle)
 Thermal correction to Energy=                    0.187864
 Thermal correction to Enthalpy=                  0.188808
 Thermal correction to Gibbs Free Energy=         0.143080
 Sum of electronic and zero-point Energies=           -474.589151
 Sum of electronic and thermal Energies=              -474.579287
 Sum of electronic and thermal Enthalpies=            -474.578343
 Sum of electronic and thermal Free Energies=         -474.624071

                     E (Thermal)             CV                S
                      KCal/Mol        Cal/Mol-Kelvin    Cal/Mol-Kelvin
 Total                  117.886             37.361             96.243
 Electronic               0.000              0.000              0.000
 Translational            0.889              2.981             40.744
 Rotational               0.889              2.981             29.448
 Vibrational            116.109             31.400             26.051
 Vibration     1          0.598              1.970              4.259
 Vibration     2          0.601              1.960              3.787
 Vibration     3          0.617              1.907              2.729
 Vibration     4          0.653              1.793              1.868
 Vibration     5          0.669              1.742              1.648
 Vibration     6          0.677              1.718              1.560
 Vibration     7          0.690              1.681              1.440
 Vibration     8          0.708              1.630              1.296
 Vibration     9          0.715              1.610              1.248
 Vibration    10          0.735              1.552              1.117
 Vibration    11          0.770              1.460              0.945
 Vibration    12          0.816              1.343              0.772
 Vibration    13          0.880              1.195              0.599
 Vibration    14          0.980              0.990              0.417

                           ! Non-Optimized Parameters !
 Normal termination of Gaussian 16 at Tue Dec  8 13:47:44 2020.

 ----------------------------------------------------------------------
 # B3LYP/6-311++G(d,p) empiricaldispersion=gd3bj scf=xqc pop=npa geom=c
 heck
 ----------------------------------------------------------------------

 -------------------------------------
 CID_18917405_JID_912_Energie_neutraal
 -------------------------------------
 Structure from the checkpoint file:  "JID_912.chk"
 Charge =  0 Multiplicity = 1

 SCF Done:  E(RB3LYP) =  -474.912208292     A.U. after   14 cycles
 Normal termination of Gaussian 16 at Tue Dec  8 13:52:39 2020.

 ----------------------------------------------------------------------
 # B3LYP/6-311++G(d,p) empiricaldispersion=gd3bj scf=xqc pop=npa geom=c
 heck
 ----------------------------------------------------------------------

 -----------------------------------
 CID_18917405_JID_912_Energie_kation
 -----------------------------------
 Structure from the checkpoint file:  "JID_912.chk"
 Charge =  1 Multiplicity = 2

 SCF Done:  E(UB3LYP) =  -474.569284249     A.U. after   26 cycles
 Normal termination of Gaussian 16 at Tue Dec  8 14:02:06 2020.
 Gaussian 16:  ES64L-G16RevA.03 25-Dec-2016

 ----------------------------------------------------------------------
 # B3LYP/6-311++G(d,p) empiricaldispersion=gd3bj scf=xqc pop=npa geom=c
 heck
 ----------------------------------------------------------------------

 ----------------------------------
 CID_18917405_JID_912_Energie_anion
 ----------------------------------
 Structure from the checkpoint file:  "JID_912.chk"
 Charge = -1 Multiplicity = 2

                         Standard orientation:
 ---------------------------------------------------------------------
 Center     Atomic      Atomic             Coordinates (Angstroms)
 Number     Number       Type             X           Y           Z
 ---------------------------------------------------------------------
      1          6           0        1.466188   -0.112755    1.560948
      2          6           0        1.607273   -0.011024    0.039355
      3          6           0        2.987338   -0.488462   -0.420601
      4          6           0        0.507684   -0.805178   -0.690033
      5          6           0       -0.885701   -0.408836   -0.321309
      6          7           0       -1.890923   -1.220877   -0.013198
      7          6           0       -2.922228   -0.356317    0.217227
      8          7           0       -2.628269    0.929763    0.080467
      9          7           0       -1.319118    0.871648   -0.275008
     10          8           0        1.415534    1.360172   -0.382615
     11          1           0        1.564123   -1.151014    1.894611
     12          1           0        0.493544    0.263689    1.888952
     13          1           0        2.250281    0.472699    2.057688
     14          1           0        3.153383   -1.537276   -0.151990
     15          1           0        3.085427   -0.383947   -1.505581
     16          1           0        3.777114    0.106686    0.054162
     17          1           0        0.658024   -0.672629   -1.769226
     18          1           0        0.615336   -1.870814   -0.473175
     19          1           0       -3.914427   -0.683580    0.496067
     20          1           0       -0.751307    1.699404   -0.398198
     21          1           0        2.049077    1.907097    0.108252
 ---------------------------------------------------------------------

 SCF Done:  E(UB3LYP) =  -474.902912831     A.U. after   28 cycles

 The electronic state is 2-A.
 Alpha  occ. eigenvalues --  -19.01520 -14.28567 -14.24033 -14.20433 -10.14268
 Alpha  occ. eigenvalues --  -10.13100 -10.11996 -10.08086 -10.05059 -10.04822
 Alpha  occ. eigenvalues --   -0.97549  -0.91819  -0.79432  -0.74135  -0.68811
 Alpha  occ. eigenvalues --   -0.61131  -0.58539  -0.53088  -0.51386  -0.48146
 Alpha  occ. eigenvalues --   -0.42891  -0.38936  -0.37514  -0.36341  -0.34145
 Alpha  occ. eigenvalues --   -0.33603  -0.30892  -0.30328  -0.29307  -0.27095
 Alpha  occ. eigenvalues --   -0.25626  -0.25012  -0.23110  -0.22720  -0.19954
 Alpha  occ. eigenvalues --   -0.18460  -0.17519  -0.16325   0.04717
 Alpha virt. eigenvalues --    0.08210   0.08350   0.08970   0.09778   0.10200
 Alpha virt. eigenvalues --    0.10727   0.11451   0.12236   0.12703   0.13284
 Alpha virt. eigenvalues --    0.13665   0.14699   0.14964   0.16424   0.16767

  Beta  occ. eigenvalues --  -19.01452 -14.28549 -14.24030 -14.20429 -10.14268
  Beta  occ. eigenvalues --  -10.13096 -10.11995 -10.08059 -10.05003 -10.04759
  Beta  occ. eigenvalues --   -0.97538  -0.91684  -0.79420  -0.74110  -0.68753
  Beta  occ. eigenvalues --   -0.61071  -0.58434  -0.53062  -0.51364  -0.48036
  Beta  occ. eigenvalues --   -0.42836  -0.38850  -0.37477  -0.36309  -0.34093
  Beta  occ. eigenvalues --   -0.33569  -0.30842  -0.30268  -0.29265  -0.27026
  Beta  occ. eigenvalues --   -0.25549  -0.24957  -0.23087  -0.22653  -0.19940
  Beta  occ. eigenvalues --   -0.18453  -0.17453  -0.16310
  Beta virt. eigenvalues --    0.07594   0.08395   0.09327   0.09883   0.10309
  Beta virt. eigenvalues --    0.10790   0.11368   0.11970   0.12689   0.13217
  Beta virt. eigenvalues --    0.13401   0.14167   0.14936   0.15233   0.16611

 Mulliken charges and spin densities:
               1          2
     1  C    1.194550  -1.767804
     2  C   -2.723915   3.075373
     3  C    2.058906  -2.575016
     4  C    2.670783  -4.277413
     5  C   -1.041888   1.686336
     6  N   -0.150287   0.061017
     7  C   -0.252797   0.369861
     8  N   -0.051182  -0.004962
     9  N   -0.157133  -0.014707
    10  O   -0.199457  -0.029683
    11  H   -0.144615   0.289299
    12  H    0.003975   0.158996
    13  H   -0.709317   0.882753
    14  H   -0.310007   0.453321
    15  H   -0.367948   0.526295
    16  H   -0.619280   0.775984
    17  H    0.028054   0.176833
    18  H   -0.124886   0.323743
    19  H    0.076483   0.072942
    20  H    0.168085   0.176357
    21  H   -0.348123   0.640475
 Sum of Mulliken charges =  -1.00000   1.00000

 Dipole moment (field-independent basis, Debye):
    X=             -7.3001    Y=             -1.7496    Z=             -1.4811  Tot=              7.6515
 Quadrupole moment (field-independent basis, Debye-Ang):
   XX=           -122.5485   YY=            -98.9476   ZZ=            -88.6176
   XY=             -4.7129   XZ=             -4.9648   YZ=             -2.5532

 Summary of Natural Population Analysis:

                                       Natural Population
                Natural  -----------------------------------------------
    Atom  No    Charge         Core      Valence    Rydberg      Total
 -----------------------------------------------------------------------
      C    1   -0.29956      0.99961     2.29288    0.00707     3.29956
      C    2    0.13096      0.99956     1.85423    0.01525     2.86904
      C    3   -0.29535      0.99961     2.28840    0.00733     3.29535
      C    4   -0.22036      0.99953     2.20989    0.01094     3.22036
      C    5    0.20063      0.99963     1.78247    0.01728     2.79937
      N    6   -0.27057      0.99970     2.76147    0.00940     3.77057
      C    7    0.08103      0.99970     1.90008    0.01918     2.91897
      N    8   -0.16475      0.99974     2.65311    0.01189     3.66475
      N    9   -0.17990      0.99963     2.66877    0.01150     3.67990
      O   10   -0.39633      0.99989     3.38909    0.00735     4.39633
      H   11    0.10450      0.00000     0.39418    0.00132     0.39550
      H   12    0.10220      0.00000     0.39637    0.00143     0.39780
      H   13    0.10749      0.00000     0.38991    0.00259     0.39251
      H   14    0.10348      0.00000     0.39448    0.00204     0.39652
      H   15    0.10292      0.00000     0.39554    0.00154     0.39708
      H   16    0.10744      0.00000     0.38915    0.00341     0.39256
      H   17    0.11439      0.00000     0.38430    0.00132     0.38561
      H   18    0.11835      0.00000     0.38016    0.00149     0.38165
      H   19    0.08908      0.00000     0.41015    0.00076     0.41092
      H   20    0.21901      0.00000     0.27861    0.00238     0.28099
      H   21    0.24533      0.00000     0.23518    0.01948     0.25467
 =======================================================================
   * Total *    0.00000      9.99660    27.84845    0.15495    38.00000

 Normal termination of Gaussian 16 at Tue Dec  8 14:12:34 2020.
