 Gaussian 16, Revision A.03,

 -----------------------------------------------------------
 # opt freq B3LYP/6-31G(d) empiricaldispersion=gd3bj scf=xqc
 -----------------------------------------------------------

 ------------------------------
 CID_83618777_JID_2068_neutraal
 ------------------------------
 Symbolic Z-matrix:
 Charge =  0 Multiplicity = 1

 SCF Done:  E(RB3LYP) =  -930.929011525     A.U. after   16 cycles
 SCF Done:  E(RB3LYP) =  -930.934544912     A.U. after   13 cycles
 SCF Done:  E(RB3LYP) =  -930.935232110     A.U. after   12 cycles
 SCF Done:  E(RB3LYP) =  -930.935330473     A.U. after   12 cycles
 SCF Done:  E(RB3LYP) =  -930.935361939     A.U. after   12 cycles
 SCF Done:  E(RB3LYP) =  -930.935462886     A.U. after   11 cycles
 SCF Done:  E(RB3LYP) =  -930.935518001     A.U. after   11 cycles
 SCF Done:  E(RB3LYP) =  -930.935549640     A.U. after   12 cycles
 SCF Done:  E(RB3LYP) =  -930.935533094     A.U. after   10 cycles
 SCF Done:  E(RB3LYP) =  -930.935588639     A.U. after   11 cycles
 SCF Done:  E(RB3LYP) =  -930.936644888     A.U. after   11 cycles
 SCF Done:  E(RB3LYP) =  -930.936676358     A.U. after   11 cycles
 SCF Done:  E(RB3LYP) =  -930.936677608     A.U. after    9 cycles
 SCF Done:  E(RB3LYP) =  -930.936678142     A.U. after    9 cycles
 SCF Done:  E(RB3LYP) =  -930.936678281     A.U. after    8 cycles
 Optimization completed.
    -- Stationary point found.
 Normal termination of Gaussian 16 at Wed Dec  9 16:48:48 2020.

 --------------------------------------------------------------------
 #N Geom=AllCheck Guess=TCheck SCRF=Check GenChk RB3LYP/6-31G(d) Freq
 --------------------------------------------------------------------

 Structure from the checkpoint file:  "JID_2068.chk"
 ------------------------------
 CID_83618777_JID_2068_neutraal
 ------------------------------
 Charge =  0 Multiplicity = 1

 SCF Done:  E(RB3LYP) =  -930.936678281     A.U. after    1 cycles

  Exact polarizability: 150.605  -1.365 113.492   3.460   6.208  62.500
 Approx polarizability: 226.170   5.215 191.403  12.977  18.674  97.445

                      1                      2                      3
                      A                      A                      A
 Frequencies --     43.5903                59.0618                74.3433
 Red. masses --      6.7870                 5.2266                 3.3804
 Frc consts  --      0.0076                 0.0107                 0.0110
 IR Inten    --      1.0689                 0.1512                 0.3559

                      4                      5                      6
                      A                      A                      A
 Frequencies --    110.1599               138.5158               168.3632
 Red. masses --      3.5582                 2.6029                 1.8670
 Frc consts  --      0.0254                 0.0294                 0.0312
 IR Inten    --      2.5160                 0.5968                 2.3497

                      7                      8                      9
                      A                      A                      A
 Frequencies --    182.8098               221.6867               263.6998
 Red. masses --      2.1722                 1.3136                 2.2562
 Frc consts  --      0.0428                 0.0380                 0.0924
 IR Inten    --      0.3933                 0.4265                 0.1614

                     10                     11                     12
                      A                      A                      A
 Frequencies --    276.5913               337.1536               381.9109
 Red. masses --      5.7010                 4.6081                 4.2220
 Frc consts  --      0.2570                 0.3086                 0.3628
 IR Inten    --      3.1183                 1.1490                 8.9159

                     13                     14                     15
                      A                      A                      A
 Frequencies --    407.2431               458.4023               517.4787
 Red. masses --      5.3711                 3.8759                 3.9642
 Frc consts  --      0.5248                 0.4799                 0.6255
 IR Inten    --      4.1246                 5.4179                 0.2829

                     16                     17                     18
                      A                      A                      A
 Frequencies --    536.6875               573.5803               591.5315
 Red. masses --      3.1733                 4.8934                 2.6968
 Frc consts  --      0.5385                 0.9485                 0.5560
 IR Inten    --      9.2381                 0.9673                25.9178

                     19                     20                     21
                      A                      A                      A
 Frequencies --    662.9122               666.3188               733.0547
 Red. masses --      1.7987                 4.3433                 4.7678
 Frc consts  --      0.4657                 1.1362                 1.5095
 IR Inten    --     74.5797                66.4061                 7.4342

                     22                     23                     24
                      A                      A                      A
 Frequencies --    766.8417               797.3693               808.4347
 Red. masses --      1.7762                 7.5887                 1.2865
 Frc consts  --      0.6154                 2.8427                 0.4954
 IR Inten    --     58.4329                23.3902                 6.8070

                     25                     26                     27
                      A                      A                      A
 Frequencies --    811.8212               866.1322               957.8974
 Red. masses --      3.9680                 2.7617                 4.4829
 Frc consts  --      1.5408                 1.2206                 2.4235
 IR Inten    --      0.3313                 3.3060                 2.5888

                     28                     29                     30
                      A                      A                      A
 Frequencies --   1011.3473              1097.7172              1115.8803
 Red. masses --      3.1424                 1.7966                 1.6471
 Frc consts  --      1.8937                 1.2755                 1.2084
 IR Inten    --     23.8627                18.4675                33.1030

                     31                     32                     33
                      A                      A                      A
 Frequencies --   1148.9562              1158.5886              1169.8595
 Red. masses --      1.5633                 1.6391                 2.4646
 Frc consts  --      1.2159                 1.2964                 1.9873
 IR Inten    --     60.4962                40.0635               119.4718

                     34                     35                     36
                      A                      A                      A
 Frequencies --   1193.3573              1246.4545              1332.2218
 Red. masses --      1.8613                 2.6304                 1.7275
 Frc consts  --      1.5618                 2.4078                 1.8064
 IR Inten    --    180.9956                 0.8670                24.5962

                     37                     38                     39
                      A                      A                      A
 Frequencies --   1342.7838              1377.1484              1402.9031
 Red. masses --      2.7236                 1.8791                 1.2786
 Frc consts  --      2.8934                 2.0997                 1.4827
 IR Inten    --     14.8971                33.9357                23.3113

                     40                     41                     42
                      A                      A                      A
 Frequencies --   1438.6992              1461.4362              1473.3903
 Red. masses --      1.2530                 4.4125                 1.5721
 Frc consts  --      1.5281                 5.5526                 2.0108
 IR Inten    --     15.4451                50.1467               157.3295

                     43                     44                     45
                      A                      A                      A
 Frequencies --   1504.3614              1517.7420              1520.2445
 Red. masses --      2.1311                 1.1250                 1.0787
 Frc consts  --      2.8415                 1.5269                 1.4688
 IR Inten    --    106.6494                 7.7900                11.2414

                     46                     47                     48
                      A                      A                      A
 Frequencies --   1525.3889              1537.9114              1542.3094
 Red. masses --      1.0703                 1.0725                 1.2268
 Frc consts  --      1.4672                 1.4945                 1.7194
 IR Inten    --      9.9134                10.3848                19.2498

                     49                     50                     51
                      A                      A                      A
 Frequencies --   1598.9878              1850.2601              3015.0503
 Red. masses --      4.3758                10.2081                 1.0474
 Frc consts  --      6.5918                20.5903                 5.6097
 IR Inten    --    272.5634               304.8613                45.0950

                     52                     53                     54
                      A                      A                      A
 Frequencies --   3058.0950              3070.2832              3086.4671
 Red. masses --      1.0355                 1.0609                 1.0919
 Frc consts  --      5.7055                 5.8920                 6.1283
 IR Inten    --     17.7801                35.0143                21.9193

                     55                     56                     57
                      A                      A                      A
 Frequencies --   3106.7201              3127.7356              3139.3283
 Red. masses --      1.1045                 1.1025                 1.1037
 Frc consts  --      6.2811                 6.3546                 6.4089
 IR Inten    --      3.3356                31.6769                20.7126

                     58                     59                     60
                      A                      A                      A
 Frequencies --   3145.2091              3276.4424              3697.6317
 Red. masses --      1.0999                 1.0933                 1.0641
 Frc consts  --      6.4105                 6.9153                 8.5720
 IR Inten    --     29.3564                 3.1301                69.3819

 - Thermochemistry -
 -------------------
 Temperature   298.150 Kelvin.  Pressure   1.00000 Atm.
 Atom     1 has atomic number  6 and mass  12.00000

 Molecular mass:   186.04630 amu.
 Principal axes and moments of inertia in atomic units:
                           1         2         3
     Eigenvalues --  1255.268763525.015704567.34998
           X            0.99995   0.00901  -0.00535
           Y           -0.00907   0.99989  -0.01136
           Z            0.00525   0.01141   0.99992
 This molecule is an asymmetric top.
 Rotational symmetry number  1.
 Warning -- assumption of classical behavior for rotation
           may cause significant error
 Rotational temperatures (Kelvin)      0.06900     0.02457     0.01896
 Rotational constants (GHZ):           1.43773     0.51198     0.39514
 Zero-point vibrational energy     452813.5 (Joules/Mol)
                                  108.22502 (Kcal/Mol)
 Warning -- explicit consideration of  18 degrees of freedom as
           vibrations may cause significant error
 Vibrational temperatures:     62.72    84.98   106.96   158.50   199.29
          (Kelvin)            242.24   263.02   318.96   379.41   397.95
                              485.09   549.48   585.93   659.54   744.54
                              772.17   825.25   851.08   953.78   958.68
                             1054.70  1103.31  1147.24  1163.16  1168.03
                             1246.17  1378.20  1455.10  1579.37  1605.50
                             1653.09  1666.95  1683.17  1716.97  1793.37
                             1916.77  1931.97  1981.41  2018.46  2069.97
                             2102.68  2119.88  2164.44  2183.69  2187.29
                             2194.69  2212.71  2219.04  2300.59  2662.11
                             4337.98  4399.92  4417.45  4440.74  4469.88
                             4500.11  4516.79  4525.25  4714.07  5320.07

 Zero-point correction=                           0.172468 (Hartree/Particle)
 Thermal correction to Energy=                    0.184822
 Thermal correction to Enthalpy=                  0.185766
 Thermal correction to Gibbs Free Energy=         0.132848
 Sum of electronic and zero-point Energies=           -930.764211
 Sum of electronic and thermal Energies=              -930.751856
 Sum of electronic and thermal Enthalpies=            -930.750912
 Sum of electronic and thermal Free Energies=         -930.803831

                     E (Thermal)             CV                S
                      KCal/Mol        Cal/Mol-Kelvin    Cal/Mol-Kelvin
 Total                  115.978             44.567            111.377
 Electronic               0.000              0.000              0.000
 Translational            0.889              2.981             41.569
 Rotational               0.889              2.981             31.381
 Vibrational            114.200             38.605             38.428
 Vibration     1          0.595              1.980              5.089
 Vibration     2          0.596              1.974              4.488
 Vibration     3          0.599              1.966              4.035
 Vibration     4          0.606              1.941              3.266
 Vibration     5          0.614              1.915              2.824
 Vibration     6          0.625              1.881              2.454
 Vibration     7          0.630              1.863              2.300
 Vibration     8          0.648              1.808              1.945
 Vibration     9          0.670              1.739              1.637
 Vibration    10          0.678              1.717              1.555
 Vibration    11          0.718              1.601              1.226
 Vibration    12          0.751              1.509              1.032
 Vibration    13          0.772              1.454              0.936
 Vibration    14          0.816              1.342              0.771
 Vibration    15          0.872              1.211              0.616
 Vibration    16          0.892              1.169              0.572
 Vibration    17          0.930              1.088              0.497
 Vibration    18          0.949              1.050              0.464

 Optimization completed.
    -- Stationary point found.
 Normal termination of Gaussian 16 at Wed Dec  9 16:53:05 2020.

 ----------------------------------------------------------------------
 # B3LYP/6-311++G(d,p) empiricaldispersion=gd3bj scf=xqc pop=npa geom=c
 heck
 ----------------------------------------------------------------------

 --------------------------------------
 CID_83618777_JID_2068_Energie_neutraal
 --------------------------------------
 Structure from the checkpoint file:  "JID_2068.chk"
 Charge =  0 Multiplicity = 1

 SCF Done:  E(RB3LYP) =  -931.121556051     A.U. after   16 cycles
 Normal termination of Gaussian 16 at Wed Dec  9 16:54:53 2020.

 ----------------------------------------------------------------------
 # B3LYP/6-311++G(d,p) empiricaldispersion=gd3bj scf=xqc pop=npa geom=c
 heck
 ----------------------------------------------------------------------

 ------------------------------------
 CID_83618777_JID_2068_Energie_kation
 ------------------------------------
 Structure from the checkpoint file:  "JID_2068.chk"
 Charge =  1 Multiplicity = 2

 SCF Done:  E(UB3LYP) =  -930.831355119     A.U. after   23 cycles
 Normal termination of Gaussian 16 at Wed Dec  9 16:58:10 2020.
 Gaussian 16:  ES64L-G16RevA.03 25-Dec-2016

 ----------------------------------------------------------------------
 # B3LYP/6-311++G(d,p) empiricaldispersion=gd3bj scf=xqc pop=npa geom=c
 heck
 ----------------------------------------------------------------------

 -----------------------------------
 CID_83618777_JID_2068_Energie_anion
 -----------------------------------
 Structure from the checkpoint file:  "JID_2068.chk"
 Charge = -1 Multiplicity = 2

                         Standard orientation:
 ---------------------------------------------------------------------
 Center     Atomic      Atomic             Coordinates (Angstroms)
 Number     Number       Type             X           Y           Z
 ---------------------------------------------------------------------
      1          6           0        2.645324    1.995179   -0.916493
      2          6           0        2.552432    1.365103    0.475895
      3          7           0        2.107958   -0.029258    0.464519
      4          6           0        3.084830   -1.049997    0.120696
      5          6           0        0.785331   -0.287416    0.236885
      6          6           0       -0.305077    0.566066    0.275932
      7          6           0       -1.506323   -0.149932    0.019478
      8          7           0       -1.426482   -1.448216   -0.223263
      9         16           0        0.188632   -1.895657   -0.152523
     10          6           0       -2.862725    0.469963    0.000619
     11          8           0       -3.906910   -0.102076   -0.205736
     12          8           0       -2.794355    1.807604    0.251246
     13          1           0        3.370737    1.463144   -1.541443
     14          1           0        2.964051    3.040594   -0.842803
     15          1           0        1.674301    1.966283   -1.420348
     16          1           0        3.527414    1.387602    0.973960
     17          1           0        1.863679    1.931821    1.110183
     18          1           0        2.817956   -1.998036    0.601372
     19          1           0        3.161592   -1.220724   -0.963742
     20          1           0        4.063719   -0.746497    0.498706
     21          1           0       -0.268383    1.626790    0.473730
     22          1           0       -3.716143    2.123844    0.219814
 ---------------------------------------------------------------------

 SCF Done:  E(UB3LYP) =  -931.121495320     A.U. after   33 cycles
 SCF Done:  E(UB3LYP) =  -931.121495321     a.u. after    1 cycles

 The electronic state is 2-A.
 Alpha  occ. eigenvalues --  -88.75858 -19.04042 -18.96840 -14.23010 -14.17496
 Alpha  occ. eigenvalues --  -10.15472 -10.11450 -10.10580 -10.09748 -10.07225
 Alpha  occ. eigenvalues --  -10.06408 -10.04309  -7.84328  -5.80719  -5.80258
 Alpha  occ. eigenvalues --   -5.79850  -0.97587  -0.88323  -0.85565  -0.81384
 Alpha  occ. eigenvalues --   -0.66897  -0.64948  -0.62743  -0.58381  -0.53453
 Alpha  occ. eigenvalues --   -0.52408  -0.43756  -0.42913  -0.40085  -0.37823
 Alpha  occ. eigenvalues --   -0.35647  -0.34902  -0.34614  -0.32555  -0.32220
 Alpha  occ. eigenvalues --   -0.30901  -0.29587  -0.29225  -0.27772  -0.27192
 Alpha  occ. eigenvalues --   -0.26986  -0.25362  -0.21959  -0.20191  -0.18832
 Alpha  occ. eigenvalues --   -0.15768  -0.14692  -0.13443  -0.09047   0.04377
 Alpha virt. eigenvalues --    0.05991   0.07828   0.08580   0.08604   0.10005
 Alpha virt. eigenvalues --    0.11174   0.12205   0.12335   0.12652   0.12954
 Alpha virt. eigenvalues --    0.13739   0.14978   0.15074   0.15906   0.16246

  Beta  occ. eigenvalues --  -88.75829 -19.03976 -18.96639 -14.22990 -14.17062
  Beta  occ. eigenvalues --  -10.15258 -10.11380 -10.10559 -10.09708 -10.07137
  Beta  occ. eigenvalues --  -10.06385 -10.04347  -7.84302  -5.80709  -5.80249
  Beta  occ. eigenvalues --   -5.79749  -0.97342  -0.88013  -0.85476  -0.80934
  Beta  occ. eigenvalues --   -0.66790  -0.64759  -0.62445  -0.58261  -0.53305
  Beta  occ. eigenvalues --   -0.52074  -0.43662  -0.42677  -0.39980  -0.37695
  Beta  occ. eigenvalues --   -0.35464  -0.34745  -0.34512  -0.32294  -0.31386
  Beta  occ. eigenvalues --   -0.30837  -0.29456  -0.29145  -0.27665  -0.27017
  Beta  occ. eigenvalues --   -0.26351  -0.25276  -0.21788  -0.19378  -0.17986
  Beta  occ. eigenvalues --   -0.15297  -0.14461  -0.12832  -0.08182
  Beta virt. eigenvalues --    0.06885   0.08246   0.08641   0.09031   0.09356
  Beta virt. eigenvalues --    0.10388   0.11452   0.12349   0.12586   0.12776
  Beta virt. eigenvalues --    0.13257   0.14062   0.14973   0.15162   0.15961

 Mulliken charges and spin densities:
               1          2
     1  C    0.454623  -0.961681
     2  C   -0.270320   0.159880
     3  N    0.157836   0.076352
     4  C    0.853770  -1.236726
     5  C   -1.115724   0.222144
     6  C    1.017308   0.077095
     7  C   -1.164089  -0.261389
     8  N   -0.059217   0.211171
     9  S    0.336619   0.099698
    10  C    0.052341   0.171167
    11  O   -0.385277   0.069792
    12  O   -0.205791   0.009660
    13  H   -0.131307   0.275234
    14  H   -0.069290   0.187549
    15  H    0.039098   0.112616
    16  H   -0.536181   0.706712
    17  H    0.073273   0.054937
    18  H   -0.209451   0.343904
    19  H   -0.060921   0.230236
    20  H   -0.291666   0.432524
    21  H    0.244879   0.015756
    22  H    0.269488   0.003369
 Sum of Mulliken charges =  -1.00000   1.00000

 Dipole moment (field-independent basis, Debye):
    X=             -0.4943    Y=              2.8655    Z=              0.2815  Tot=              2.9214
 Quadrupole moment (field-independent basis, Debye-Ang):
   XX=           -151.5155   YY=           -100.6629   ZZ=            -94.5099
   XY=            -12.6734   XZ=             -4.1756   YZ=              0.5988

 Summary of Natural Population Analysis:

                                       Natural Population
                Natural  -----------------------------------------------
    Atom  No    Charge         Core      Valence    Rydberg      Total
 -----------------------------------------------------------------------
      C    1   -0.29624      0.99966     2.29120    0.00537     3.29624
      C    2   -0.07926      0.99962     2.06830    0.01134     3.07926
      N    3   -0.25696      0.99963     2.74323    0.01411     3.75696
      C    4   -0.17859      0.99964     2.16969    0.00926     3.17859
      C    5    0.03112      0.99948     1.95335    0.01604     2.96888
      C    6   -0.19360      0.99946     2.18573    0.00840     3.19360
      C    7    0.04939      0.99952     1.93681    0.01429     2.95061
      N    8   -0.23844      0.99971     2.72699    0.01174     3.73844
      S    9    0.26864      4.99943     2.70371    0.02822     7.73136
      C   10    0.41485      0.99967     1.56007    0.02541     2.58515
      O   11   -0.29207      0.99987     3.28613    0.00608     4.29207
      O   12   -0.35342      0.99988     3.34680    0.00673     4.35342
      H   13    0.09938      0.00000     0.39964    0.00098     0.40062
      H   14    0.09729      0.00000     0.40169    0.00102     0.40271
      H   15    0.10405      0.00000     0.39499    0.00096     0.39595
      H   16    0.09641      0.00000     0.40217    0.00143     0.40359
      H   17    0.09517      0.00000     0.40349    0.00134     0.40483
      H   18    0.09873      0.00000     0.39951    0.00176     0.40127
      H   19    0.09065      0.00000     0.40783    0.00151     0.40935
      H   20    0.10057      0.00000     0.39797    0.00145     0.39943
      H   21    0.11271      0.00000     0.38581    0.00148     0.38729
      H   22    0.22958      0.00000     0.26559    0.00482     0.27042
 =======================================================================
   * Total *   -0.00000     15.99557    32.83071    0.17373    49.00000

 Normal termination of Gaussian 16 at Wed Dec  9 17:03:14 2020.
