 Gaussian 16, Revision A.03,

 -----------------------------------------------------------
 # opt freq B3LYP/6-31G(d) empiricaldispersion=gd3bj scf=xqc
 -----------------------------------------------------------

 -------------------------------
 CID_115115641_JID_8185_neutraal
 -------------------------------
 Symbolic Z-matrix:
 Charge =  0 Multiplicity = 1

 SCF Done:  E(RB3LYP) =  -799.298506128     A.U. after   15 cycles
 SCF Done:  E(RB3LYP) =  -799.301880798     A.U. after   14 cycles
 SCF Done:  E(RB3LYP) =  -799.301857398     A.U. after   14 cycles
 SCF Done:  E(RB3LYP) =  -799.303131543     A.U. after   13 cycles
 SCF Done:  E(RB3LYP) =  -799.303558374     A.U. after   12 cycles
 SCF Done:  E(RB3LYP) =  -799.303673720     A.U. after   12 cycles
 SCF Done:  E(RB3LYP) =  -799.303686995     A.U. after   10 cycles
 SCF Done:  E(RB3LYP) =  -799.303693032     A.U. after   10 cycles
 SCF Done:  E(RB3LYP) =  -799.303696603     A.U. after    9 cycles
 SCF Done:  E(RB3LYP) =  -799.303699215     A.U. after    9 cycles
 SCF Done:  E(RB3LYP) =  -799.303700253     A.U. after    8 cycles
 SCF Done:  E(RB3LYP) =  -799.303700467     A.U. after    8 cycles
 Optimization completed.
    -- Stationary point found.
 Normal termination of Gaussian 16 at Fri Dec 11 19:25:58 2020.

 --------------------------------------------------------------------
 #N Geom=AllCheck Guess=TCheck SCRF=Check GenChk RB3LYP/6-31G(d) Freq
 --------------------------------------------------------------------

 Structure from the checkpoint file:  "JID_8185.chk"
 -------------------------------
 CID_115115641_JID_8185_neutraal
 -------------------------------
 Charge =  0 Multiplicity = 1

 SCF Done:  E(RB3LYP) =  -799.303700467     A.U. after    1 cycles

  Exact polarizability: 162.264 -23.190 157.718 -12.925  -6.374 144.909
 Approx polarizability: 217.603 -54.288 265.233 -23.037 -17.748 245.326

                      1                      2                      3
                      A                      A                      A
 Frequencies --     31.3721                39.0321                55.1141
 Red. masses --      4.5945                 5.3338                 4.6155
 Frc consts  --      0.0027                 0.0048                 0.0083
 IR Inten    --      0.4367                 0.2768                 0.5630

                      4                      5                      6
                      A                      A                      A
 Frequencies --     70.6895               110.3621               127.1008
 Red. masses --      6.3546                 4.4334                 9.2217
 Frc consts  --      0.0187                 0.0318                 0.0878
 IR Inten    --      1.6543                 3.5120                 3.0969

                      7                      8                      9
                      A                      A                      A
 Frequencies --    142.7285               160.6047               206.7903
 Red. masses --      4.3494                 2.4535                 4.2472
 Frc consts  --      0.0522                 0.0373                 0.1070
 IR Inten    --      3.8046                 0.9059                 6.0432

                     10                     11                     12
                      A                      A                      A
 Frequencies --    217.2800               251.5316               273.7216
 Red. masses --      4.6558                 1.2994                 2.2473
 Frc consts  --      0.1295                 0.0484                 0.0992
 IR Inten    --      1.0712                 0.1366                 1.7358

                     13                     14                     15
                      A                      A                      A
 Frequencies --    301.8217               328.8199               354.2995
 Red. masses --      2.3120                 7.4562                 2.7204
 Frc consts  --      0.1241                 0.4750                 0.2012
 IR Inten    --      0.4830                 8.1863                 4.2974

                     16                     17                     18
                      A                      A                      A
 Frequencies --    372.4071               388.8213               411.0857
 Red. masses --      4.3424                 6.3778                 2.1188
 Frc consts  --      0.3548                 0.5681                 0.2110
 IR Inten    --      3.1081                 0.2037                 1.1946

                     19                     20                     21
                      A                      A                      A
 Frequencies --    430.9883               449.1998               482.2647
 Red. masses --      3.7044                 3.5659                 4.2961
 Frc consts  --      0.4054                 0.4239                 0.5887
 IR Inten    --      1.9563                 4.8349                 1.6928

                     22                     23                     24
                      A                      A                      A
 Frequencies --    489.5263               536.4034               572.5033
 Red. masses --      4.0700                 2.5751                 2.8599
 Frc consts  --      0.5746                 0.4365                 0.5523
 IR Inten    --      1.3813                 6.8253                10.1397

                     25                     26                     27
                      A                      A                      A
 Frequencies --    587.7282               616.3930               647.3634
 Red. masses --      4.7472                 3.8829                 2.5151
 Frc consts  --      0.9661                 0.8692                 0.6210
 IR Inten    --     15.4547                11.5509                36.9666

                     28                     29                     30
                      A                      A                      A
 Frequencies --    687.6196               745.4349               759.0048
 Red. masses --      3.0344                 4.1441                 5.5070
 Frc consts  --      0.8453                 1.3568                 1.8692
 IR Inten    --     25.9400                36.7862                 1.4346

                     31                     32                     33
                      A                      A                      A
 Frequencies --    792.4022               809.6175               825.0251
 Red. masses --      4.8057                 2.4279                 6.9992
 Frc consts  --      1.7779                 0.9376                 2.8069
 IR Inten    --      9.9457                 7.6246                11.7988

                     34                     35                     36
                      A                      A                      A
 Frequencies --    856.8277               886.0327               898.3405
 Red. masses --      1.3350                 1.4909                 2.1482
 Frc consts  --      0.5775                 0.6896                 1.0214
 IR Inten    --     16.7136                 2.2867                12.3156

                     37                     38                     39
                      A                      A                      A
 Frequencies --    925.6181               960.1252               978.8827
 Red. masses --      2.2934                 1.4020                 2.2667
 Frc consts  --      1.1577                 0.7615                 1.2797
 IR Inten    --      0.3763                 1.0683                15.1872

                     40                     41                     42
                      A                      A                      A
 Frequencies --    993.8581              1003.2526              1046.9242
 Red. masses --      1.4431                 1.5404                 1.9356
 Frc consts  --      0.8399                 0.9135                 1.2500
 IR Inten    --      0.7304                 6.7994                 9.5339

                     43                     44                     45
                      A                      A                      A
 Frequencies --   1075.1941              1090.4774              1115.8747
 Red. masses --      3.0990                 1.8294                 2.3519
 Frc consts  --      2.1108                 1.2818                 1.7255
 IR Inten    --      8.9110                11.1322                13.4168

                     46                     47                     48
                      A                      A                      A
 Frequencies --   1132.3909              1143.4351              1164.8882
 Red. masses --      2.2247                 2.0314                 2.9775
 Frc consts  --      1.6808                 1.5649                 2.3805
 IR Inten    --     11.1617                11.4764                 5.4136

                     49                     50                     51
                      A                      A                      A
 Frequencies --   1185.1035              1187.3128              1200.3393
 Red. masses --      1.3074                 1.9253                 2.5794
 Frc consts  --      1.0818                 1.5991                 2.1896
 IR Inten    --      8.9679                27.6688                15.7415

                     52                     53                     54
                      A                      A                      A
 Frequencies --   1205.6843              1246.6275              1250.1645
 Red. masses --      2.3467                 1.6516                 2.1416
 Frc consts  --      2.0099                 1.5123                 1.9721
 IR Inten    --     24.8339                 7.7873                10.6435

                     55                     56                     57
                      A                      A                      A
 Frequencies --   1293.5073              1302.3052              1307.2495
 Red. masses --      8.9743                 1.6771                 1.3679
 Frc consts  --      8.8468                 1.6759                 1.3773
 IR Inten    --      2.7638                 2.8224                 1.2171

                     58                     59                     60
                      A                      A                      A
 Frequencies --   1318.5037              1333.5158              1350.6877
 Red. masses --      1.7054                 1.4947                 1.2509
 Frc consts  --      1.7467                 1.5661                 1.3446
 IR Inten    --     22.3323                10.3981                 4.4559

                     61                     62                     63
                      A                      A                      A
 Frequencies --   1362.9565              1390.3777              1398.0821
 Red. masses --      1.2832                 1.3989                 1.7997
 Frc consts  --      1.4045                 1.5934                 2.0726
 IR Inten    --      1.3945                 1.6695               152.2042

                     64                     65                     66
                      A                      A                      A
 Frequencies --   1404.0336              1421.1299              1435.2023
 Red. masses --      1.7597                 1.5152                 1.4926
 Frc consts  --      2.0439                 1.8030                 1.8114
 IR Inten    --     88.8402                 7.3024                17.6169

                     67                     68                     69
                      A                      A                      A
 Frequencies --   1456.7094              1485.3224              1497.2682
 Red. masses --      2.3617                 1.1933                 1.6374
 Frc consts  --      2.9527                 1.5511                 2.1627
 IR Inten    --     22.7274                 0.4257                47.7378

                     70                     71                     72
                      A                      A                      A
 Frequencies --   1511.7033              1516.3196              1519.4061
 Red. masses --      1.0877                 1.0631                 1.0843
 Frc consts  --      1.4645                 1.4402                 1.4749
 IR Inten    --      7.5860                16.1862                 3.7117

                     73                     74                     75
                      A                      A                      A
 Frequencies --   1524.0498              1526.6845              1536.7839
 Red. masses --      1.1242                 2.3572                 1.0539
 Frc consts  --      1.5385                 3.2370                 1.4665
 IR Inten    --      7.4763                 2.1186                 1.9235

                     76                     77                     78
                      A                      A                      A
 Frequencies --   1540.4639              1597.7340              1634.7020
 Red. masses --      1.1061                 7.6102                 5.6301
 Frc consts  --      1.5465                11.4461                 8.8643
 IR Inten    --     11.6974                15.1655                36.4187

                     79                     80                     81
                      A                      A                      A
 Frequencies --   1769.6888              2355.9599              2892.8834
 Red. masses --      8.6576                12.6823                 1.0731
 Frc consts  --     15.9749                41.4749                 5.2913
 IR Inten    --    403.2740                 7.8134                33.6445

                     82                     83                     84
                      A                      A                      A
 Frequencies --   2905.5279              2944.6528              3019.7145
 Red. masses --      1.0725                 1.0615                 1.0707
 Frc consts  --      5.3343                 5.4229                 5.7525
 IR Inten    --     81.5615               117.8320                28.2689

                     85                     86                     87
                      A                      A                      A
 Frequencies --   3055.7005              3072.7878              3079.3809
 Red. masses --      1.0618                 1.0867                 1.0749
 Frc consts  --      5.8411                 6.0456                 6.0056
 IR Inten    --     20.0429                24.4398                26.2941

                     88                     89                     90
                      A                      A                      A
 Frequencies --   3083.8452              3099.9838              3116.0361
 Red. masses --      1.0826                 1.1037                 1.0920
 Frc consts  --      6.0662                 6.2489                 6.2471
 IR Inten    --     56.3362                34.5189                 7.1214

                     91                     92                     93
                      A                      A                      A
 Frequencies --   3124.4534              3134.2567              3191.0095
 Red. masses --      1.1042                 1.0856                 1.0898
 Frc consts  --      6.3510                 6.2834                 6.5381
 IR Inten    --     31.0477                26.2363                18.0884

                     94                     95                     96
                      A                      A                      A
 Frequencies --   3203.5264              3230.5535              3563.6743
 Red. masses --      1.0917                 1.0945                 1.0749
 Frc consts  --      6.6011                 6.7303                 8.0428
 IR Inten    --      4.0622                 4.1079                22.0746

 - Thermochemistry -
 -------------------
 Temperature   298.150 Kelvin.  Pressure   1.00000 Atm.
 Atom     1 has atomic number  6 and mass  12.00000

 Molecular mass:   244.13241 amu.
 Principal axes and moments of inertia in atomic units:
                           1         2         3
     Eigenvalues --  2931.911136400.593956856.54650
           X            0.99998   0.00611  -0.00317
           Y           -0.00608   0.99994   0.00857
           Z            0.00323  -0.00855   0.99996
 This molecule is an asymmetric top.
 Rotational symmetry number  1.
 Warning -- assumption of classical behavior for rotation
           may cause significant error
 Rotational temperatures (Kelvin)      0.02954     0.01353     0.01263
 Rotational constants (GHZ):           0.61555     0.28196     0.26321
 Zero-point vibrational energy     743663.0 (Joules/Mol)
                                  177.73972 (Kcal/Mol)
 Warning -- explicit consideration of  26 degrees of freedom as
           vibrations may cause significant error
 Vibrational temperatures:     45.14    56.16    79.30   101.71   158.79
          (Kelvin)            182.87   205.35   231.07   297.53   312.62
                              361.90   393.82   434.25   473.10   509.76
                              535.81   559.43   591.46   620.10   646.30
                              693.87   704.32   771.76   823.70   845.61
                              886.85   931.41   989.33  1072.51  1092.04
                             1140.09  1164.86  1187.03  1232.78  1274.80
                             1292.51  1331.76  1381.41  1408.39  1429.94
                             1443.46  1506.29  1546.96  1568.95  1605.49
                             1629.26  1645.15  1676.01  1705.10  1708.28
                             1727.02  1734.71  1793.62  1798.71  1861.07
                             1873.73  1880.84  1897.03  1918.63  1943.34
                             1960.99  2000.44  2011.53  2020.09  2044.69
                             2064.94  2095.88  2137.05  2154.24  2175.00
                             2181.65  2186.09  2192.77  2196.56  2211.09
                             2216.38  2298.78  2351.97  2546.19  3389.70
                             4162.21  4180.41  4236.70  4344.70  4396.47
                             4421.06  4430.54  4436.97  4460.19  4483.28
                             4495.39  4509.50  4591.15  4609.16  4648.05
                             5127.33

 Zero-point correction=                           0.283246 (Hartree/Particle)
 Thermal correction to Energy=                    0.299430
 Thermal correction to Enthalpy=                  0.300374
 Thermal correction to Gibbs Free Energy=         0.238622
 Sum of electronic and zero-point Energies=           -799.020454
 Sum of electronic and thermal Energies=              -799.004270
 Sum of electronic and thermal Enthalpies=            -799.003326
 Sum of electronic and thermal Free Energies=         -799.065078

                     E (Thermal)             CV                S
                      KCal/Mol        Cal/Mol-Kelvin    Cal/Mol-Kelvin
 Total                  187.895             61.848            129.968
 Electronic               0.000              0.000              0.000
 Translational            0.889              2.981             42.378
 Rotational               0.889              2.981             33.220
 Vibrational            186.118             55.886             54.370
 Vibration     1          0.594              1.983              5.741
 Vibration     2          0.594              1.981              5.308
 Vibration     3          0.596              1.976              4.625
 Vibration     4          0.598              1.968              4.134
 Vibration     5          0.606              1.941              3.263
 Vibration     6          0.611              1.926              2.989
 Vibration     7          0.616              1.910              2.767
 Vibration     8          0.622              1.891              2.543
 Vibration     9          0.641              1.830              2.072
 Vibration    10          0.646              1.815              1.982
 Vibration    11          0.664              1.760              1.720
 Vibration    12          0.676              1.722              1.573
 Vibration    13          0.694              1.670              1.407
 Vibration    14          0.712              1.618              1.266
 Vibration    15          0.730              1.566              1.147
 Vibration    16          0.744              1.529              1.070
 Vibration    17          0.757              1.494              1.005
 Vibration    18          0.775              1.446              0.923
 Vibration    19          0.792              1.403              0.855
 Vibration    20          0.808              1.363              0.798
 Vibration    21          0.839              1.289              0.704
 Vibration    22          0.845              1.273              0.685
 Vibration    23          0.891              1.170              0.573
 Vibration    24          0.929              1.091              0.499
 Vibration    25          0.945              1.058              0.471
 Vibration    26          0.976              0.997              0.422

                           ! Non-Optimized Parameters !
 Normal termination of Gaussian 16 at Fri Dec 11 19:42:29 2020.

 ----------------------------------------------------------------------
 # B3LYP/6-311++G(d,p) empiricaldispersion=gd3bj scf=xqc pop=npa geom=c
 heck
 ----------------------------------------------------------------------

 ---------------------------------------
 CID_115115641_JID_8185_Energie_neutraal
 ---------------------------------------
 Structure from the checkpoint file:  "JID_8185.chk"
 Charge =  0 Multiplicity = 1

 SCF Done:  E(RB3LYP) =  -799.521123680     A.U. after   16 cycles
 Normal termination of Gaussian 16 at Fri Dec 11 19:50:20 2020.

 ----------------------------------------------------------------------
 # B3LYP/6-311++G(d,p) empiricaldispersion=gd3bj scf=xqc pop=npa geom=c
 heck
 ----------------------------------------------------------------------

 -------------------------------------
 CID_115115641_JID_8185_Energie_kation
 -------------------------------------
 Structure from the checkpoint file:  "JID_8185.chk"
 Charge =  1 Multiplicity = 2

 SCF Done:  E(UB3LYP) =  -799.212550034     A.U. after   27 cycles
 Normal termination of Gaussian 16 at Fri Dec 11 20:09:17 2020.
 Gaussian 16:  ES64L-G16RevA.03 25-Dec-2016

 ----------------------------------------------------------------------
 # B3LYP/6-311++G(d,p) empiricaldispersion=gd3bj scf=xqc pop=npa geom=c
 heck
 ----------------------------------------------------------------------

 ------------------------------------
 CID_115115641_JID_8185_Energie_anion
 ------------------------------------
 Structure from the checkpoint file:  "JID_8185.chk"
 Charge = -1 Multiplicity = 2

                         Standard orientation:
 ---------------------------------------------------------------------
 Center     Atomic      Atomic             Coordinates (Angstroms)
 Number     Number       Type             X           Y           Z
 ---------------------------------------------------------------------
      1          6           0       -3.386449   -2.402417   -0.575285
      2          7           0       -2.751968   -1.094018   -0.596516
      3          6           0       -3.735106   -0.014465   -0.674363
      4          6           0       -3.043425    1.339697   -0.836001
      5          6           0       -2.046413    1.588726    0.300264
      6          6           0       -1.085166    0.405395    0.418610
      7          6           0       -1.857476   -0.916503    0.538924
      8          7           0       -0.185285    0.591042    1.555842
      9          6           0        1.080913    0.107325    1.709901
     10          8           0        1.606863   -0.037635    2.807727
     11          6           0        1.865441   -0.235886    0.470551
     12          6           0        2.099271    0.641441   -0.603500
     13          6           0        2.936636    0.224828   -1.647851
     14          6           0        3.495649   -1.047736   -1.582325
     15          7           0        3.294660   -1.893136   -0.562927
     16          6           0        2.513519   -1.476583    0.435866
     17          6           0        1.516786    1.951341   -0.656259
     18          7           0        1.045511    3.010872   -0.735654
     19          1           0       -4.036596   -2.555131    0.308249
     20          1           0       -3.999555   -2.527965   -1.473831
     21          1           0       -2.619703   -3.184360   -0.572160
     22          1           0       -4.387861   -0.210095   -1.532375
     23          1           0       -4.381969    0.003688    0.228198
     24          1           0       -3.793803    2.137723   -0.863900
     25          1           0       -2.514159    1.354429   -1.796599
     26          1           0       -2.592830    1.695885    1.249743
     27          1           0       -1.478634    2.510086    0.140650
     28          1           0       -0.485228    0.349526   -0.490987
     29          1           0       -2.402871   -0.927886    1.507335
     30          1           0       -1.145115   -1.749670    0.561970
     31          1           0       -0.628600    0.786470    2.448070
     32          1           0        3.142409    0.885121   -2.482779
     33          1           0        4.141375   -1.402851   -2.382066
     34          1           0        2.382745   -2.158184    1.272245
 ---------------------------------------------------------------------

 SCF Done:  E(UB3LYP) =  -799.555079660     A.U. after   24 cycles

 The electronic state is 2-A.
 Alpha  occ. eigenvalues --  -18.96000 -14.22434 -14.21656 -14.15216 -14.14557
 Alpha  occ. eigenvalues --  -10.14458 -10.11242 -10.11136 -10.10596 -10.10049
 Alpha  occ. eigenvalues --  -10.08133 -10.07089 -10.06225 -10.05525 -10.05462
 Alpha  occ. eigenvalues --  -10.05028 -10.03943 -10.03923  -0.91274  -0.85083
 Alpha  occ. eigenvalues --   -0.80861  -0.79482  -0.75726  -0.70467  -0.67575
 Alpha  occ. eigenvalues --   -0.65913  -0.62620  -0.61321  -0.54691  -0.53031
 Alpha  occ. eigenvalues --   -0.52731  -0.50994  -0.47399  -0.45711  -0.41937
 Alpha  occ. eigenvalues --   -0.41053  -0.38897  -0.38253  -0.36798  -0.35818
 Alpha  occ. eigenvalues --   -0.35132  -0.34079  -0.32819  -0.31565  -0.30863
 Alpha  occ. eigenvalues --   -0.30815  -0.29678  -0.29474  -0.28632  -0.27648
 Alpha  occ. eigenvalues --   -0.27484  -0.25495  -0.24913  -0.23827  -0.23807
 Alpha  occ. eigenvalues --   -0.23256  -0.22063  -0.21796  -0.18727  -0.14967
 Alpha  occ. eigenvalues --   -0.14379  -0.14053  -0.13596  -0.12095  -0.11169
 Alpha  occ. eigenvalues --    0.02885
 Alpha virt. eigenvalues --    0.05987   0.07505   0.08052   0.09417   0.10050
 Alpha virt. eigenvalues --    0.10218   0.10393   0.10882   0.11249   0.11847
 Alpha virt. eigenvalues --    0.12513   0.13020   0.13426   0.13591   0.14283

  Beta  occ. eigenvalues --  -18.95908 -14.22434 -14.21634 -14.14832 -14.14029
  Beta  occ. eigenvalues --  -10.14420 -10.11241 -10.11136 -10.10594 -10.10047
  Beta  occ. eigenvalues --  -10.08133 -10.07085 -10.06314 -10.05489 -10.05439
  Beta  occ. eigenvalues --  -10.04599 -10.03900 -10.03700  -0.91109  -0.85078
  Beta  occ. eigenvalues --   -0.80783  -0.78789  -0.75145  -0.70452  -0.66775
  Beta  occ. eigenvalues --   -0.65836  -0.62216  -0.61311  -0.54632  -0.53018
  Beta  occ. eigenvalues --   -0.52043  -0.50614  -0.47371  -0.45561  -0.41805
  Beta  occ. eigenvalues --   -0.40920  -0.38886  -0.38197  -0.36703  -0.35710
  Beta  occ. eigenvalues --   -0.34889  -0.33977  -0.32775  -0.31522  -0.30829
  Beta  occ. eigenvalues --   -0.30668  -0.29484  -0.29336  -0.28541  -0.27482
  Beta  occ. eigenvalues --   -0.26639  -0.25136  -0.24535  -0.23704  -0.23588
  Beta  occ. eigenvalues --   -0.23110  -0.21470  -0.20130  -0.18515  -0.14611
  Beta  occ. eigenvalues --   -0.14057  -0.13288  -0.12015  -0.11022  -0.10562
  Beta virt. eigenvalues --    0.05960   0.07475   0.08026   0.09246   0.09552
  Beta virt. eigenvalues --    0.10034   0.10206   0.10502   0.11099   0.11265
  Beta virt. eigenvalues --    0.11841   0.12480   0.13002   0.13410   0.13611

 Mulliken charges and spin densities:
               1          2
     1  C   -0.252851  -0.000696
     2  N    0.238752   0.001683
     3  C   -0.310517  -0.001791
     4  C   -0.416834  -0.018222
     5  C   -0.183021   0.024159
     6  C   -0.204711   0.001978
     7  C   -0.707198  -0.025330
     8  N    0.020745  -0.007198
     9  C   -0.627254   0.016977
    10  O   -0.335671   0.031491
    11  C    0.133038   0.203004
    12  C    1.619641   0.307659
    13  C   -0.154876   0.090627
    14  C   -0.344616   0.059133
    15  N   -0.122040   0.243692
    16  C   -0.544234  -0.066830
    17  C   -0.916683  -0.092497
    18  N   -0.368720   0.204583
    19  H    0.093505   0.001652
    20  H    0.123848   0.000671
    21  H    0.131537   0.001459
    22  H    0.144173   0.000847
    23  H    0.090685   0.003011
    24  H    0.154316   0.003132
    25  H    0.146223   0.003074
    26  H    0.086565   0.004218
    27  H    0.211708   0.009778
    28  H    0.249004  -0.007683
    29  H    0.102248  -0.001102
    30  H    0.218413   0.011823
    31  H    0.280629   0.002926
    32  H    0.147359   0.001050
    33  H    0.121122  -0.009098
    34  H    0.175714   0.001819
 Sum of Mulliken charges =  -1.00000   1.00000

 Dipole moment (field-independent basis, Debye):
    X=            -10.7585    Y=             -1.9815    Z=             -0.9939  Tot=             10.9846
 Quadrupole moment (field-independent basis, Debye-Ang):
   XX=           -143.5129   YY=           -140.8971   ZZ=           -128.7152
   XY=              5.4131   XZ=             -4.9741   YZ=              1.9654

 Summary of Natural Population Analysis:

                                       Natural Population
                Natural  -----------------------------------------------
    Atom  No    Charge         Core      Valence    Rydberg      Total
 -----------------------------------------------------------------------
      C    1   -0.17404      0.99966     2.16752    0.00686     3.17404
      N    2   -0.27902      0.99971     2.76607    0.01323     3.77902
      C    3   -0.08111      0.99963     2.07269    0.00879     3.08111
      C    4   -0.19263      0.99963     2.18634    0.00666     3.19263
      C    5   -0.19418      0.99961     2.18627    0.00830     3.19418
      C    6   -0.02360      0.99956     2.00852    0.01552     3.02360
      C    7   -0.08410      0.99960     2.07538    0.00913     3.08410
      N    8   -0.31598      0.99966     2.80408    0.01224     3.81598
      C    9    0.34836      0.99963     1.62951    0.02251     2.65164
      O   10   -0.31606      0.99988     3.31038    0.00581     4.31606
      C   11   -0.03616      0.99943     2.02178    0.01495     3.03616
      C   12   -0.00933      0.99938     1.99912    0.01083     3.00933
      C   13   -0.09375      0.99953     2.08704    0.00718     3.09375
      C   14    0.02980      0.99960     1.95593    0.01466     2.97020
      N   15   -0.16929      0.99971     2.65685    0.01273     3.66929
      C   16    0.01911      0.99956     1.96778    0.01355     2.98089
      C   17    0.13889      0.99965     1.84262    0.01885     2.86111
      N   18   -0.14971      0.99978     2.63902    0.01091     3.64971
      H   19    0.07666      0.00000     0.42169    0.00164     0.42334
      H   20    0.09177      0.00000     0.40728    0.00095     0.40823
      H   21    0.09706      0.00000     0.40196    0.00098     0.40294
      H   22    0.09259      0.00000     0.40622    0.00119     0.40741
      H   23    0.07450      0.00000     0.42393    0.00158     0.42550
      H   24    0.09575      0.00000     0.40326    0.00099     0.40425
      H   25    0.10270      0.00000     0.39616    0.00114     0.39730
      H   26    0.08654      0.00000     0.41231    0.00115     0.41346
      H   27    0.12150      0.00000     0.37740    0.00110     0.37850
      H   28    0.11493      0.00000     0.38177    0.00330     0.38507
      H   29    0.07430      0.00000     0.42429    0.00141     0.42570
      H   30    0.10402      0.00000     0.39484    0.00114     0.39598
      H   31    0.18553      0.00000     0.31290    0.00157     0.31447
      H   32    0.09790      0.00000     0.40115    0.00096     0.40210
      H   33    0.07895      0.00000     0.41976    0.00128     0.42105
      H   34    0.08810      0.00000     0.41056    0.00134     0.41190
 =======================================================================
   * Total *   -0.00000     17.99319    46.77237    0.23443    65.00000

 Normal termination of Gaussian 16 at Fri Dec 11 20:26:11 2020.
