 Gaussian 16, Revision A.03,

 -----------------------------------------------------------
 # opt freq B3LYP/6-31G(d) empiricaldispersion=gd3bj scf=xqc
 -----------------------------------------------------------

 ------------------------------
 CID_21972124_JID_1414_neutraal
 ------------------------------
 Symbolic Z-matrix:
 Charge =  0 Multiplicity = 1

 SCF Done:  E(RB3LYP) =  -467.158427841     A.U. after   13 cycles
 SCF Done:  E(RB3LYP) =  -467.159897594     A.U. after   10 cycles
 SCF Done:  E(RB3LYP) =  -467.160049001     A.U. after   10 cycles
 SCF Done:  E(RB3LYP) =  -467.160068212     A.U. after    9 cycles
 SCF Done:  E(RB3LYP) =  -467.160071237     A.U. after    7 cycles
 SCF Done:  E(RB3LYP) =  -467.160073103     A.U. after    8 cycles
 SCF Done:  E(RB3LYP) =  -467.160073329     A.U. after    8 cycles
 SCF Done:  E(RB3LYP) =  -467.160073559     A.U. after    7 cycles
 Optimization completed.
    -- Stationary point found.
 Normal termination of Gaussian 16 at Tue Dec  8 19:54:49 2020.

 --------------------------------------------------------------------
 #N Geom=AllCheck Guess=TCheck SCRF=Check GenChk RB3LYP/6-31G(d) Freq
 --------------------------------------------------------------------

 Structure from the checkpoint file:  "JID_1414.chk"
 ------------------------------
 CID_21972124_JID_1414_neutraal
 ------------------------------
 Charge =  0 Multiplicity = 1

 SCF Done:  E(RB3LYP) =  -467.160073559     A.U. after    1 cycles

  Exact polarizability: 118.784  -3.807 111.530  -4.493  -5.889  86.597
 Approx polarizability: 141.648  -0.749 169.975  -3.144 -10.925 131.356

                      1                      2                      3
                      A                      A                      A
 Frequencies --     39.6469                51.4502               102.3460
 Red. masses --      3.6760                 4.4782                 2.6890
 Frc consts  --      0.0034                 0.0070                 0.0166
 IR Inten    --      0.4818                 0.8655                 1.3022

                      4                      5                      6
                      A                      A                      A
 Frequencies --    148.6862               172.8974               194.6232
 Red. masses --      2.2388                 1.8682                 1.5540
 Frc consts  --      0.0292                 0.0329                 0.0347
 IR Inten    --      0.3851                 0.2986                 1.7104

                      7                      8                      9
                      A                      A                      A
 Frequencies --    216.2582               256.0396               278.8436
 Red. masses --      1.7880                 2.5245                 1.8097
 Frc consts  --      0.0493                 0.0975                 0.0829
 IR Inten    --     10.5833                 0.5527                 8.1283

                     10                     11                     12
                      A                      A                      A
 Frequencies --    311.0832               350.6872               388.4622
 Red. masses --      1.1781                 2.2684                 2.5484
 Frc consts  --      0.0672                 0.1644                 0.2266
 IR Inten    --     82.9386                 7.3726                 5.2341

                     13                     14                     15
                      A                      A                      A
 Frequencies --    412.0185               445.6600               450.4415
 Red. masses --      2.6571                 1.9197                 2.6617
 Frc consts  --      0.2658                 0.2246                 0.3182
 IR Inten    --      0.6512                 2.0055                 1.7242

                     16                     17                     18
                      A                      A                      A
 Frequencies --    495.4641               564.7734               640.7007
 Red. masses --      3.1776                 2.9089                 2.5033
 Frc consts  --      0.4596                 0.5467                 0.6054
 IR Inten    --      0.5650                 1.2122                 0.6101

                     19                     20                     21
                      A                      A                      A
 Frequencies --    746.2021               807.5498               834.3789
 Red. masses --      1.4267                 1.5409                 1.7787
 Frc consts  --      0.4681                 0.5921                 0.7296
 IR Inten    --      2.5836                 7.2788                 1.5721

                     22                     23                     24
                      A                      A                      A
 Frequencies --    843.2144               879.4132               901.4535
 Red. masses --      2.2321                 2.1800                 2.1317
 Frc consts  --      0.9350                 0.9933                 1.0206
 IR Inten    --      4.6872                 4.5183                 4.3544

                     25                     26                     27
                      A                      A                      A
 Frequencies --    937.4726               954.6692               964.8811
 Red. masses --      2.2129                 1.8728                 1.5511
 Frc consts  --      1.1459                 1.0057                 0.8508
 IR Inten    --      4.8727                 2.7337                 1.3564

                     28                     29                     30
                      A                      A                      A
 Frequencies --   1001.9337              1035.6248              1053.4031
 Red. masses --      1.7530                 1.6166                 1.9706
 Frc consts  --      1.0368                 1.0215                 1.2883
 IR Inten    --     19.8977                 1.3311                 3.3112

                     31                     32                     33
                      A                      A                      A
 Frequencies --   1067.7275              1079.7356              1103.0913
 Red. masses --      1.4693                 2.3362                 2.2618
 Frc consts  --      0.9869                 1.6047                 1.6215
 IR Inten    --      4.1068                33.3318                40.9671

                     34                     35                     36
                      A                      A                      A
 Frequencies --   1107.9581              1120.7630              1152.6211
 Red. masses --      1.8512                 2.1895                 1.8585
 Frc consts  --      1.3389                 1.6204                 1.4547
 IR Inten    --      7.8533                 3.1488                 4.2390

                     37                     38                     39
                      A                      A                      A
 Frequencies --   1176.3544              1188.4262              1198.9572
 Red. masses --      1.4198                 1.3832                 1.8446
 Frc consts  --      1.1576                 1.1510                 1.5622
 IR Inten    --      7.5756                 0.2239                 4.3707

                     40                     41                     42
                      A                      A                      A
 Frequencies --   1222.6982              1272.2843              1283.0334
 Red. masses --      1.2491                 1.2986                 1.3368
 Frc consts  --      1.1003                 1.2385                 1.2966
 IR Inten    --      3.7108                 2.2021                 9.5792

                     43                     44                     45
                      A                      A                      A
 Frequencies --   1319.3722              1330.8943              1354.4159
 Red. masses --      1.2848                 1.2046                 1.2197
 Frc consts  --      1.3177                 1.2571                 1.3182
 IR Inten    --      5.2981                 0.0911                 2.9311

                     46                     47                     48
                      A                      A                      A
 Frequencies --   1376.5220              1391.1900              1400.8371
 Red. masses --      1.3791                 1.4688                 1.3950
 Frc consts  --      1.5396                 1.6749                 1.6129
 IR Inten    --      2.9856                 3.5126                 0.3117

                     49                     50                     51
                      A                      A                      A
 Frequencies --   1404.1671              1409.3902              1413.0120
 Red. masses --      1.7746                 1.3134                 1.4324
 Frc consts  --      2.0615                 1.5371                 1.6850
 IR Inten    --      1.8694                11.2354                19.3820

                     52                     53                     54
                      A                      A                      A
 Frequencies --   1429.5061              1442.2293              1443.8988
 Red. masses --      1.6183                 1.3157                 1.2844
 Frc consts  --      1.9484                 1.6124                 1.5777
 IR Inten    --      0.6794                27.6837                 2.8360

                     55                     56                     57
                      A                      A                      A
 Frequencies --   1503.2045              1509.3881              1510.8694
 Red. masses --      1.0872                 1.0511                 1.0803
 Frc consts  --      1.4474                 1.4109                 1.4530
 IR Inten    --      0.2432                 8.4572                 0.6018

                     58                     59                     60
                      A                      A                      A
 Frequencies --   1511.4816              1521.8503              1524.9035
 Red. masses --      1.0827                 1.0612                 1.0931
 Frc consts  --      1.4574                 1.4480                 1.4976
 IR Inten    --      7.0069                 5.4263                 1.2769

                     61                     62                     63
                      A                      A                      A
 Frequencies --   1528.8876              1539.6490              1759.1218
 Red. masses --      1.0956                 1.0871                 6.5898
 Frc consts  --      1.5089                 1.5184                12.0148
 IR Inten    --      3.5103                 2.1095                 1.5921

                     64                     65                     66
                      A                      A                      A
 Frequencies --   2987.3066              2995.7818              3000.9479
 Red. masses --      1.0791                 1.0660                 1.0711
 Frc consts  --      5.6738                 5.6368                 5.6831
 IR Inten    --     17.4817                11.6181                26.6556

                     67                     68                     69
                      A                      A                      A
 Frequencies --   3005.3931              3023.1243              3024.5611
 Red. masses --      1.0725                 1.0635                 1.0430
 Frc consts  --      5.7074                 5.7268                 5.6216
 IR Inten    --     73.6032                14.3481                34.8843

                     70                     71                     72
                      A                      A                      A
 Frequencies --   3030.2305              3032.9590              3042.8268
 Red. masses --      1.0731                 1.0837                 1.0673
 Frc consts  --      5.8053                 5.8734                 5.8224
 IR Inten    --     44.7127                34.6896                 6.8694

                     73                     74                     75
                      A                      A                      A
 Frequencies --   3050.9945              3061.8319              3068.3187
 Red. masses --      1.0886                 1.0936                 1.0997
 Frc consts  --      5.9701                 6.0403                 6.0997
 IR Inten    --     40.1417                70.2003                33.7734

                     76                     77                     78
                      A                      A                      A
 Frequencies --   3082.9916              3090.4539              3102.4125
 Red. masses --      1.1010                 1.0980                 1.0943
 Frc consts  --      6.1659                 6.1788                 6.2057
 IR Inten    --     48.9631                59.6459                54.7847

                     79                     80                     81
                      A                      A                      A
 Frequencies --   3120.8116              3150.9805              3751.9074
 Red. masses --      1.0994                 1.0894                 1.0659
 Frc consts  --      6.3085                 6.3726                 8.8407
 IR Inten    --     22.5647                39.7403                 6.7084

 - Thermochemistry -
 -------------------
 Temperature   298.150 Kelvin.  Pressure   1.00000 Atm.
 Atom     1 has atomic number  6 and mass  12.00000

 Molecular mass:   154.13577 amu.
 Principal axes and moments of inertia in atomic units:
                           1         2         3
     Eigenvalues --   931.816283281.028673610.45113
           X            0.99980  -0.01808  -0.00871
           Y            0.01781   0.99940  -0.02964
           Z            0.00924   0.02948   0.99952
 This molecule is an asymmetric top.
 Rotational symmetry number  1.
 Warning -- assumption of classical behavior for rotation
           may cause significant error
 Rotational temperatures (Kelvin)      0.09295     0.02640     0.02399
 Rotational constants (GHZ):           1.93680     0.55005     0.49987
 Zero-point vibrational energy     698036.3 (Joules/Mol)
                                  166.83468 (Kcal/Mol)
 Warning -- explicit consideration of  17 degrees of freedom as
           vibrations may cause significant error
 Vibrational temperatures:     57.04    74.03   147.25   213.93   248.76
          (Kelvin)            280.02   311.15   368.38   401.19   447.58
                              504.56   558.91   592.80   641.21   648.08
                              712.86   812.58   921.83  1073.62  1161.88
                             1200.49  1213.20  1265.28  1296.99  1348.81
                             1373.56  1388.25  1441.56  1490.03  1515.61
                             1536.22  1553.50  1587.10  1594.10  1612.53
                             1658.36  1692.51  1709.88  1725.03  1759.19
                             1830.53  1846.00  1898.28  1914.86  1948.70
                             1980.51  2001.61  2015.49  2020.28  2027.80
                             2033.01  2056.74  2075.05  2077.45  2162.78
                             2171.67  2173.80  2174.68  2189.60  2194.00
                             2199.73  2215.21  2530.98  4298.07  4310.26
                             4317.69  4324.09  4349.60  4351.67  4359.83
                             4363.75  4377.95  4389.70  4405.29  4414.63
                             4435.74  4446.47  4463.68  4490.15  4533.56
                             5398.16

 Zero-point correction=                           0.265868 (Hartree/Particle)
 Thermal correction to Energy=                    0.277885
 Thermal correction to Enthalpy=                  0.278829
 Thermal correction to Gibbs Free Energy=         0.227538
 Sum of electronic and zero-point Energies=           -466.894206
 Sum of electronic and thermal Energies=              -466.882189
 Sum of electronic and thermal Enthalpies=            -466.881244
 Sum of electronic and thermal Free Energies=         -466.932536

                     E (Thermal)             CV                S
                      KCal/Mol        Cal/Mol-Kelvin    Cal/Mol-Kelvin
 Total                  174.375             45.619            107.952
 Electronic               0.000              0.000              0.000
 Translational            0.889              2.981             41.008
 Rotational               0.889              2.981             30.780
 Vibrational            172.598             39.657             36.165
 Vibration     1          0.594              1.981              5.277
 Vibration     2          0.596              1.977              4.761
 Vibration     3          0.604              1.947              3.409
 Vibration     4          0.618              1.904              2.689
 Vibration     5          0.626              1.876              2.404
 Vibration     6          0.635              1.847              2.183
 Vibration     7          0.645              1.816              1.990
 Vibration     8          0.666              1.753              1.689
 Vibration     9          0.679              1.713              1.541
 Vibration    10          0.700              1.653              1.357
 Vibration    11          0.728              1.574              1.163
 Vibration    12          0.757              1.495              1.006
 Vibration    13          0.776              1.444              0.920
 Vibration    14          0.805              1.370              0.809
 Vibration    15          0.809              1.360              0.794
 Vibration    16          0.851              1.260              0.670
 Vibration    17          0.921              1.107              0.514

                           ! Non-Optimized Parameters !
 Normal termination of Gaussian 16 at Tue Dec  8 20:01:32 2020.

 ----------------------------------------------------------------------
 # B3LYP/6-311++G(d,p) empiricaldispersion=gd3bj scf=xqc pop=npa geom=c
 heck
 ----------------------------------------------------------------------

 --------------------------------------
 CID_21972124_JID_1414_Energie_neutraal
 --------------------------------------
 Structure from the checkpoint file:  "JID_1414.chk"
 Charge =  0 Multiplicity = 1

 SCF Done:  E(RB3LYP) =  -467.300353108     A.U. after   13 cycles
 Normal termination of Gaussian 16 at Tue Dec  8 20:04:30 2020.

 ----------------------------------------------------------------------
 # B3LYP/6-311++G(d,p) empiricaldispersion=gd3bj scf=xqc pop=npa geom=c
 heck
 ----------------------------------------------------------------------

 ------------------------------------
 CID_21972124_JID_1414_Energie_kation
 ------------------------------------
 Structure from the checkpoint file:  "JID_1414.chk"
 Charge =  1 Multiplicity = 2

 SCF Done:  E(UB3LYP) =  -466.987414480     A.U. after   20 cycles
 Normal termination of Gaussian 16 at Tue Dec  8 20:11:14 2020.
 Gaussian 16:  ES64L-G16RevA.03 25-Dec-2016

 ----------------------------------------------------------------------
 # B3LYP/6-311++G(d,p) empiricaldispersion=gd3bj scf=xqc pop=npa geom=c
 heck
 ----------------------------------------------------------------------

 -----------------------------------
 CID_21972124_JID_1414_Energie_anion
 -----------------------------------
 Structure from the checkpoint file:  "JID_1414.chk"
 Charge = -1 Multiplicity = 2

                         Standard orientation:
 ---------------------------------------------------------------------
 Center     Atomic      Atomic             Coordinates (Angstroms)
 Number     Number       Type             X           Y           Z
 ---------------------------------------------------------------------
      1          6           0        3.517121   -1.410285   -0.199206
      2          6           0        2.383528   -0.424179   -0.112660
      3          6           0        2.499931    0.841394   -0.532630
      4          6           0        1.403147    1.869137   -0.434006
      5          6           0        0.273192    1.423799    0.502543
      6          6           0       -0.117282   -0.035663    0.238537
      7          6           0        1.096583   -0.944156    0.488686
      8          6           0       -1.321398   -0.504563    1.070023
      9          6           0       -2.640880    0.245739    0.829154
     10          6           0       -3.100900    0.247652   -0.630861
     11          8           0       -3.252590   -1.061970   -1.170331
     12          1           0        3.762563   -1.817455    0.791795
     13          1           0        3.248915   -2.269360   -0.829906
     14          1           0        4.422443   -0.953814   -0.611625
     15          1           0        3.441451    1.167549   -0.974087
     16          1           0        1.820756    2.825505   -0.091056
     17          1           0        0.995216    2.071304   -1.437461
     18          1           0        0.603249    1.513991    1.547398
     19          1           0       -0.589440    2.088903    0.384398
     20          1           0       -0.367855   -0.118806   -0.831250
     21          1           0        0.890769   -1.950960    0.095669
     22          1           0        1.234557   -1.081877    1.573929
     23          1           0       -1.487322   -1.574296    0.877756
     24          1           0       -1.062580   -0.433178    2.135329
     25          1           0       -3.422689   -0.220988    1.440748
     26          1           0       -2.556611    1.287021    1.166953
     27          1           0       -4.089035    0.712099   -0.707564
     28          1           0       -2.414132    0.848415   -1.248004
     29          1           0       -2.367792   -1.451547   -1.237861
 ---------------------------------------------------------------------

 SCF Done:  E(UB3LYP) =  -467.284483724     A.U. after   32 cycles

 The electronic state is 2-A.
 Alpha  occ. eigenvalues --  -19.02219 -10.11374 -10.06890 -10.06666 -10.06651
 Alpha  occ. eigenvalues --  -10.06486 -10.06338 -10.06129 -10.05958 -10.05709
 Alpha  occ. eigenvalues --  -10.05280  -0.92252  -0.74058  -0.69152  -0.65700
 Alpha  occ. eigenvalues --   -0.63820  -0.57777  -0.57257  -0.51424  -0.50225
 Alpha  occ. eigenvalues --   -0.45880  -0.41217  -0.40380  -0.37240  -0.36556
 Alpha  occ. eigenvalues --   -0.34793  -0.33552  -0.32576  -0.32078  -0.30850
 Alpha  occ. eigenvalues --   -0.30406  -0.27807  -0.27199  -0.26832  -0.25970
 Alpha  occ. eigenvalues --   -0.25495  -0.24755  -0.22741  -0.22035  -0.20633
 Alpha  occ. eigenvalues --   -0.19805  -0.17579  -0.13027   0.04676
 Alpha virt. eigenvalues --    0.06829   0.07284   0.07632   0.08476   0.09072
 Alpha virt. eigenvalues --    0.09675   0.10257   0.10614   0.11158   0.11429
 Alpha virt. eigenvalues --    0.11853   0.12844   0.13359   0.14087   0.14157

  Beta  occ. eigenvalues --  -19.02195 -10.11354 -10.06875 -10.06665 -10.06637
  Beta  occ. eigenvalues --  -10.06469 -10.06319 -10.06101 -10.05938 -10.05673
  Beta  occ. eigenvalues --  -10.05265  -0.92201  -0.74026  -0.69116  -0.65659
  Beta  occ. eigenvalues --   -0.63774  -0.57713  -0.57199  -0.51361  -0.50167
  Beta  occ. eigenvalues --   -0.45814  -0.41169  -0.40324  -0.37174  -0.36516
  Beta  occ. eigenvalues --   -0.34746  -0.33504  -0.32543  -0.32048  -0.30805
  Beta  occ. eigenvalues --   -0.30369  -0.27765  -0.27156  -0.26794  -0.25932
  Beta  occ. eigenvalues --   -0.25457  -0.24711  -0.22714  -0.21981  -0.20593
  Beta  occ. eigenvalues --   -0.19769  -0.17540  -0.12999
  Beta virt. eigenvalues --    0.06844   0.07596   0.07991   0.08208   0.08972
  Beta virt. eigenvalues --    0.09536   0.10112   0.10702   0.10952   0.11523
  Beta virt. eigenvalues --    0.11854   0.12253   0.13082   0.13622   0.14328

 Mulliken charges and spin densities:
               1          2
     1  C    1.555650  -2.019314
     2  C   -1.019523   2.210928
     3  C    0.348080  -1.259047
     4  C    1.422333  -1.947659
     5  C   -0.104944  -0.251489
     6  C   -1.259399   2.250868
     7  C    0.254023  -1.454482
     8  C    0.511836  -1.077473
     9  C   -0.657830   0.458939
    10  C    0.591428  -1.149641
    11  O   -0.263519   0.021581
    12  H   -0.291242   0.439311
    13  H   -0.271247   0.427862
    14  H   -0.278963   0.416726
    15  H   -0.455494   0.607059
    16  H   -0.188619   0.349033
    17  H   -0.140313   0.290393
    18  H   -0.121344   0.268639
    19  H    0.094914   0.033175
    20  H    0.155252  -0.029983
    21  H   -0.140224   0.291188
    22  H   -0.009632   0.192930
    23  H   -0.058853   0.241901
    24  H   -0.087859   0.206439
    25  H    0.030990   0.131749
    26  H   -0.230080   0.361183
    27  H   -0.208103   0.375598
    28  H   -0.169107   0.350026
    29  H   -0.008212   0.263560
 Sum of Mulliken charges =  -1.00000   1.00000

 Dipole moment (field-independent basis, Debye):
    X=             -2.0928    Y=              1.0878    Z=              1.4372  Tot=              2.7620
 Quadrupole moment (field-independent basis, Debye-Ang):
   XX=           -144.2778   YY=           -112.7487   ZZ=           -103.4593
   XY=              0.8935   XZ=             -3.0676   YZ=             -1.1345

 Summary of Natural Population Analysis:

                                       Natural Population
                Natural  -----------------------------------------------
    Atom  No    Charge         Core      Valence    Rydberg      Total
 -----------------------------------------------------------------------
      C    1   -0.29022      0.99963     2.28534    0.00525     3.29022
      C    2   -0.00714      0.99949     1.99660    0.01105     3.00714
      C    3   -0.09874      0.99945     2.08959    0.00970     3.09874
      C    4   -0.20078      0.99962     2.19202    0.00913     3.20078
      C    5   -0.18842      0.99961     2.17909    0.00971     3.18842
      C    6   -0.11115      0.99959     2.10136    0.01020     3.11115
      C    7   -0.19919      0.99957     2.18938    0.01024     3.19919
      C    8   -0.18973      0.99961     2.18123    0.00889     3.18973
      C    9   -0.20074      0.99962     2.19375    0.00737     3.20074
      C   10   -0.00978      0.99960     1.99825    0.01193     3.00978
      O   11   -0.37117      0.99990     3.36440    0.00687     4.37117
      H   12    0.10067      0.00000     0.39765    0.00168     0.39933
      H   13    0.10117      0.00000     0.39716    0.00167     0.39883
      H   14    0.10142      0.00000     0.39728    0.00130     0.39858
      H   15    0.09419      0.00000     0.40454    0.00127     0.40581
      H   16    0.10000      0.00000     0.39875    0.00125     0.40000
      H   17    0.09878      0.00000     0.39970    0.00152     0.40122
      H   18    0.09475      0.00000     0.40385    0.00140     0.40525
      H   19    0.09932      0.00000     0.39921    0.00147     0.40068
      H   20    0.09074      0.00000     0.40651    0.00275     0.40926
      H   21    0.10330      0.00000     0.39510    0.00161     0.39670
      H   22    0.10067      0.00000     0.39781    0.00152     0.39933
      H   23    0.09699      0.00000     0.40140    0.00161     0.40301
      H   24    0.09905      0.00000     0.39963    0.00133     0.40095
      H   25    0.09716      0.00000     0.40163    0.00121     0.40284
      H   26    0.09835      0.00000     0.40020    0.00145     0.40165
      H   27    0.08462      0.00000     0.41395    0.00142     0.41538
      H   28    0.07694      0.00000     0.42140    0.00165     0.42306
      H   29    0.22896      0.00000     0.26760    0.00344     0.27104
 =======================================================================
   * Total *    0.00000     10.99569    31.87441    0.12990    43.00000

 Normal termination of Gaussian 16 at Tue Dec  8 20:21:50 2020.
