 Gaussian 16, Revision A.03,

 -----------------------------------------------------------
 # opt freq B3LYP/6-31G(d) empiricaldispersion=gd3bj scf=xqc
 -----------------------------------------------------------

 ------------------------------
 CID_22926257_JID_5672_neutraal
 ------------------------------
 Symbolic Z-matrix:
 Charge =  0 Multiplicity = 1

 SCF Done:  E(RB3LYP) =  -744.580546583     A.U. after   15 cycles
 SCF Done:  E(RB3LYP) =  -744.586330451     A.U. after   13 cycles
 SCF Done:  E(RB3LYP) =  -744.585228857     A.U. after   13 cycles
 SCF Done:  E(RB3LYP) =  -744.586831122     A.U. after   12 cycles
 SCF Done:  E(RB3LYP) =  -744.587288546     A.U. after   13 cycles
 SCF Done:  E(RB3LYP) =  -744.588706857     A.U. after   12 cycles
 SCF Done:  E(RB3LYP) =  -744.588503292     A.U. after   13 cycles
 SCF Done:  E(RB3LYP) =  -744.589172428     A.U. after   12 cycles
 SCF Done:  E(RB3LYP) =  -744.589332768     A.U. after   11 cycles
 SCF Done:  E(RB3LYP) =  -744.589426329     A.U. after   12 cycles
 SCF Done:  E(RB3LYP) =  -744.589438073     A.U. after   10 cycles
 SCF Done:  E(RB3LYP) =  -744.589441199     A.U. after    9 cycles
 SCF Done:  E(RB3LYP) =  -744.589442055     A.U. after    8 cycles
 SCF Done:  E(RB3LYP) =  -744.589442113     A.U. after    8 cycles
 Optimization completed.
    -- Stationary point found.
 Normal termination of Gaussian 16 at Thu Dec 10 16:36:00 2020.

 --------------------------------------------------------------------
 #N Geom=AllCheck Guess=TCheck SCRF=Check GenChk RB3LYP/6-31G(d) Freq
 --------------------------------------------------------------------

 Structure from the checkpoint file:  "JID_5672.chk"
 ------------------------------
 CID_22926257_JID_5672_neutraal
 ------------------------------
 Charge =  0 Multiplicity = 1

 SCF Done:  E(RB3LYP) =  -744.589442113     A.U. after    1 cycles

  Exact polarizability: 137.808  13.032 116.639   9.307 -11.543  98.280
 Approx polarizability: 209.392  35.137 184.971  14.537 -23.468 159.113

                      1                      2                      3
                      A                      A                      A
 Frequencies --     37.4636                60.9666                65.5489
 Red. masses --      6.2197                 8.2538                 4.7020
 Frc consts  --      0.0051                 0.0181                 0.0119
 IR Inten    --      1.9357                 1.9911                 0.2458

                      4                      5                      6
                      A                      A                      A
 Frequencies --    110.8006               119.8837               149.5405
 Red. masses --      5.5106                 3.9379                 3.9572
 Frc consts  --      0.0399                 0.0333                 0.0521
 IR Inten    --      1.1699                 1.7984                 1.9239

                      7                      8                      9
                      A                      A                      A
 Frequencies --    185.8899               191.3914               220.6626
 Red. masses --      5.2208                 5.4254                 1.8412
 Frc consts  --      0.1063                 0.1171                 0.0528
 IR Inten    --      1.3514                 1.6275                 1.4553

                     10                     11                     12
                      A                      A                      A
 Frequencies --    241.4819               258.6946               310.4697
 Red. masses --      2.8652                 3.3573                 1.8642
 Frc consts  --      0.0984                 0.1324                 0.1059
 IR Inten    --      0.1730                 0.8237                 1.7631

                     13                     14                     15
                      A                      A                      A
 Frequencies --    351.3427               412.5041               426.9607
 Red. masses --      2.4740                 4.7204                 3.2549
 Frc consts  --      0.1799                 0.4732                 0.3496
 IR Inten    --      2.6421                 1.4446                 5.2535

                     16                     17                     18
                      A                      A                      A
 Frequencies --    433.6670               474.3242               516.7097
 Red. masses --      3.4198                 4.8524                 3.5644
 Frc consts  --      0.3789                 0.6432                 0.5607
 IR Inten    --     17.2703                 5.2241                 9.5504

                     19                     20                     21
                      A                      A                      A
 Frequencies --    551.6012               564.9921               584.9309
 Red. masses --      4.1161                 4.5250                 2.0588
 Frc consts  --      0.7379                 0.8510                 0.4150
 IR Inten    --      4.7216                10.4028                55.6935

                     22                     23                     24
                      A                      A                      A
 Frequencies --    636.9451               680.7162               702.7573
 Red. masses --      2.7960                 1.8253                 1.9852
 Frc consts  --      0.6683                 0.4983                 0.5777
 IR Inten    --     23.1313                90.9162                38.1525

                     25                     26                     27
                      A                      A                      A
 Frequencies --    741.3081               749.7734               752.0522
 Red. masses --      3.1861                 3.3766                 4.3731
 Frc consts  --      1.0316                 1.1184                 1.4573
 IR Inten    --      7.0626                53.7291                25.1741

                     28                     29                     30
                      A                      A                      A
 Frequencies --    796.4847               812.0887               835.2326
 Red. masses --      1.3773                 1.2031                 2.5479
 Frc consts  --      0.5148                 0.4675                 1.0472
 IR Inten    --     16.5283                 8.1622                14.5741

                     31                     32                     33
                      A                      A                      A
 Frequencies --    874.0263               902.9256               917.3595
 Red. masses --      1.8848                 2.7662                 2.2091
 Frc consts  --      0.8483                 1.3287                 1.0953
 IR Inten    --     11.2183                 5.4697                 5.0665

                     34                     35                     36
                      A                      A                      A
 Frequencies --    931.6492               941.2646              1007.5631
 Red. masses --      2.7329                 1.3503                 4.9082
 Frc consts  --      1.3976                 0.7049                 2.9358
 IR Inten    --      6.2107                 0.4002                11.1240

                     37                     38                     39
                      A                      A                      A
 Frequencies --   1040.3379              1048.4927              1117.9390
 Red. masses --      2.9167                 2.7114                 2.1884
 Frc consts  --      1.8599                 1.7562                 1.6115
 IR Inten    --     15.5103                17.1382                56.3570

                     40                     41                     42
                      A                      A                      A
 Frequencies --   1132.7061              1144.2233              1184.5316
 Red. masses --      2.2843                 2.0412                 3.2120
 Frc consts  --      1.7268                 1.5746                 2.6554
 IR Inten    --    217.6701               154.3780                 4.8619

                     43                     44                     45
                      A                      A                      A
 Frequencies --   1186.3404              1211.0855              1233.5147
 Red. masses --      2.1675                 1.7712                 1.2963
 Frc consts  --      1.7973                 1.5306                 1.1621
 IR Inten    --     10.3055                28.8523                15.4909

                     46                     47                     48
                      A                      A                      A
 Frequencies --   1258.4902              1268.7474              1310.4284
 Red. masses --      1.4931                 1.8217                 1.4164
 Frc consts  --      1.3933                 1.7277                 1.4331
 IR Inten    --     17.0327                19.3203                12.4679

                     49                     50                     51
                      A                      A                      A
 Frequencies --   1339.6335              1352.2849              1367.8531
 Red. masses --      1.6679                 1.1156                 1.6075
 Frc consts  --      1.7635                 1.2020                 1.7721
 IR Inten    --      1.8904                12.2163                 0.7912

                     52                     53                     54
                      A                      A                      A
 Frequencies --   1400.4883              1421.8443              1429.2305
 Red. masses --      1.3184                 1.3339                 1.3391
 Frc consts  --      1.5235                 1.5888                 1.6116
 IR Inten    --      2.1574                 0.3701                 4.8302

                     55                     56                     57
                      A                      A                      A
 Frequencies --   1450.3065              1456.4945              1503.7115
 Red. masses --      1.2888                 2.0494                 1.1061
 Frc consts  --      1.5972                 2.5615                 1.4736
 IR Inten    --     15.5430                12.6416                12.9514

                     58                     59                     60
                      A                      A                      A
 Frequencies --   1516.0138              1523.2422              1528.1389
 Red. masses --      1.0605                 1.0512                 2.4874
 Frc consts  --      1.4361                 1.4370                 3.4223
 IR Inten    --      2.5170                 2.5688                 0.2519

                     61                     62                     63
                      A                      A                      A
 Frequencies --   1541.2602              1592.9530              1687.8980
 Red. masses --      1.0874                 5.2195                 5.3628
 Frc consts  --      1.5219                 7.8034                 9.0018
 IR Inten    --      4.9697                49.4258                64.8885

                     64                     65                     66
                      A                      A                      A
 Frequencies --   1793.8598              1867.1673              3041.1495
 Red. masses --      8.2655                10.1876                 1.0819
 Frc consts  --     15.6710                20.9261                 5.8953
 IR Inten    --    596.2543               230.5634                17.1462

                     67                     68                     69
                      A                      A                      A
 Frequencies --   3061.2790              3066.6512              3072.9197
 Red. masses --      1.0443                 1.0629                 1.0582
 Frc consts  --      5.7661                 5.8895                 5.8872
 IR Inten    --     13.8821                20.2602                31.0166

                     70                     71                     72
                      A                      A                      A
 Frequencies --   3108.9543              3115.1819              3138.7438
 Red. masses --      1.1058                 1.1019                 1.0928
 Frc consts  --      6.2970                 6.3003                 6.3433
 IR Inten    --     33.8081                 8.9583                24.8281

                     73                     74                     75
                      A                      A                      A
 Frequencies --   3166.9808              3218.7406              3225.2449
 Red. masses --      1.1037                 1.0911                 1.0917
 Frc consts  --      6.5221                 6.6601                 6.6908
 IR Inten    --     24.3424                 3.3701                 3.8388

                     76                     77                     78
                      A                      A                      A
 Frequencies --   3265.4834              3601.1318              3681.8592
 Red. masses --      1.0934                 1.0779                 1.0643
 Frc consts  --      6.8693                 8.2362                 8.5003
 IR Inten    --      3.4123                60.0254                53.8345

 - Thermochemistry -
 -------------------
 Temperature   298.150 Kelvin.  Pressure   1.00000 Atm.
 Atom     1 has atomic number  6 and mass  12.00000

 Molecular mass:   211.08446 amu.
 Principal axes and moments of inertia in atomic units:
                           1         2         3
     Eigenvalues --  1874.709744212.141584859.84514
           X            0.99992  -0.00874   0.00879
           Y            0.00865   0.99991   0.01051
           Z           -0.00888  -0.01043   0.99991
 This molecule is an asymmetric top.
 Rotational symmetry number  1.
 Warning -- assumption of classical behavior for rotation
           may cause significant error
 Rotational temperatures (Kelvin)      0.04620     0.02056     0.01782
 Rotational constants (GHZ):           0.96268     0.42846     0.37136
 Zero-point vibrational energy     599481.7 (Joules/Mol)
                                  143.27956 (Kcal/Mol)
 Warning -- explicit consideration of  21 degrees of freedom as
           vibrations may cause significant error
 Vibrational temperatures:     53.90    87.72    94.31   159.42   172.49
          (Kelvin)            215.16   267.45   275.37   317.48   347.44
                              372.20   446.70   505.50   593.50   614.30
                              623.95   682.45   743.43   793.63   812.90
                              841.59   916.42   979.40  1011.11  1066.58
                             1078.76  1082.04  1145.96  1168.41  1201.71
                             1257.53  1299.11  1319.88  1340.44  1354.27
                             1449.66  1496.81  1508.55  1608.46  1629.71
                             1646.28  1704.28  1706.88  1742.48  1774.75
                             1810.69  1825.44  1885.41  1927.43  1945.64
                             1968.04  2014.99  2045.72  2056.34  2086.67
                             2095.57  2163.51  2181.21  2191.61  2198.65
                             2217.53  2291.90  2428.51  2580.96  2686.44
                             4375.54  4404.50  4412.23  4421.25  4473.09
                             4482.05  4515.95  4556.58  4631.05  4640.41
                             4698.30  5181.23  5297.37

 Zero-point correction=                           0.228331 (Hartree/Particle)
 Thermal correction to Energy=                    0.242469
 Thermal correction to Enthalpy=                  0.243414
 Thermal correction to Gibbs Free Energy=         0.186900
 Sum of electronic and zero-point Energies=           -744.361112
 Sum of electronic and thermal Energies=              -744.346973
 Sum of electronic and thermal Enthalpies=            -744.346028
 Sum of electronic and thermal Free Energies=         -744.402542

                     E (Thermal)             CV                S
                      KCal/Mol        Cal/Mol-Kelvin    Cal/Mol-Kelvin
 Total                  152.152             53.591            118.942
 Electronic               0.000              0.000              0.000
 Translational            0.889              2.981             41.945
 Rotational               0.889              2.981             32.018
 Vibrational            150.374             47.630             44.980
 Vibration     1          0.594              1.982              5.389
 Vibration     2          0.597              1.973              4.426
 Vibration     3          0.597              1.971              4.283
 Vibration     4          0.607              1.941              3.255
 Vibration     5          0.609              1.933              3.102
 Vibration     6          0.618              1.903              2.678
 Vibration     7          0.632              1.859              2.268
 Vibration     8          0.634              1.852              2.214
 Vibration     9          0.647              1.810              1.954
 Vibration    10          0.658              1.777              1.792
 Vibration    11          0.668              1.748              1.671
 Vibration    12          0.699              1.654              1.360
 Vibration    13          0.728              1.573              1.160
 Vibration    14          0.776              1.443              0.918
 Vibration    15          0.789              1.412              0.869
 Vibration    16          0.794              1.397              0.847
 Vibration    17          0.831              1.307              0.726
 Vibration    18          0.872              1.213              0.618
 Vibration    19          0.907              1.136              0.541
 Vibration    20          0.921              1.107              0.514
 Vibration    21          0.942              1.064              0.476

 Optimization completed.
    -- Stationary point found.
 Normal termination of Gaussian 16 at Thu Dec 10 16:46:41 2020.

 ----------------------------------------------------------------------
 # B3LYP/6-311++G(d,p) empiricaldispersion=gd3bj scf=xqc pop=npa geom=c
 heck
 ----------------------------------------------------------------------

 --------------------------------------
 CID_22926257_JID_5672_Energie_neutraal
 --------------------------------------
 Structure from the checkpoint file:  "JID_5672.chk"
 Charge =  0 Multiplicity = 1

 SCF Done:  E(RB3LYP) =  -744.816279463     A.U. after   16 cycles
 Normal termination of Gaussian 16 at Thu Dec 10 16:51:39 2020.

 ----------------------------------------------------------------------
 # B3LYP/6-311++G(d,p) empiricaldispersion=gd3bj scf=xqc pop=npa geom=c
 heck
 ----------------------------------------------------------------------

 ------------------------------------
 CID_22926257_JID_5672_Energie_kation
 ------------------------------------
 Structure from the checkpoint file:  "JID_5672.chk"
 Charge =  1 Multiplicity = 2

 SCF Done:  E(UB3LYP) =  -744.512456321     A.U. after   25 cycles
 Normal termination of Gaussian 16 at Thu Dec 10 17:03:19 2020.
 Gaussian 16:  ES64L-G16RevA.03 25-Dec-2016

 ----------------------------------------------------------------------
 # B3LYP/6-311++G(d,p) empiricaldispersion=gd3bj scf=xqc pop=npa geom=c
 heck
 ----------------------------------------------------------------------

 -----------------------------------
 CID_22926257_JID_5672_Energie_anion
 -----------------------------------
 Structure from the checkpoint file:  "JID_5672.chk"
 Charge = -1 Multiplicity = 2

                         Standard orientation:
 ---------------------------------------------------------------------
 Center     Atomic      Atomic             Coordinates (Angstroms)
 Number     Number       Type             X           Y           Z
 ---------------------------------------------------------------------
      1          6           0       -0.574102    1.753560    1.611824
      2          6           0       -0.959009    2.266542    0.230855
      3          8           0       -2.058957    1.599201   -0.396910
      4          6           0       -1.938259    0.283294   -0.867054
      5          6           0       -0.626967   -0.101326   -1.609630
      6          6           0        0.622991   -0.372898   -0.799684
      7          6           0        1.724933    0.429368   -0.928199
      8          6           0        2.948225    0.220303   -0.179017
      9          8           0        3.968278    0.899968   -0.227278
     10          7           0        2.882844   -0.897512    0.681349
     11          6           0        1.809803   -1.727884    0.799259
     12          6           0        0.674950   -1.504404    0.079928
     13          6           0       -2.360265   -0.740012    0.192901
     14          8           0       -2.578669   -0.538153    1.360910
     15          8           0       -2.536004   -1.966557   -0.381270
     16          1           0       -1.438959    1.755154    2.278890
     17          1           0        0.203041    2.407078    2.026618
     18          1           0       -0.176388    0.736990    1.577656
     19          1           0       -1.307856    3.301036    0.305285
     20          1           0       -0.090153    2.265286   -0.435986
     21          1           0       -2.720562    0.203665   -1.633693
     22          1           0       -0.864701   -1.002995   -2.186159
     23          1           0       -0.430409    0.696926   -2.331913
     24          1           0        1.726971    1.283527   -1.596751
     25          1           0        3.725017   -1.060914    1.220206
     26          1           0        1.921598   -2.560968    1.484449
     27          1           0       -0.158780   -2.187393    0.160177
     28          1           0       -2.859722   -2.549750    0.331060
 ---------------------------------------------------------------------

 SCF Done:  E(UB3LYP) =  -744.819743184     A.U. after   33 cycles
 SCF Done:  E(UB3LYP) =  -744.819743184     a.u. after    1 cycles

 The electronic state is 2-A.
 Alpha  occ. eigenvalues --  -19.06472 -19.01971 -19.01260 -18.94710 -14.22566
 Alpha  occ. eigenvalues --  -10.19884 -10.13353 -10.13264 -10.10840 -10.08461
 Alpha  occ. eigenvalues --  -10.06911 -10.05274 -10.04515 -10.04102 -10.02537
 Alpha  occ. eigenvalues --   -1.00586  -0.93394  -0.91584  -0.90238  -0.82035
 Alpha  occ. eigenvalues --   -0.70676  -0.67110  -0.63020  -0.61844  -0.57465
 Alpha  occ. eigenvalues --   -0.52899  -0.51106  -0.48866  -0.45195  -0.42598
 Alpha  occ. eigenvalues --   -0.40964  -0.39745  -0.38353  -0.37622  -0.35552
 Alpha  occ. eigenvalues --   -0.34128  -0.33890  -0.32184  -0.31410  -0.30810
 Alpha  occ. eigenvalues --   -0.30384  -0.29571  -0.29094  -0.27874  -0.26841
 Alpha  occ. eigenvalues --   -0.25840  -0.23780  -0.23313  -0.22368  -0.21368
 Alpha  occ. eigenvalues --   -0.20693  -0.18621  -0.16661  -0.15118  -0.12789
 Alpha  occ. eigenvalues --   -0.09232   0.04286
 Alpha virt. eigenvalues --    0.06743   0.07714   0.08248   0.09168   0.09963
 Alpha virt. eigenvalues --    0.10538   0.11023   0.11216   0.12130   0.12708
 Alpha virt. eigenvalues --    0.13241   0.13812   0.13974   0.15604   0.15875

  Beta  occ. eigenvalues --  -19.06432 -19.01970 -19.01244 -18.94675 -14.22343
  Beta  occ. eigenvalues --  -10.19872 -10.13347 -10.13215 -10.10841 -10.08177
  Beta  occ. eigenvalues --  -10.06929 -10.04978 -10.04513 -10.04194 -10.02368
  Beta  occ. eigenvalues --   -1.00531  -0.93381  -0.91539  -0.90100  -0.81660
  Beta  occ. eigenvalues --   -0.70332  -0.66957  -0.62910  -0.61496  -0.57304
  Beta  occ. eigenvalues --   -0.52845  -0.50744  -0.48638  -0.45106  -0.42378
  Beta  occ. eigenvalues --   -0.40902  -0.39672  -0.38267  -0.37459  -0.35425
  Beta  occ. eigenvalues --   -0.33994  -0.33738  -0.32142  -0.31265  -0.30651
  Beta  occ. eigenvalues --   -0.29735  -0.29503  -0.29026  -0.27807  -0.26805
  Beta  occ. eigenvalues --   -0.25694  -0.23687  -0.23175  -0.22298  -0.20716
  Beta  occ. eigenvalues --   -0.20457  -0.18511  -0.16128  -0.14466  -0.12687
  Beta  occ. eigenvalues --   -0.08296
  Beta virt. eigenvalues --    0.07246   0.07918   0.08523   0.09082   0.09853
  Beta virt. eigenvalues --    0.10279   0.10799   0.11082   0.11269   0.12155
  Beta virt. eigenvalues --    0.12638   0.13393   0.14009   0.14255   0.15756

 Mulliken charges and spin densities:
               1          2
     1  C   -0.540498  -0.030941
     2  C   -0.107014   0.003905
     3  O   -0.116593   0.002645
     4  C    0.540417  -0.378545
     5  C   -0.360938  -0.861756
     6  C    1.016402   0.268250
     7  C   -0.127448   0.441543
     8  C   -0.139933  -0.104473
     9  O   -0.423942   0.012848
    10  N   -0.273872   0.068079
    11  C   -0.303341   0.023854
    12  C   -0.441611   0.012526
    13  C   -0.059594  -0.253349
    14  O   -0.232900   0.019157
    15  O   -0.152898   0.037056
    16  H    0.170608  -0.001882
    17  H    0.099157   0.001177
    18  H    0.217167   0.009303
    19  H    0.161655   0.016293
    20  H    0.118788  -0.017325
    21  H   -0.271985   0.530208
    22  H   -0.047192   0.249968
    23  H    0.108088   0.077508
    24  H    0.107642   0.032254
    25  H    0.291341   0.004716
    26  H   -0.085157   0.196712
    27  H    0.108314   0.102341
    28  H   -0.254664   0.537928
 Sum of Mulliken charges =  -1.00000   1.00000

 Dipole moment (field-independent basis, Debye):
    X=             -0.8658    Y=              0.9406    Z=              1.9259  Tot=              2.3116
 Quadrupole moment (field-independent basis, Debye-Ang):
   XX=           -150.5512   YY=           -113.3267   ZZ=           -108.0166
   XY=            -13.1540   XZ=              5.4015   YZ=             -2.2426

 Summary of Natural Population Analysis:

                                       Natural Population
                Natural  -----------------------------------------------
    Atom  No    Charge         Core      Valence    Rydberg      Total
 -----------------------------------------------------------------------
      C    1   -0.30157      0.99966     2.29801    0.00390     3.30157
      C    2   -0.00983      0.99958     1.99915    0.01111     3.00983
      O    3   -0.30071      0.99987     3.29141    0.00943     4.30071
      C    4    0.02917      0.99948     1.95357    0.01778     2.97083
      C    5   -0.21236      0.99958     2.20284    0.00995     3.21236
      C    6    0.04670      0.99950     1.94322    0.01058     2.95330
      C    7   -0.13226      0.99945     2.12243    0.01037     3.13226
      C    8    0.31219      0.99963     1.66622    0.02196     2.68781
      O    9   -0.34634      0.99988     3.34019    0.00627     4.34634
      N   10   -0.26194      0.99967     2.75349    0.00878     3.76194
      C   11    0.08156      0.99958     1.90694    0.01193     2.91844
      C   12   -0.18025      0.99951     2.17087    0.00987     3.18025
      C   13    0.40032      0.99970     1.57348    0.02650     2.59968
      O   14   -0.30081      0.99986     3.29450    0.00645     4.30081
      O   15   -0.35194      0.99988     3.34493    0.00713     4.35194
      H   16    0.10138      0.00000     0.39769    0.00094     0.39862
      H   17    0.09536      0.00000     0.40384    0.00080     0.40464
      H   18    0.10978      0.00000     0.38896    0.00126     0.39022
      H   19    0.08238      0.00000     0.41655    0.00106     0.41762
      H   20    0.08661      0.00000     0.41193    0.00145     0.41339
      H   21    0.10655      0.00000     0.39131    0.00214     0.39345
      H   22    0.11768      0.00000     0.38064    0.00168     0.38232
      H   23    0.10467      0.00000     0.39427    0.00106     0.39533
      H   24    0.09693      0.00000     0.40191    0.00116     0.40307
      H   25    0.19005      0.00000     0.30724    0.00271     0.30995
      H   26    0.08977      0.00000     0.40941    0.00082     0.41023
      H   27    0.10623      0.00000     0.39192    0.00185     0.39377
      H   28    0.24067      0.00000     0.25071    0.00862     0.25933
 =======================================================================
   * Total *   -0.00000     14.99483    40.80763    0.19754    56.00000

 Normal termination of Gaussian 16 at Thu Dec 10 17:17:31 2020.
