 Gaussian 16, Revision A.03,

 -----------------------------------------------------------
 # opt freq B3LYP/6-31G(d) empiricaldispersion=gd3bj scf=xqc
 -----------------------------------------------------------

 ------------------------------
 CID_60660922_JID_9872_neutraal
 ------------------------------
 Symbolic Z-matrix:
 Charge =  0 Multiplicity = 1

 SCF Done:  E(RB3LYP) =  -1230.90574865     A.U. after   17 cycles
 SCF Done:  E(RB3LYP) =  -1230.93563958     A.U. after   14 cycles
 SCF Done:  E(RB3LYP) =  -1230.93951059     A.U. after   14 cycles
 SCF Done:  E(RB3LYP) =  -1230.94054241     A.U. after   13 cycles
 SCF Done:  E(RB3LYP) =  -1230.94066837     A.U. after   13 cycles
 SCF Done:  E(RB3LYP) =  -1230.94098887     A.U. after   12 cycles
 SCF Done:  E(RB3LYP) =  -1230.94103751     A.U. after   12 cycles
 SCF Done:  E(RB3LYP) =  -1230.94119208     A.U. after   12 cycles
 SCF Done:  E(RB3LYP) =  -1230.94120080     A.U. after   11 cycles
 SCF Done:  E(RB3LYP) =  -1230.94120345     A.U. after   10 cycles
 SCF Done:  E(RB3LYP) =  -1230.94120555     A.U. after    9 cycles
 SCF Done:  E(RB3LYP) =  -1230.94120654     A.U. after    8 cycles
 SCF Done:  E(RB3LYP) =  -1230.94120684     A.U. after    8 cycles
 SCF Done:  E(RB3LYP) =  -1230.94120704     A.U. after    8 cycles
 SCF Done:  E(RB3LYP) =  -1230.94120709     A.U. after    8 cycles
 Optimization completed.
    -- Stationary point found.
 Normal termination of Gaussian 16 at Sat Dec 12 10:06:54 2020.

 --------------------------------------------------------------------
 #N Geom=AllCheck Guess=TCheck SCRF=Check GenChk RB3LYP/6-31G(d) Freq
 --------------------------------------------------------------------

 Structure from the checkpoint file:  "JID_9872.chk"
 ------------------------------
 CID_60660922_JID_9872_neutraal
 ------------------------------
 Charge =  0 Multiplicity = 1

 SCF Done:  E(RB3LYP) =  -1230.94120709     A.U. after    1 cycles

  Exact polarizability: 201.155 -10.656 144.309  12.578  14.219 133.370
 Approx polarizability: 319.563 -33.630 258.158  30.618  27.974 248.246

                      1                      2                      3
                      A                      A                      A
 Frequencies --     18.2903                29.5547                38.0333
 Red. masses --     10.2159                 9.3683                 6.0988
 Frc consts  --      0.0020                 0.0048                 0.0052
 IR Inten    --      2.3397                 0.5410                 1.8706

                      4                      5                      6
                      A                      A                      A
 Frequencies --     57.6176                59.4802                92.6218
 Red. masses --      5.1520                 8.1424                 5.8144
 Frc consts  --      0.0101                 0.0170                 0.0294
 IR Inten    --      0.2196                 3.7162                 2.8954

                      7                      8                      9
                      A                      A                      A
 Frequencies --    114.7966               158.9022               162.6986
 Red. masses --      6.1126                 1.5812                 4.9221
 Frc consts  --      0.0475                 0.0235                 0.0768
 IR Inten    --      3.4967                 3.4462                 6.0844

                     10                     11                     12
                      A                      A                      A
 Frequencies --    173.2050               179.3838               228.9701
 Red. masses --      2.3093                 3.9466                 4.4299
 Frc consts  --      0.0408                 0.0748                 0.1368
 IR Inten    --      1.8143                 4.0636                 1.7629

                     13                     14                     15
                      A                      A                      A
 Frequencies --    266.6724               292.4518               325.8883
 Red. masses --      6.3460                 7.9119                 5.8624
 Frc consts  --      0.2659                 0.3987                 0.3668
 IR Inten    --      7.0943                 2.7745                 3.2750

                     16                     17                     18
                      A                      A                      A
 Frequencies --    353.0037               360.9980               421.6748
 Red. masses --      4.2943                 3.6251                 4.1237
 Frc consts  --      0.3153                 0.2783                 0.4320
 IR Inten    --      0.8069                 0.4879                 3.2685

                     19                     20                     21
                      A                      A                      A
 Frequencies --    428.9752               439.6855               451.9861
 Red. masses --      4.5501                 3.9001                 7.4710
 Frc consts  --      0.4933                 0.4442                 0.8993
 IR Inten    --      1.7729                 2.5507                 3.8041

                     22                     23                     24
                      A                      A                      A
 Frequencies --    498.5424               521.4739               548.1485
 Red. masses --      6.0824                 4.0108                 1.8189
 Frc consts  --      0.8907                 0.6426                 0.3220
 IR Inten    --     14.9378                 5.3438                79.7073

                     25                     26                     27
                      A                      A                      A
 Frequencies --    568.6014               597.5452               613.5887
 Red. masses --      4.3506                 5.2664                 5.2655
 Frc consts  --      0.8287                 1.1079                 1.1680
 IR Inten    --     16.0193                21.6979                 8.1152

                     28                     29                     30
                      A                      A                      A
 Frequencies --    622.3622               638.9705               660.7692
 Red. masses --      5.4333                 4.5176                 6.7944
 Frc consts  --      1.2399                 1.0867                 1.7478
 IR Inten    --      6.6531                13.0596                 4.9655

                     31                     32                     33
                      A                      A                      A
 Frequencies --    671.0556               735.9900               755.3699
 Red. masses --      5.5715                 4.4234                 7.2005
 Frc consts  --      1.4782                 1.4117                 2.4207
 IR Inten    --      7.0982                 7.7862                22.6321

                     34                     35                     36
                      A                      A                      A
 Frequencies --    803.4602               832.5499               840.3728
 Red. masses --      5.2554                 1.2565                 8.8503
 Frc consts  --      1.9989                 0.5131                 3.6826
 IR Inten    --      1.4267                 1.1969                31.7116

                     37                     38                     39
                      A                      A                      A
 Frequencies --    858.6752               911.0205               916.4728
 Red. masses --      1.8448                 4.5030                 4.4598
 Frc consts  --      0.8014                 2.2020                 2.2070
 IR Inten    --     18.8199                 7.1295                37.1507

                     40                     41                     42
                      A                      A                      A
 Frequencies --    958.9578               960.2175               990.6097
 Red. masses --      1.3185                 1.3502                 2.3859
 Frc consts  --      0.7144                 0.7335                 1.3794
 IR Inten    --      1.0245                 1.1277                 5.6006

                     43                     44                     45
                      A                      A                      A
 Frequencies --   1030.0176              1037.0688              1051.4336
 Red. masses --      4.9440                 2.7104                 2.0273
 Frc consts  --      3.0904                 1.7175                 1.3205
 IR Inten    --     20.0507                 0.8356                11.2702

                     46                     47                     48
                      A                      A                      A
 Frequencies --   1054.0740              1074.2362              1117.8418
 Red. masses --      4.8622                 1.4959                 3.6468
 Frc consts  --      3.1829                 1.0171                 2.6848
 IR Inten    --     93.5440                 0.4002                20.8698

                     49                     50                     51
                      A                      A                      A
 Frequencies --   1138.9733              1197.3173              1244.4418
 Red. masses --      1.3197                 1.1846                 2.3040
 Frc consts  --      1.0087                 1.0005                 2.1023
 IR Inten    --      9.6979                15.5466               170.2286

                     52                     53                     54
                      A                      A                      A
 Frequencies --   1263.2501              1296.5280              1302.7992
 Red. masses --      3.6599                 2.2480                 1.4992
 Frc consts  --      3.4411                 2.2264                 1.4992
 IR Inten    --     40.1597                55.1552                24.6476

                     55                     56                     57
                      A                      A                      A
 Frequencies --   1332.5748              1348.1446              1384.6928
 Red. masses --      1.4446                 6.5896                 7.7896
 Frc consts  --      1.5114                 7.0564                 8.7997
 IR Inten    --      2.1905                 5.0236                47.3524

                     58                     59                     60
                      A                      A                      A
 Frequencies --   1392.2897              1408.3033              1441.2816
 Red. masses --      5.6360                 1.2915                 2.4121
 Frc consts  --      6.4370                 1.5092                 2.9522
 IR Inten    --    245.4077                 8.2273                 7.7893

                     61                     62                     63
                      A                      A                      A
 Frequencies --   1446.8451              1495.1189              1504.3141
 Red. masses --      1.3313                 2.2919                 1.0865
 Frc consts  --      1.6419                 3.0185                 1.4486
 IR Inten    --      2.2383                21.1419                 4.1841

                     64                     65                     66
                      A                      A                      A
 Frequencies --   1505.6102              1508.7394              1558.0778
 Red. masses --      1.2206                 1.0634                 3.2555
 Frc consts  --      1.6303                 1.4262                 4.6563
 IR Inten    --     25.8352                20.7015               114.0984

                     67                     68                     69
                      A                      A                      A
 Frequencies --   1564.7759              1643.9212              1670.8610
 Red. masses --      3.3164                 6.8135                 6.0125
 Frc consts  --      4.7844                10.8488                 9.8898
 IR Inten    --     88.9892                 1.2015                 3.4992

                     70                     71                     72
                      A                      A                      A
 Frequencies --   1771.6722              2371.2095              3050.7345
 Red. masses --      9.0466                12.5900                 1.0667
 Frc consts  --     16.7302                41.7076                 5.8495
 IR Inten    --    453.9398                 0.2424                15.0188

                     73                     74                     75
                      A                      A                      A
 Frequencies --   3070.1170              3132.8727              3133.1094
 Red. masses --      1.0390                 1.0965                 1.0982
 Frc consts  --      5.7702                 6.3410                 6.3514
 IR Inten    --      4.7151                 8.9349                 5.5943

                     76                     77                     78
                      A                      A                      A
 Frequencies --   3165.8214              3201.1486              3207.7140
 Red. masses --      1.1027                 1.0899                 1.0896
 Frc consts  --      6.5113                 6.5806                 6.6054
 IR Inten    --      5.5341                 7.9376                 5.3612

                     79                     80                     81
                      A                      A                      A
 Frequencies --   3230.1211              3231.5093              3581.5012
 Red. masses --      1.0937                 1.0941                 1.0755
 Frc consts  --      6.7231                 6.7314                 8.1284
 IR Inten    --      5.4046                 0.2346                44.5582

 - Thermochemistry -
 -------------------
 Temperature   298.150 Kelvin.  Pressure   1.00000 Atm.
 Atom     1 has atomic number  6 and mass  12.00000

 Molecular mass:   274.05245 amu.
 Principal axes and moments of inertia in atomic units:
                           1         2         3
     Eigenvalues --  3000.537687857.914559083.29754
           X            0.99996  -0.00568  -0.00657
           Y            0.00580   0.99983   0.01747
           Z            0.00647  -0.01751   0.99983
 This molecule is an asymmetric top.
 Rotational symmetry number  1.
 Warning -- assumption of classical behavior for rotation
           may cause significant error
 Rotational temperatures (Kelvin)      0.02887     0.01102     0.00954
 Rotational constants (GHZ):           0.60147     0.22967     0.19869
 Zero-point vibrational energy     552200.5 (Joules/Mol)
                                  131.97908 (Kcal/Mol)
 Warning -- explicit consideration of  27 degrees of freedom as
           vibrations may cause significant error
 Vibrational temperatures:     26.32    42.52    54.72    82.90    85.58
          (Kelvin)            133.26   165.17   228.62   234.09   249.20
                              258.09   329.44   383.68   420.77   468.88
                              507.89   519.40   606.70   617.20   632.61
                              650.31   717.29   750.28   788.66   818.09
                              859.73   882.82   895.44   919.34   950.70
                              965.50  1058.93  1086.81  1156.00  1197.85
                             1209.11  1235.44  1310.76  1318.60  1379.73
                             1381.54  1425.27  1481.97  1492.11  1512.78
                             1516.58  1545.59  1608.33  1638.73  1722.67
                             1790.47  1817.54  1865.41  1874.44  1917.28
                             1939.68  1992.26  2003.19  2026.23  2073.68
                             2081.69  2151.14  2164.37  2166.24  2170.74
                             2241.73  2251.36  2365.24  2404.00  2549.04
                             3411.64  4389.33  4417.21  4507.51  4507.85
                             4554.91  4605.74  4615.18  4647.42  4649.42
                             5152.98

 Zero-point correction=                           0.210322 (Hartree/Particle)
 Thermal correction to Energy=                    0.227651
 Thermal correction to Enthalpy=                  0.228595
 Thermal correction to Gibbs Free Energy=         0.162375
 Sum of electronic and zero-point Energies=          -1230.730885
 Sum of electronic and thermal Energies=             -1230.713556
 Sum of electronic and thermal Enthalpies=           -1230.712612
 Sum of electronic and thermal Free Energies=        -1230.778832

                     E (Thermal)             CV                S
                      KCal/Mol        Cal/Mol-Kelvin    Cal/Mol-Kelvin
 Total                  142.853             63.645            139.372
 Electronic               0.000              0.000              0.000
 Translational            0.889              2.981             42.723
 Rotational               0.889              2.981             33.726
 Vibrational            141.076             57.683             62.923
 Vibration     1          0.593              1.986              6.812
 Vibration     2          0.593              1.984              5.859
 Vibration     3          0.594              1.982              5.359
 Vibration     4          0.596              1.974              4.537
 Vibration     5          0.597              1.974              4.474
 Vibration     6          0.602              1.954              3.604
 Vibration     7          0.608              1.937              3.186
 Vibration     8          0.621              1.893              2.563
 Vibration     9          0.623              1.888              2.518
 Vibration    10          0.627              1.875              2.400
 Vibration    11          0.629              1.868              2.335
 Vibration    12          0.652              1.797              1.887
 Vibration    13          0.672              1.734              1.618
 Vibration    14          0.688              1.688              1.460
 Vibration    15          0.710              1.624              1.280
 Vibration    16          0.729              1.569              1.153
 Vibration    17          0.735              1.553              1.118
 Vibration    18          0.784              1.423              0.886
 Vibration    19          0.790              1.407              0.862
 Vibration    20          0.800              1.384              0.828
 Vibration    21          0.811              1.356              0.790
 Vibration    22          0.854              1.253              0.662
 Vibration    23          0.876              1.202              0.607
 Vibration    24          0.903              1.144              0.548
 Vibration    25          0.925              1.099              0.507
 Vibration    26          0.955              1.037              0.454
 Vibration    27          0.973              1.003              0.427

                           ! Non-Optimized Parameters !
 Normal termination of Gaussian 16 at Sat Dec 12 10:21:43 2020.

 ----------------------------------------------------------------------
 # B3LYP/6-311++G(d,p) empiricaldispersion=gd3bj scf=xqc pop=npa geom=c
 heck
 ----------------------------------------------------------------------

 --------------------------------------
 CID_60660922_JID_9872_Energie_neutraal
 --------------------------------------
 Structure from the checkpoint file:  "JID_9872.chk"
 Charge =  0 Multiplicity = 1

 SCF Done:  E(RB3LYP) =  -1231.19482757     A.U. after   17 cycles
 Normal termination of Gaussian 16 at Sat Dec 12 10:28:32 2020.

 ----------------------------------------------------------------------
 # B3LYP/6-311++G(d,p) empiricaldispersion=gd3bj scf=xqc pop=npa geom=c
 heck
 ----------------------------------------------------------------------

 ------------------------------------
 CID_60660922_JID_9872_Energie_kation
 ------------------------------------
 Structure from the checkpoint file:  "JID_9872.chk"
 Charge =  1 Multiplicity = 2

 SCF Done:  E(UB3LYP) =  -1230.87583029     A.U. after   33 cycles
 SCF Done:  E(UB3LYP) =  -1230.87583029     a.u. after    1 cycles
 Normal termination of Gaussian 16 at Sat Dec 12 10:47:00 2020.
 Gaussian 16:  ES64L-G16RevA.03 25-Dec-2016

 ----------------------------------------------------------------------
 # B3LYP/6-311++G(d,p) empiricaldispersion=gd3bj scf=xqc pop=npa geom=c
 heck
 ----------------------------------------------------------------------

 -----------------------------------
 CID_60660922_JID_9872_Energie_anion
 -----------------------------------
 Structure from the checkpoint file:  "JID_9872.chk"
 Charge = -1 Multiplicity = 2

                         Standard orientation:
 ---------------------------------------------------------------------
 Center     Atomic      Atomic             Coordinates (Angstroms)
 Number     Number       Type             X           Y           Z
 ---------------------------------------------------------------------
      1          6           0       -0.502332   -0.851075    1.823861
      2          6           0       -1.548190   -1.048892    0.771215
      3          6           0       -2.326304   -0.102492    0.134541
      4         16           0       -3.399120   -0.891535   -0.946931
      5          7           0       -2.735256   -2.445791   -0.536458
      6          7           0       -1.826657   -2.332296    0.350913
      7          6           0       -2.413653    1.373444    0.339068
      8          8           0       -3.489352    1.931096    0.502162
      9          7           0       -1.230340    2.078406    0.356717
     10          6           0        0.061612    1.658333   -0.044035
     11          6           0        1.168041    2.032316    0.725621
     12          6           0        2.441834    1.585719    0.386924
     13          6           0        2.606635    0.756842   -0.720623
     14          6           0        1.515934    0.410189   -1.518296
     15          6           0        0.246331    0.875163   -1.189783
     16          8           0        3.881974    0.295271   -1.017565
     17          6           0        4.061234   -1.096604   -0.793640
     18          6           0        3.820837   -1.460355    0.616494
     19          7           0        3.595120   -1.706865    1.727318
     20          1           0       -0.578947   -1.647952    2.568507
     21          1           0        0.505031   -0.894828    1.394713
     22          1           0       -0.616816    0.113309    2.321645
     23          1           0       -1.357711    3.049494    0.619055
     24          1           0        1.021734    2.639232    1.614221
     25          1           0        3.305896    1.841447    0.989896
     26          1           0        1.662979   -0.202884   -2.401960
     27          1           0       -0.601144    0.627193   -1.817955
     28          1           0        3.396284   -1.698943   -1.426679
     29          1           0        5.095706   -1.322146   -1.064831
 ---------------------------------------------------------------------

 SCF Done:  E(UB3LYP) =  -1231.22381879     A.U. after   31 cycles

 The electronic state is 2-A.
 Alpha  occ. eigenvalues --  -88.73620 -19.07523 -18.95682 -14.24394 -14.22933
 Alpha  occ. eigenvalues --  -14.20174 -14.19707 -10.19644 -10.14507 -10.13824
 Alpha  occ. eigenvalues --  -10.12922 -10.11289 -10.08293 -10.07967 -10.07865
 Alpha  occ. eigenvalues --  -10.07543 -10.06900 -10.06020 -10.04652  -7.82220
 Alpha  occ. eigenvalues --   -5.78559  -5.78133  -5.77816  -0.99197  -0.91555
 Alpha  occ. eigenvalues --   -0.88856  -0.83607  -0.82352  -0.75374  -0.68999
 Alpha  occ. eigenvalues --   -0.68007  -0.66088  -0.65860  -0.62939  -0.56893
 Alpha  occ. eigenvalues --   -0.53974  -0.52933  -0.51121  -0.46846  -0.45105
 Alpha  occ. eigenvalues --   -0.44413  -0.43284  -0.42149  -0.41337  -0.37406
 Alpha  occ. eigenvalues --   -0.35675  -0.35397  -0.33718  -0.33352  -0.31760
 Alpha  occ. eigenvalues --   -0.31351  -0.30516  -0.30151  -0.29331  -0.28728
 Alpha  occ. eigenvalues --   -0.27752  -0.27235  -0.26918  -0.26496  -0.26216
 Alpha  occ. eigenvalues --   -0.25642  -0.22582  -0.21846  -0.19808  -0.18619
 Alpha  occ. eigenvalues --   -0.16899  -0.15876  -0.13429  -0.12673  -0.11710
 Alpha  occ. eigenvalues --   -0.10739   0.02756
 Alpha virt. eigenvalues --    0.05656   0.06811   0.07471   0.07732   0.08052
 Alpha virt. eigenvalues --    0.08535   0.09755   0.10300   0.10918   0.11127
 Alpha virt. eigenvalues --    0.11668   0.11966   0.12994   0.13134   0.13282

  Beta  occ. eigenvalues --  -88.73549 -19.07523 -18.95423 -14.24387 -14.22966
  Beta  occ. eigenvalues --  -14.19677 -14.19539 -10.19617 -10.14341 -10.13821
  Beta  occ. eigenvalues --  -10.12802 -10.11220 -10.08332 -10.07925 -10.07869
  Beta  occ. eigenvalues --  -10.07423 -10.06838 -10.05823 -10.04655  -7.82157
  Beta  occ. eigenvalues --   -5.78523  -5.78101  -5.77586  -0.99149  -0.91130
  Beta  occ. eigenvalues --   -0.88265  -0.83592  -0.82190  -0.75247  -0.68909
  Beta  occ. eigenvalues --   -0.67587  -0.65802  -0.65613  -0.62806  -0.56595
  Beta  occ. eigenvalues --   -0.53719  -0.52723  -0.50778  -0.46759  -0.44958
  Beta  occ. eigenvalues --   -0.44262  -0.43071  -0.42051  -0.41161  -0.37255
  Beta  occ. eigenvalues --   -0.35574  -0.35081  -0.33648  -0.33273  -0.31471
  Beta  occ. eigenvalues --   -0.30855  -0.30387  -0.29812  -0.29111  -0.28472
  Beta  occ. eigenvalues --   -0.27512  -0.27039  -0.26814  -0.25984  -0.25589
  Beta  occ. eigenvalues --   -0.25321  -0.22333  -0.21780  -0.19339  -0.18045
  Beta  occ. eigenvalues --   -0.16392  -0.14983  -0.12791  -0.11957  -0.10390
  Beta  occ. eigenvalues --   -0.10178
  Beta virt. eigenvalues --    0.05626   0.06842   0.07532   0.07783   0.08040
  Beta virt. eigenvalues --    0.08560   0.09415   0.09795   0.10579   0.10934
  Beta virt. eigenvalues --    0.11175   0.11676   0.12279   0.13035   0.13210

 Mulliken charges and spin densities:
               1          2
     1  C   -0.491255  -0.036064
     2  C   -0.655638   0.066666
     3  C    0.442251   0.106293
     4  S    0.025433   0.152926
     5  N   -0.174712   0.247959
     6  N    0.026710   0.017038
     7  C   -0.213713   0.120712
     8  O   -0.361316   0.083916
     9  N   -0.221781  -0.013919
    10  C    0.058309  -0.154007
    11  C   -0.218836   0.225664
    12  C   -0.230378  -0.023178
    13  C   -0.416390   0.080071
    14  C   -0.081598   0.109478
    15  C    0.186235  -0.045647
    16  O   -0.110346   0.000657
    17  C   -0.169200  -0.022453
    18  C    0.107686   0.000976
    19  N   -0.278482   0.005216
    20  H    0.182657  -0.000789
    21  H    0.175024  -0.016783
    22  H    0.124741   0.012077
    23  H    0.284541   0.027200
    24  H    0.136244   0.010900
    25  H    0.170448   0.008463
    26  H    0.159996  -0.004021
    27  H    0.233766   0.005985
    28  H    0.161503  -0.007014
    29  H    0.148101   0.041676
 Sum of Mulliken charges =  -1.00000   1.00000

 Dipole moment (field-independent basis, Debye):
    X=              9.0088    Y=              2.9831    Z=             -1.9399  Tot=              9.6861
 Quadrupole moment (field-independent basis, Debye-Ang):
   XX=           -173.4604   YY=           -147.9272   ZZ=           -127.8615
   XY=             -6.2755   XZ=             -7.5920   YZ=              7.0563

 Summary of Natural Population Analysis:

                                       Natural Population
                Natural  -----------------------------------------------
    Atom  No    Charge         Core      Valence    Rydberg      Total
 -----------------------------------------------------------------------
      C    1   -0.29727      0.99963     2.29260    0.00504     3.29727
      C    2    0.05617      0.99946     1.92513    0.01925     2.94383
      C    3   -0.13542      0.99940     2.12002    0.01601     3.13542
      S    4    0.27271      4.99945     2.70237    0.02548     7.72729
      N    5   -0.08939      0.99982     2.57253    0.01705     3.58939
      N    6   -0.12605      0.99970     2.60989    0.01646     3.62605
      C    7    0.35174      0.99960     1.62727    0.02140     2.64826
      O    8   -0.29337      0.99988     3.28779    0.00571     4.29337
      N    9   -0.32231      0.99964     2.81146    0.01122     3.82231
      C   10    0.08325      0.99947     1.90533    0.01194     2.91675
      C   11   -0.08270      0.99952     2.07550    0.00768     3.08270
      C   12   -0.12199      0.99952     2.11385    0.00863     3.12199
      C   13    0.14579      0.99935     1.84037    0.01448     2.85421
      C   14   -0.11119      0.99951     2.10410    0.00758     3.11119
      C   15   -0.10230      0.99953     2.09311    0.00966     3.10230
      O   16   -0.28311      0.99987     3.27349    0.00975     4.28311
      C   17   -0.05596      0.99949     2.04565    0.01082     3.05596
      C   18    0.13449      0.99966     1.84911    0.01674     2.86551
      N   19   -0.16148      0.99979     2.65077    0.01091     3.66148
      H   20    0.10593      0.00000     0.39314    0.00093     0.39407
      H   21    0.10840      0.00000     0.39011    0.00149     0.39160
      H   22    0.10203      0.00000     0.39714    0.00084     0.39797
      H   23    0.19494      0.00000     0.30349    0.00158     0.30506
      H   24    0.09901      0.00000     0.39971    0.00128     0.40099
      H   25    0.10383      0.00000     0.39491    0.00126     0.39617
      H   26    0.10099      0.00000     0.39816    0.00084     0.39901
      H   27    0.11274      0.00000     0.38599    0.00127     0.38726
      H   28    0.10390      0.00000     0.39476    0.00134     0.39610
      H   29    0.10665      0.00000     0.39195    0.00140     0.39335
 =======================================================================
   * Total *   -0.00000     22.99229    47.74969    0.25802    71.00000

 Normal termination of Gaussian 16 at Sat Dec 12 11:04:17 2020.
