 Gaussian 16, Revision A.03,

 -----------------------------------------------------------
 # opt freq B3LYP/6-31G(d) empiricaldispersion=gd3bj scf=xqc
 -----------------------------------------------------------

 -------------------------------
 CID_144390269_JID_5949_neutraal
 -------------------------------
 Symbolic Z-matrix:
 Charge =  0 Multiplicity = 1

 SCF Done:  E(RB3LYP) =  -620.791091790     A.U. after   14 cycles
 SCF Done:  E(RB3LYP) =  -620.798816525     A.U. after   11 cycles
 SCF Done:  E(RB3LYP) =  -620.799483867     A.U. after   11 cycles
 SCF Done:  E(RB3LYP) =  -620.799782294     A.U. after   11 cycles
 SCF Done:  E(RB3LYP) =  -620.799882494     A.U. after   11 cycles
 SCF Done:  E(RB3LYP) =  -620.799979108     A.U. after   11 cycles
 SCF Done:  E(RB3LYP) =  -620.800095644     A.U. after   11 cycles
 SCF Done:  E(RB3LYP) =  -620.800616326     A.U. after   11 cycles
 SCF Done:  E(RB3LYP) =  -620.800433639     A.U. after   12 cycles
 SCF Done:  E(RB3LYP) =  -620.765098983     A.U. after   13 cycles
 SCF Done:  E(RB3LYP) =  -620.801858655     A.U. after    8 cycles
 SCF Done:  E(RB3LYP) =  -620.801859322     A.U. after    8 cycles
 SCF Done:  E(RB3LYP) =  -620.801859591     A.U. after    8 cycles
 SCF Done:  E(RB3LYP) =  -620.801859712     A.U. after    7 cycles
 SCF Done:  E(RB3LYP) =  -620.801859753     A.U. after    7 cycles
 Optimization completed.
    -- Stationary point found.
 Normal termination of Gaussian 16 at Thu Dec 10 17:50:58 2020.

 --------------------------------------------------------------------
 #N Geom=AllCheck Guess=TCheck SCRF=Check GenChk RB3LYP/6-31G(d) Freq
 --------------------------------------------------------------------

 Structure from the checkpoint file:  "JID_5949.chk"
 -------------------------------
 CID_144390269_JID_5949_neutraal
 -------------------------------
 Charge =  0 Multiplicity = 1

 SCF Done:  E(RB3LYP) =  -620.801859753     A.U. after    1 cycles

  Exact polarizability: 178.809  -4.252 159.703  -9.968   4.045 100.176
 Approx polarizability: 239.942  -4.057 241.538 -25.218   9.695 151.452

                      1                      2                      3
                      A                      A                      A
 Frequencies --     29.7213                53.9401                66.6462
 Red. masses --      3.5829                 3.2955                 2.8310
 Frc consts  --      0.0019                 0.0056                 0.0074
 IR Inten    --      0.1858                 0.0144                 0.0137

                      4                      5                      6
                      A                      A                      A
 Frequencies --     88.2864               123.5776               129.9793
 Red. masses --      2.7616                 2.9244                 3.3473
 Frc consts  --      0.0127                 0.0263                 0.0333
 IR Inten    --      0.8694                 0.2054                 0.2518

                      7                      8                      9
                      A                      A                      A
 Frequencies --    193.0614               227.6621               240.6054
 Red. masses --      3.2340                 2.3768                 1.1778
 Frc consts  --      0.0710                 0.0726                 0.0402
 IR Inten    --      0.5047                 0.4090                 0.0907

                     10                     11                     12
                      A                      A                      A
 Frequencies --    250.1859               258.0056               288.0577
 Red. masses --      1.3246                 2.4436                 1.0693
 Frc consts  --      0.0489                 0.0958                 0.0523
 IR Inten    --      0.4356                 0.2945                 0.0453

                     13                     14                     15
                      A                      A                      A
 Frequencies --    305.1621               325.0199               354.3171
 Red. masses --      2.9441                 2.9783                 3.3552
 Frc consts  --      0.1615                 0.1854                 0.2482
 IR Inten    --      0.5389                 0.3332                 0.3111

                     16                     17                     18
                      A                      A                      A
 Frequencies --    393.0329               416.8170               453.4345
 Red. masses --      2.3651                 2.2574                 2.0775
 Frc consts  --      0.2153                 0.2311                 0.2517
 IR Inten    --      0.4025                 0.6630                 2.3385

                     19                     20                     21
                      A                      A                      A
 Frequencies --    493.5497               522.9144               558.4640
 Red. masses --      3.4158                 3.4538                 3.5445
 Frc consts  --      0.4902                 0.5564                 0.6513
 IR Inten    --      1.2573                 1.9510                 0.1467

                     22                     23                     24
                      A                      A                      A
 Frequencies --    588.1583               616.0738               684.1909
 Red. masses --      3.2769                 5.6031                 3.3409
 Frc consts  --      0.6679                 1.2530                 0.9214
 IR Inten    --      0.3216                 2.9466                 1.8365

                     25                     26                     27
                      A                      A                      A
 Frequencies --    744.9519               755.8006               764.0355
 Red. masses --      3.6580                 3.1233                 1.3604
 Frc consts  --      1.1961                 1.0512                 0.4679
 IR Inten    --      3.1270                 1.0175                47.8166

                     28                     29                     30
                      A                      A                      A
 Frequencies --    799.0075               820.4097               861.1513
 Red. masses --      1.8806                 2.7880                 1.4900
 Frc consts  --      0.7074                 1.1056                 0.6510
 IR Inten    --      0.9010                 5.6348                 1.0260

                     31                     32                     33
                      A                      A                      A
 Frequencies --    879.8467               904.2915               905.5154
 Red. masses --      2.6604                 2.3839                 2.0848
 Frc consts  --      1.2134                 1.1486                 1.0072
 IR Inten    --      1.4396                 1.6726                 0.1946

                     34                     35                     36
                      A                      A                      A
 Frequencies --    915.2459               932.7116               944.5951
 Red. masses --      2.2268                 1.3589                 1.1865
 Frc consts  --      1.0990                 0.6965                 0.6238
 IR Inten    --      9.3812                 2.2083                 2.2690

                     37                     38                     39
                      A                      A                      A
 Frequencies --    961.3397               967.4603               978.6760
 Red. masses --      1.5281                 1.2512                 1.5414
 Frc consts  --      0.8320                 0.6900                 0.8698
 IR Inten    --      4.4377                 0.4119                 6.5610

                     40                     41                     42
                      A                      A                      A
 Frequencies --    979.9768              1016.9677              1075.2784
 Red. masses --      1.5171                 2.4047                 2.1464
 Frc consts  --      0.8584                 1.4653                 1.4622
 IR Inten    --      1.6244                40.9466                10.1584

                     43                     44                     45
                      A                      A                      A
 Frequencies --   1091.4715              1108.2850              1111.9811
 Red. masses --      1.4074                 1.9957                 1.9371
 Frc consts  --      0.9878                 1.4442                 1.4112
 IR Inten    --      1.5848                 2.0036                14.5120

                     46                     47                     48
                      A                      A                      A
 Frequencies --   1135.3090              1147.7541              1150.4167
 Red. masses --      2.5817                 1.5561                 2.1183
 Frc consts  --      1.9606                 1.2078                 1.6518
 IR Inten    --     12.8680                 0.0497                 6.2151

                     49                     50                     51
                      A                      A                      A
 Frequencies --   1185.7749              1191.2565              1199.4494
 Red. masses --      2.0127                 1.9319                 1.0892
 Frc consts  --      1.6674                 1.6153                 0.9232
 IR Inten    --     10.8712                38.6148                 1.7606

                     52                     53                     54
                      A                      A                      A
 Frequencies --   1235.6228              1248.1989              1255.5461
 Red. masses --      1.9414                 1.4935                 1.4771
 Frc consts  --      1.7464                 1.3710                 1.3719
 IR Inten    --     16.1372                 4.8940                 1.8199

                     55                     56                     57
                      A                      A                      A
 Frequencies --   1281.6408              1290.0135              1300.2821
 Red. masses --      2.8200                 1.3352                 1.7317
 Frc consts  --      2.7292                 1.3091                 1.7251
 IR Inten    --    214.4337                 0.4228                46.2825

                     58                     59                     60
                      A                      A                      A
 Frequencies --   1314.6522              1329.6271              1348.5373
 Red. masses --      1.4740                 1.5813                 3.0382
 Frc consts  --      1.5009                 1.6471                 3.2553
 IR Inten    --      2.8511                21.6361                 5.1097

                     61                     62                     63
                      A                      A                      A
 Frequencies --   1357.7266              1385.4716              1398.7550
 Red. masses --      1.4189                 1.4649                 1.3497
 Frc consts  --      1.5411                 1.6567                 1.5559
 IR Inten    --      2.2678                33.2384                17.8756

                     64                     65                     66
                      A                      A                      A
 Frequencies --   1399.8044              1422.4905              1439.7084
 Red. masses --      1.7630                 1.2556                 1.2905
 Frc consts  --      2.0354                 1.4969                 1.5759
 IR Inten    --     17.2057                 2.8882                 0.6337

                     67                     68                     69
                      A                      A                      A
 Frequencies --   1444.4711              1490.4469              1501.1320
 Red. masses --      1.2351                 1.0897                 2.2548
 Frc consts  --      1.5183                 1.4263                 2.9936
 IR Inten    --      2.7506                 4.9520                34.6709

                     70                     71                     72
                      A                      A                      A
 Frequencies --   1513.9071              1519.2057              1520.6722
 Red. masses --      1.1303                 1.0984                 1.0666
 Frc consts  --      1.5263                 1.4937                 1.4532
 IR Inten    --      4.5464                 5.0691                 6.3593

                     73                     74                     75
                      A                      A                      A
 Frequencies --   1525.9765              1526.7049              1537.2437
 Red. masses --      1.0499                 1.0459                 1.0972
 Frc consts  --      1.4404                 1.4363                 1.5277
 IR Inten    --      1.8961                 7.1239                 3.5916

                     76                     77                     78
                      A                      A                      A
 Frequencies --   1543.0850              1545.8358              1646.4657
 Red. masses --      1.1431                 1.8410                 6.0802
 Frc consts  --      1.6037                 2.5919                 9.7113
 IR Inten    --      8.8282                66.0326                 8.4428

                     79                     80                     81
                      A                      A                      A
 Frequencies --   1661.0044              3035.6000              3043.2254
 Red. masses --      5.8632                 1.0356                 1.0360
 Frc consts  --      9.5307                 5.6226                 5.6532
 IR Inten    --     31.8486                34.1442                26.3763

                     82                     83                     84
                      A                      A                      A
 Frequencies --   3047.3194              3051.0300              3053.7645
 Red. masses --      1.0418                 1.0821                 1.0775
 Frc consts  --      5.6997                 5.9349                 5.9201
 IR Inten    --     29.2651                34.3208                11.1706

                     85                     86                     87
                      A                      A                      A
 Frequencies --   3065.5525              3067.1147              3077.4550
 Red. masses --      1.0755                 1.0722                 1.0670
 Frc consts  --      5.9551                 5.9427                 5.9538
 IR Inten    --     12.0285                17.8168                38.2645

                     88                     89                     90
                      A                      A                      A
 Frequencies --   3102.1078              3105.1198              3105.4176
 Red. masses --      1.1008                 1.1024                 1.1022
 Frc consts  --      6.2415                 6.2626                 6.2624
 IR Inten    --     39.0611                 1.8100                29.2286

                     91                     92                     93
                      A                      A                      A
 Frequencies --   3112.8452              3119.8161              3133.9315
 Red. masses --      1.1009                 1.1030                 1.1050
 Frc consts  --      6.2848                 6.3251                 6.3941
 IR Inten    --     72.0775                33.2785                10.6384

                     94                     95                     96
                      A                      A                      A
 Frequencies --   3135.0619              3136.7646              3185.2577
 Red. masses --      1.1048                 1.1003                 1.0855
 Frc consts  --      6.3975                 6.3786                 6.4888
 IR Inten    --     55.6639                19.7920                 1.6546

                     97                     98                     99
                      A                      A                      A
 Frequencies --   3199.9795              3213.9051              3228.7185
 Red. masses --      1.0906                 1.0937                 1.0921
 Frc consts  --      6.5796                 6.6560                 6.7079
 IR Inten    --     23.9386                31.3318                11.0104

 - Thermochemistry -
 -------------------
 Temperature   298.150 Kelvin.  Pressure   1.00000 Atm.
 Atom     1 has atomic number  6 and mass  12.00000

 Molecular mass:   204.15142 amu.
 Principal axes and moments of inertia in atomic units:
                           1         2         3
     Eigenvalues --  1918.485884731.747806009.71302
           X            0.99983   0.01836   0.00259
           Y           -0.01835   0.99982  -0.00417
           Z           -0.00267   0.00412   0.99999
 This molecule is an asymmetric top.
 Rotational symmetry number  1.
 Warning -- assumption of classical behavior for rotation
           may cause significant error
 Rotational temperatures (Kelvin)      0.04515     0.01830     0.01441
 Rotational constants (GHZ):           0.94071     0.38141     0.30030
 Zero-point vibrational energy     815817.5 (Joules/Mol)
                                  194.98507 (Kcal/Mol)
 Warning -- explicit consideration of  23 degrees of freedom as
           vibrations may cause significant error
 Vibrational temperatures:     42.76    77.61    95.89   127.02   177.80
          (Kelvin)            187.01   277.77   327.56   346.18   359.96
                              371.21   414.45   439.06   467.63   509.78
                              565.49   599.71   652.39   710.11   752.36
                              803.51   846.23   886.39   984.40  1071.82
                             1087.43  1099.28  1149.59  1180.39  1239.00
                             1265.90  1301.07  1302.83  1316.83  1341.96
                             1359.06  1383.15  1391.96  1408.10  1409.97
                             1463.19  1547.09  1570.38  1594.57  1599.89
                             1633.46  1651.36  1655.19  1706.07  1713.95
                             1725.74  1777.79  1795.88  1806.45  1844.00
                             1856.04  1870.82  1891.49  1913.04  1940.24
                             1953.47  1993.38  2012.50  2014.01  2046.65
                             2071.42  2078.27  2144.42  2159.79  2178.17
                             2185.80  2187.91  2195.54  2196.59  2211.75
                             2220.16  2224.11  2368.90  2389.81  4367.55
                             4378.52  4384.41  4389.75  4393.69  4410.65
                             4412.89  4427.77  4463.24  4467.57  4468.00
                             4478.69  4488.72  4509.03  4510.65  4513.10
                             4582.88  4604.06  4624.09  4645.41

 Zero-point correction=                           0.310728 (Hartree/Particle)
 Thermal correction to Energy=                    0.325690
 Thermal correction to Enthalpy=                  0.326634
 Thermal correction to Gibbs Free Energy=         0.268375
 Sum of electronic and zero-point Energies=           -620.491131
 Sum of electronic and thermal Energies=              -620.476170
 Sum of electronic and thermal Enthalpies=            -620.475225
 Sum of electronic and thermal Free Energies=         -620.533484

                     E (Thermal)             CV                S
                      KCal/Mol        Cal/Mol-Kelvin    Cal/Mol-Kelvin
 Total                  204.374             58.254            122.616
 Electronic               0.000              0.000              0.000
 Translational            0.889              2.981             41.845
 Rotational               0.889              2.981             32.367
 Vibrational            202.596             52.292             48.404
 Vibration     1          0.594              1.984              5.848
 Vibration     2          0.596              1.976              4.667
 Vibration     3          0.598              1.970              4.250
 Vibration     4          0.601              1.957              3.698
 Vibration     5          0.610              1.929              3.044
 Vibration     6          0.612              1.923              2.946
 Vibration     7          0.635              1.849              2.198
 Vibration     8          0.651              1.799              1.897
 Vibration     9          0.658              1.778              1.798
 Vibration    10          0.663              1.762              1.729
 Vibration    11          0.667              1.749              1.675
 Vibration    12          0.685              1.696              1.485
 Vibration    13          0.696              1.664              1.388
 Vibration    14          0.709              1.625              1.285
 Vibration    15          0.730              1.566              1.147
 Vibration    16          0.760              1.485              0.989
 Vibration    17          0.780              1.434              0.903
 Vibration    18          0.812              1.353              0.785
 Vibration    19          0.849              1.264              0.674
 Vibration    20          0.878              1.199              0.603
 Vibration    21          0.914              1.121              0.527
 Vibration    22          0.945              1.057              0.470
 Vibration    23          0.976              0.998              0.423

 Optimization completed.
    -- Stationary point found.
 Normal termination of Gaussian 16 at Thu Dec 10 18:03:18 2020.

 ----------------------------------------------------------------------
 # B3LYP/6-311++G(d,p) empiricaldispersion=gd3bj scf=xqc pop=npa geom=c
 heck
 ----------------------------------------------------------------------

 ---------------------------------------
 CID_144390269_JID_5949_Energie_neutraal
 ---------------------------------------
 Structure from the checkpoint file:  "JID_5949.chk"
 Charge =  0 Multiplicity = 1

 SCF Done:  E(RB3LYP) =  -620.966362029     A.U. after   14 cycles
 Normal termination of Gaussian 16 at Thu Dec 10 18:09:09 2020.

 ----------------------------------------------------------------------
 # B3LYP/6-311++G(d,p) empiricaldispersion=gd3bj scf=xqc pop=npa geom=c
 heck
 ----------------------------------------------------------------------

 -------------------------------------
 CID_144390269_JID_5949_Energie_kation
 -------------------------------------
 Structure from the checkpoint file:  "JID_5949.chk"
 Charge =  1 Multiplicity = 2

 SCF Done:  E(UB3LYP) =  -620.681289155     A.U. after   21 cycles
 Normal termination of Gaussian 16 at Thu Dec 10 18:21:24 2020.
 Gaussian 16:  ES64L-G16RevA.03 25-Dec-2016

 ----------------------------------------------------------------------
 # B3LYP/6-311++G(d,p) empiricaldispersion=gd3bj scf=xqc pop=npa geom=c
 heck
 ----------------------------------------------------------------------

 ------------------------------------
 CID_144390269_JID_5949_Energie_anion
 ------------------------------------
 Structure from the checkpoint file:  "JID_5949.chk"
 Charge = -1 Multiplicity = 2

                         Standard orientation:
 ---------------------------------------------------------------------
 Center     Atomic      Atomic             Coordinates (Angstroms)
 Number     Number       Type             X           Y           Z
 ---------------------------------------------------------------------
      1          6           0       -4.652319    0.409946   -0.791806
      2          6           0       -3.182660    0.414488   -0.405251
      3          6           0       -2.399217   -0.928817   -0.455479
      4          6           0       -1.720118   -0.546024    0.885568
      5          6           0       -2.811604    0.519431    1.101317
      6          8           0       -0.478930    0.127273    0.702435
      7          6           0        0.616386   -0.600712    0.317848
      8          6           0        0.607938   -1.990459    0.174313
      9          6           0        1.775041   -2.654967   -0.210732
     10          6           0        2.941462   -1.937494   -0.449989
     11          6           0        2.935792   -0.547002   -0.302789
     12          6           0        1.788899    0.148893    0.078328
     13          6           0        1.740848    1.662903    0.210513
     14          6           0        3.113765    2.307277    0.432248
     15          6           0        1.042409    2.284855   -1.014588
     16          1           0       -4.782764    0.194439   -1.859212
     17          1           0       -5.201980   -0.353717   -0.226828
     18          1           0       -5.121312    1.379874   -0.586377
     19          1           0       -2.644313    1.180021   -0.974951
     20          1           0       -3.063467   -1.792778   -0.336598
     21          1           0       -1.732998   -1.105068   -1.303893
     22          1           0       -1.609741   -1.325819    1.648592
     23          1           0       -2.461387    1.482221    1.483194
     24          1           0       -3.614132    0.143904    1.745648
     25          1           0       -0.297689   -2.556996    0.354609
     26          1           0        1.760265   -3.735732   -0.321199
     27          1           0        3.851695   -2.448469   -0.749498
     28          1           0        3.851012    0.005750   -0.488307
     29          1           0        1.119319    1.887147    1.085782
     30          1           0        3.753588    2.215342   -0.453444
     31          1           0        2.995569    3.377129    0.636286
     32          1           0        3.640485    1.854582    1.279394
     33          1           0        0.038132    1.871367   -1.142052
     34          1           0        0.955096    3.372120   -0.900854
     35          1           0        1.616315    2.082584   -1.926778
 ---------------------------------------------------------------------

 SCF Done:  E(UB3LYP) =  -620.950690834     A.U. after   33 cycles
 SCF Done:  E(UB3LYP) =  -620.950690834     a.u. after    1 cycles

 The electronic state is 2-A.
 Alpha  occ. eigenvalues --  -19.05593 -10.13767 -10.13287 -10.08483 -10.08315
 Alpha  occ. eigenvalues --  -10.08027 -10.07988 -10.07849 -10.07725 -10.07448
 Alpha  occ. eigenvalues --  -10.07162 -10.07098 -10.06867 -10.06307 -10.06300
 Alpha  occ. eigenvalues --   -0.97391  -0.77019  -0.74907  -0.70977  -0.65301
 Alpha  occ. eigenvalues --   -0.64344  -0.62307  -0.59282  -0.57307  -0.55051
 Alpha  occ. eigenvalues --   -0.52872  -0.49573  -0.47332  -0.45796  -0.42422
 Alpha  occ. eigenvalues --   -0.39948  -0.39243  -0.38291  -0.36391  -0.35469
 Alpha  occ. eigenvalues --   -0.34587  -0.34396  -0.33027  -0.31861  -0.30814
 Alpha  occ. eigenvalues --   -0.30027  -0.29536  -0.28940  -0.28539  -0.27706
 Alpha  occ. eigenvalues --   -0.26985  -0.25796  -0.24613  -0.24076  -0.23750
 Alpha  occ. eigenvalues --   -0.23351  -0.22064  -0.20792  -0.20159  -0.15711
 Alpha  occ. eigenvalues --   -0.12834   0.04311
 Alpha virt. eigenvalues --    0.05944   0.06308   0.07256   0.07761   0.08108
 Alpha virt. eigenvalues --    0.08393   0.08786   0.09260   0.09365   0.09747
 Alpha virt. eigenvalues --    0.10535   0.10580   0.10947   0.11218   0.11821

  Beta  occ. eigenvalues --  -19.05591 -10.13764 -10.13276 -10.08479 -10.08310
  Beta  occ. eigenvalues --  -10.08011 -10.07981 -10.07841 -10.07718 -10.07440
  Beta  occ. eigenvalues --  -10.07143 -10.07078 -10.06846 -10.06290 -10.06265
  Beta  occ. eigenvalues --   -0.97384  -0.77001  -0.74886  -0.70956  -0.65277
  Beta  occ. eigenvalues --   -0.64319  -0.62268  -0.59246  -0.57260  -0.55015
  Beta  occ. eigenvalues --   -0.52835  -0.49534  -0.47301  -0.45755  -0.42382
  Beta  occ. eigenvalues --   -0.39919  -0.39191  -0.38263  -0.36361  -0.35439
  Beta  occ. eigenvalues --   -0.34565  -0.34377  -0.32999  -0.31832  -0.30787
  Beta  occ. eigenvalues --   -0.29994  -0.29508  -0.28916  -0.28508  -0.27680
  Beta  occ. eigenvalues --   -0.26958  -0.25775  -0.24592  -0.24036  -0.23714
  Beta  occ. eigenvalues --   -0.23329  -0.22041  -0.20765  -0.20128  -0.15688
  Beta  occ. eigenvalues --   -0.12813
  Beta virt. eigenvalues --    0.06164   0.06844   0.06960   0.07758   0.08046
  Beta virt. eigenvalues --    0.08456   0.08798   0.09029   0.09344   0.09650
  Beta virt. eigenvalues --    0.10232   0.10867   0.11015   0.11285   0.11438

 Mulliken charges and spin densities:
               1          2
     1  C    1.889514  -2.615514
     2  C   -2.870475   3.273926
     3  C    2.230726  -2.712461
     4  C   -1.897869   2.264013
     5  C    2.024750  -2.807531
     6  O    0.075113  -0.026503
     7  C   -0.380878   0.202112
     8  C    0.952215  -0.908732
     9  C   -0.194410  -0.204381
    10  C    0.454610  -0.983616
    11  C   -0.357948   0.039193
    12  C   -0.496869   1.138192
    13  C   -0.378590   0.345936
    14  C    0.160275  -0.683059
    15  C   -0.044018  -0.585921
    16  H   -0.163784   0.298748
    17  H   -0.284595   0.422686
    18  H   -0.217989   0.356092
    19  H   -0.199189   0.358862
    20  H   -0.469798   0.633261
    21  H    0.186074  -0.025858
    22  H   -0.274707   0.497760
    23  H    0.050470   0.088903
    24  H   -0.273493   0.444034
    25  H    0.020366   0.169167
    26  H   -0.289625   0.454838
    27  H   -0.289497   0.442449
    28  H    0.107898   0.029195
    29  H    0.129585   0.072791
    30  H   -0.054763   0.185992
    31  H   -0.210580   0.371140
    32  H   -0.011867   0.147282
    33  H    0.180681  -0.049441
    34  H   -0.097794   0.225769
    35  H   -0.003538   0.140675
 Sum of Mulliken charges =  -1.00000   1.00000

 Dipole moment (field-independent basis, Debye):
    X=              3.8488    Y=              1.0977    Z=              0.0499  Tot=              4.0025
 Quadrupole moment (field-independent basis, Debye-Ang):
   XX=           -182.6457   YY=           -148.3928   ZZ=           -125.6983
   XY=             -3.5721   XZ=              0.1557   YZ=              0.1504

 Summary of Natural Population Analysis:

                                       Natural Population
                Natural  -----------------------------------------------
    Atom  No    Charge         Core      Valence    Rydberg      Total
 -----------------------------------------------------------------------
      C    1   -0.28256      0.99965     2.27827    0.00465     3.28256
      C    2   -0.11113      0.99962     2.10092    0.01060     3.11113
      C    3   -0.19979      0.99961     2.19132    0.00887     3.19979
      C    4    0.06382      0.99954     1.92246    0.01418     2.93618
      C    5   -0.18935      0.99961     2.18056    0.00918     3.18935
      O    6   -0.28484      0.99985     3.27369    0.01130     4.28484
      C    7    0.15580      0.99937     1.82953    0.01531     2.84420
      C    8   -0.14238      0.99952     2.13254    0.01032     3.14238
      C    9   -0.09566      0.99957     2.08549    0.01059     3.09566
      C   10   -0.11279      0.99956     2.10482    0.00841     3.11279
      C   11   -0.11268      0.99958     2.09869    0.01442     3.11268
      C   12    0.00837      0.99947     1.98509    0.00707     2.99163
      C   13   -0.13204      0.99961     2.11875    0.01368     3.13204
      C   14   -0.28356      0.99966     2.27859    0.00531     3.28356
      C   15   -0.27817      0.99964     2.27338    0.00515     3.27817
      H   16    0.09925      0.00000     0.39951    0.00124     0.40075
      H   17    0.09776      0.00000     0.40051    0.00173     0.40224
      H   18    0.09918      0.00000     0.39954    0.00128     0.40082
      H   19    0.09718      0.00000     0.40115    0.00167     0.40282
      H   20    0.10253      0.00000     0.39568    0.00179     0.39747
      H   21    0.10445      0.00000     0.39425    0.00130     0.39555
      H   22    0.08556      0.00000     0.41221    0.00223     0.41444
      H   23    0.10399      0.00000     0.39474    0.00127     0.39601
      H   24    0.10111      0.00000     0.39752    0.00138     0.39889
      H   25    0.10727      0.00000     0.39077    0.00196     0.39273
      H   26    0.10077      0.00000     0.39804    0.00120     0.39923
      H   27    0.09938      0.00000     0.39944    0.00118     0.40062
      H   28    0.10130      0.00000     0.39757    0.00114     0.39870
      H   29    0.10518      0.00000     0.39252    0.00230     0.39482
      H   30    0.09498      0.00000     0.40382    0.00120     0.40502
      H   31    0.10056      0.00000     0.39848    0.00096     0.39944
      H   32    0.10058      0.00000     0.39834    0.00108     0.39942
      H   33    0.10474      0.00000     0.39373    0.00152     0.39526
      H   34    0.09653      0.00000     0.40243    0.00104     0.40347
      H   35    0.09475      0.00000     0.40421    0.00104     0.40525
 =======================================================================
   * Total *    0.00008     14.99385    40.82854    0.17753    55.99992

 Normal termination of Gaussian 16 at Thu Dec 10 18:40:49 2020.
