 Gaussian 16, Revision A.03,

 -----------------------------------------------------------
 # opt freq B3LYP/6-31G(d) empiricaldispersion=gd3bj scf=xqc
 -----------------------------------------------------------

 -------------------------------
 CID_130598708_JID_2683_neutraal
 -------------------------------
 Symbolic Z-matrix:
 Charge =  0 Multiplicity = 1

 SCF Done:  E(RB3LYP) =  -602.785168050     A.U. after   16 cycles
 SCF Done:  E(RB3LYP) =  -602.787948391     A.U. after   15 cycles
 SCF Done:  E(RB3LYP) =  -602.781093499     A.U. after   16 cycles
 SCF Done:  E(RB3LYP) =  -602.789185058     A.U. after   13 cycles
 SCF Done:  E(RB3LYP) =  -602.789493158     A.U. after   14 cycles
 SCF Done:  E(RB3LYP) =  -602.789736511     A.U. after   16 cycles
 SCF Done:  E(RB3LYP) =  -602.790803160     A.U. after   14 cycles
 SCF Done:  E(RB3LYP) =  -602.792007940     A.U. after   14 cycles
 SCF Done:  E(RB3LYP) =  -602.793678689     A.U. after   16 cycles
 SCF Done:  E(RB3LYP) =  -602.795021741     A.U. after   16 cycles
 SCF Done:  E(RB3LYP) =  -602.797289313     A.U. after   11 cycles
 SCF Done:  E(RB3LYP) =  -602.797305677     A.U. after   11 cycles
 SCF Done:  E(RB3LYP) =  -602.797306035     A.U. after    9 cycles
 SCF Done:  E(RB3LYP) =  -602.797306184     A.U. after    9 cycles
 SCF Done:  E(RB3LYP) =  -602.797306279     A.U. after    8 cycles
 SCF Done:  E(RB3LYP) =  -602.797306287     A.U. after    7 cycles
 Optimization completed.
    -- Stationary point found.
 Normal termination of Gaussian 16 at Wed Dec  9 18:19:15 2020.

 --------------------------------------------------------------------
 #N Geom=AllCheck Guess=TCheck SCRF=Check GenChk RB3LYP/6-31G(d) Freq
 --------------------------------------------------------------------

 Structure from the checkpoint file:  "JID_2683.chk"
 -------------------------------
 CID_130598708_JID_2683_neutraal
 -------------------------------
 Charge =  0 Multiplicity = 1

 SCF Done:  E(RB3LYP) =  -602.797306287     A.U. after    1 cycles

  Exact polarizability: 172.800  -1.043  95.567   0.000   0.000  46.974
 Approx polarizability: 277.849  13.359 166.127  -0.000   0.000  70.959

                      1                      2                      3
                      A                      A                      A
 Frequencies --     42.6618                50.3985                63.0733
 Red. masses --      7.1268                 1.4278                 2.4059
 Frc consts  --      0.0076                 0.0021                 0.0056
 IR Inten    --      1.6339                 3.4620                12.5693

                      4                      5                      6
                      A                      A                      A
 Frequencies --    116.8835               149.3212               201.3420
 Red. masses --      4.1959                 5.1390                 1.3665
 Frc consts  --      0.0338                 0.0675                 0.0326
 IR Inten    --      0.4946                 7.3246                 0.1082

                      7                      8                      9
                      A                      A                      A
 Frequencies --    223.8219               225.1542               334.2642
 Red. masses --      1.9009                 7.3856                 3.1802
 Frc consts  --      0.0561                 0.2206                 0.2094
 IR Inten    --      1.3162                 0.3542                 1.0493

                     10                     11                     12
                      A                      A                      A
 Frequencies --    347.7976               361.7104               417.0570
 Red. masses --      4.5909                 6.0357                 4.3268
 Frc consts  --      0.3272                 0.4653                 0.4434
 IR Inten    --      0.0604                 0.7677                 8.3011

                     13                     14                     15
                      A                      A                      A
 Frequencies --    448.9652               556.2534               651.4443
 Red. masses --      3.7943                 6.2357                 3.8817
 Frc consts  --      0.4506                 1.1368                 0.9706
 IR Inten    --      0.4041                 7.4549                 1.2595

                     16                     17                     18
                      A                      A                      A
 Frequencies --    654.0055               690.4094               716.4930
 Red. masses --      5.4102                 4.8910                 7.2159
 Frc consts  --      1.3634                 1.3736                 2.1825
 IR Inten    --      2.2060                 9.8207                 0.0866

                     19                     20                     21
                      A                      A                      A
 Frequencies --    764.0220               811.5979               831.9466
 Red. masses --      6.8571                 4.6353                 1.4882
 Frc consts  --      2.3583                 1.7989                 0.6069
 IR Inten    --     13.4875                23.5600                11.9284

                     22                     23                     24
                      A                      A                      A
 Frequencies --    903.0191               957.2561              1002.2131
 Red. masses --      7.3353                 1.3827                 3.3872
 Frc consts  --      3.5242                 0.7465                 2.0045
 IR Inten    --     11.8977                 8.9416                19.8789

                     25                     26                     27
                      A                      A                      A
 Frequencies --   1039.5798              1069.5743              1085.2517
 Red. masses --      2.4148                 2.2801                 1.4295
 Frc consts  --      1.5376                 1.5368                 0.9919
 IR Inten    --     58.2457                 3.3657                 2.5298

                     28                     29                     30
                      A                      A                      A
 Frequencies --   1091.5796              1159.7742              1161.0330
 Red. masses --      2.7097                 1.3097                 2.1886
 Frc consts  --      1.9023                 1.0379                 1.7382
 IR Inten    --     12.4399                 0.0108                 4.6006

                     31                     32                     33
                      A                      A                      A
 Frequencies --   1176.1431              1263.7880              1296.1413
 Red. masses --      2.8383                 4.8179                 2.7342
 Frc consts  --      2.3133                 4.5338                 2.7064
 IR Inten    --     47.2262                16.5602               128.5412

                     34                     35                     36
                      A                      A                      A
 Frequencies --   1373.2458              1386.0834              1404.0763
 Red. masses --      5.5309                 2.4141                 3.5330
 Frc consts  --      6.1453                 2.7326                 4.1037
 IR Inten    --    246.8465                66.4003                 9.4230

                     37                     38                     39
                      A                      A                      A
 Frequencies --   1452.0235              1461.7632              1499.4939
 Red. masses --      1.3223                 1.4175                 1.0437
 Frc consts  --      1.6425                 1.7845                 1.3826
 IR Inten    --      5.6187                16.5839                 7.4342

                     40                     41                     42
                      A                      A                      A
 Frequencies --   1509.7595              1513.2846              1517.4639
 Red. masses --      1.9818                 1.0415                 1.0771
 Frc consts  --      2.6615                 1.4053                 1.4614
 IR Inten    --      7.6871                10.2099                17.1528

                     43                     44                     45
                      A                      A                      A
 Frequencies --   1535.5303              1575.4384              1607.7455
 Red. masses --      1.4320                 4.7795                12.8433
 Frc consts  --      1.9894                 6.9893                19.5597
 IR Inten    --     46.5657                14.6138               176.6949

                     46                     47                     48
                      A                      A                      A
 Frequencies --   1726.9472              3066.4806              3078.7760
 Red. masses --      7.2992                 1.0358                 1.0333
 Frc consts  --     12.8257                 5.7387                 5.7706
 IR Inten    --    129.8417                14.7553                34.1738

                     49                     50                     51
                      A                      A                      A
 Frequencies --   3124.3595              3148.0769              3152.5518
 Red. masses --      1.1012                 1.1069                 1.1032
 Frc consts  --      6.3333                 6.4631                 6.4600
 IR Inten    --      8.2222                10.5991                 9.0605

                     52                     53                     54
                      A                      A                      A
 Frequencies --   3186.1933              3189.1774              3365.8583
 Red. masses --      1.0867                 1.1034                 1.0992
 Frc consts  --      6.4998                 6.6119                 7.3367
 IR Inten    --      4.5464                 0.6948                10.1429

 - Thermochemistry -
 -------------------
 Temperature   298.150 Kelvin.  Pressure   1.00000 Atm.
 Atom     1 has atomic number  6 and mass  12.00000

 Molecular mass:   168.06473 amu.
 Principal axes and moments of inertia in atomic units:
                           1         2         3
     Eigenvalues --   802.293573482.812154262.49932
           X            0.99897  -0.04547   0.00000
           Y            0.04547   0.99897  -0.00000
           Z           -0.00000   0.00000   1.00000
 This molecule is an asymmetric top.
 Rotational symmetry number  1.
 Warning -- assumption of classical behavior for rotation
           may cause significant error
 Rotational temperatures (Kelvin)      0.10796     0.02487     0.02032
 Rotational constants (GHZ):           2.24948     0.51819     0.42340
 Zero-point vibrational energy     399183.7 (Joules/Mol)
                                   95.40720 (Kcal/Mol)
 Warning -- explicit consideration of  14 degrees of freedom as
           vibrations may cause significant error
 Vibrational temperatures:     61.38    72.51    90.75   168.17   214.84
          (Kelvin)            289.69   322.03   323.95   480.93   500.40
                              520.42   600.05   645.96   800.32   937.28
                              940.97   993.35  1030.87  1099.26  1167.71
                             1196.99  1299.24  1377.28  1441.96  1495.72
                             1538.88  1561.44  1570.54  1668.66  1670.47
                             1692.21  1818.31  1864.86  1975.79  1994.26
                             2020.15  2089.14  2103.15  2157.44  2172.21
                             2177.28  2183.29  2209.29  2266.70  2313.19
                             2484.69  4411.98  4429.67  4495.26  4529.38
                             4535.82  4584.22  4588.51  4842.72

 Zero-point correction=                           0.152041 (Hartree/Particle)
 Thermal correction to Energy=                    0.163271
 Thermal correction to Enthalpy=                  0.164215
 Thermal correction to Gibbs Free Energy=         0.113415
 Sum of electronic and zero-point Energies=           -602.645265
 Sum of electronic and thermal Energies=              -602.634036
 Sum of electronic and thermal Enthalpies=            -602.633091
 Sum of electronic and thermal Free Energies=         -602.683892

                     E (Thermal)             CV                S
                      KCal/Mol        Cal/Mol-Kelvin    Cal/Mol-Kelvin
 Total                  102.454             39.795            106.918
 Electronic               0.000              0.000              0.000
 Translational            0.889              2.981             41.266
 Rotational               0.889              2.981             30.855
 Vibrational            100.676             33.833             34.798
 Vibration     1          0.595              1.980              5.131
 Vibration     2          0.595              1.977              4.802
 Vibration     3          0.597              1.972              4.359
 Vibration     4          0.608              1.935              3.151
 Vibration     5          0.618              1.903              2.681
 Vibration     6          0.638              1.838              2.121
 Vibration     7          0.649              1.805              1.928
 Vibration     8          0.650              1.803              1.917
 Vibration     9          0.716              1.607              1.239
 Vibration    10          0.725              1.580              1.176
 Vibration    11          0.736              1.551              1.115
 Vibration    12          0.780              1.433              0.902
 Vibration    13          0.808              1.363              0.799
 Vibration    14          0.912              1.126              0.531

 Optimization completed.
    -- Stationary point found.
 Normal termination of Gaussian 16 at Wed Dec  9 18:23:22 2020.

 ----------------------------------------------------------------------
 # B3LYP/6-311++G(d,p) empiricaldispersion=gd3bj scf=xqc pop=npa geom=c
 heck
 ----------------------------------------------------------------------

 ---------------------------------------
 CID_130598708_JID_2683_Energie_neutraal
 ---------------------------------------
 Structure from the checkpoint file:  "JID_2683.chk"
 Charge =  0 Multiplicity = 1

 SCF Done:  E(RB3LYP) =  -602.966784803     A.U. after   15 cycles
 Normal termination of Gaussian 16 at Wed Dec  9 18:24:46 2020.

 ----------------------------------------------------------------------
 # B3LYP/6-311++G(d,p) empiricaldispersion=gd3bj scf=xqc pop=npa geom=c
 heck
 ----------------------------------------------------------------------

 -------------------------------------
 CID_130598708_JID_2683_Energie_kation
 -------------------------------------
 Structure from the checkpoint file:  "JID_2683.chk"
 Charge =  1 Multiplicity = 2

 SCF Done:  E(UB3LYP) =  -602.637062858     A.U. after   26 cycles
 Normal termination of Gaussian 16 at Wed Dec  9 18:28:27 2020.
 Gaussian 16:  ES64L-G16RevA.03 25-Dec-2016

 ----------------------------------------------------------------------
 # B3LYP/6-311++G(d,p) empiricaldispersion=gd3bj scf=xqc pop=npa geom=c
 heck
 ----------------------------------------------------------------------

 ------------------------------------
 CID_130598708_JID_2683_Energie_anion
 ------------------------------------
 Structure from the checkpoint file:  "JID_2683.chk"
 Charge = -1 Multiplicity = 2

                         Standard orientation:
 ---------------------------------------------------------------------
 Center     Atomic      Atomic             Coordinates (Angstroms)
 Number     Number       Type             X           Y           Z
 ---------------------------------------------------------------------
      1          6           0       -3.206256    1.336265   -0.000017
      2          6           0       -1.937398    0.536184   -0.000005
      3          6           0       -0.707097    1.098758    0.000001
      4          6           0        0.659962    0.640419    0.000009
      5          6           0        1.326393   -0.581085   -0.000008
      6          7           0        2.632916   -0.256157   -0.000005
      7          7           0        2.802363    1.098459    0.000007
      8          7           0        1.626281    1.632029    0.000016
      9          6           0        3.793234   -1.129957   -0.000007
     10          7           0       -2.147153   -0.900060    0.000004
     11          8           0       -3.316145   -1.295431    0.000020
     12          8           0       -1.168477   -1.657474   -0.000006
     13          1           0       -2.971242    2.403139   -0.000022
     14          1           0       -3.817941    1.107664    0.878640
     15          1           0       -3.817930    1.107655   -0.878681
     16          1           0       -0.728081    2.186102   -0.000002
     17          1           0        0.974300   -1.595597   -0.000006
     18          1           0        4.675036   -0.489086   -0.000086
     19          1           0        3.794521   -1.759968    0.893494
     20          1           0        3.794434   -1.760076   -0.893432
 ---------------------------------------------------------------------

 SCF Done:  E(UB3LYP) =  -603.007272269     A.U. after   22 cycles

 The electronic state is 2-A.
 Alpha  occ. eigenvalues --  -18.93477 -18.93312 -14.31332 -14.27452 -14.23825
 Alpha  occ. eigenvalues --  -14.19675 -10.12179 -10.06939 -10.06507 -10.05220
 Alpha  occ. eigenvalues --  -10.03341 -10.01674  -1.01426  -0.96717  -0.84202
 Alpha  occ. eigenvalues --   -0.79577  -0.68928  -0.66169  -0.62882  -0.56010
 Alpha  occ. eigenvalues --   -0.53825  -0.48222  -0.46770  -0.40905  -0.38023
 Alpha  occ. eigenvalues --   -0.37780  -0.34818  -0.34185  -0.33684  -0.32070
 Alpha  occ. eigenvalues --   -0.30666  -0.30312  -0.27234  -0.26868  -0.25868
 Alpha  occ. eigenvalues --   -0.24242  -0.20796  -0.18120  -0.16304  -0.14560
 Alpha  occ. eigenvalues --   -0.12667  -0.11401  -0.09357  -0.09163   0.02825
 Alpha virt. eigenvalues --    0.07153   0.09859   0.09952   0.10983   0.12347
 Alpha virt. eigenvalues --    0.12637   0.12932   0.13837   0.14676   0.14705
 Alpha virt. eigenvalues --    0.15145   0.17245   0.17683   0.18495   0.18992

  Beta  occ. eigenvalues --  -18.92975 -18.92856 -14.30766 -14.27444 -14.23860
  Beta  occ. eigenvalues --  -14.19525 -10.12180 -10.06739 -10.06585 -10.05181
  Beta  occ. eigenvalues --  -10.03349 -10.01249  -1.00430  -0.96637  -0.83297
  Beta  occ. eigenvalues --   -0.79447  -0.68558  -0.65828  -0.62769  -0.55632
  Beta  occ. eigenvalues --   -0.52919  -0.47924  -0.46648  -0.40796  -0.37903
  Beta  occ. eigenvalues --   -0.37106  -0.34531  -0.33430  -0.31869  -0.31713
  Beta  occ. eigenvalues --   -0.30393  -0.29899  -0.26739  -0.26676  -0.25699
  Beta  occ. eigenvalues --   -0.24023  -0.20714  -0.17269  -0.15325  -0.14439
  Beta  occ. eigenvalues --   -0.10937  -0.09425  -0.08690  -0.08058
  Beta virt. eigenvalues --    0.07136   0.09692   0.09900   0.10395   0.10975
  Beta virt. eigenvalues --    0.12322   0.12895   0.12984   0.13971   0.14631
  Beta virt. eigenvalues --    0.15125   0.16371   0.17216   0.17928   0.18470

 Mulliken charges and spin densities:
               1          2
     1  C   -0.674740  -0.015760
     2  C   -0.746125  -0.064291
     3  C    0.302376   0.433021
     4  C   -0.343139  -0.081436
     5  C    0.222330   0.136953
     6  N    0.134400  -0.000875
     7  N    0.065453  -0.020434
     8  N   -0.264292   0.065557
     9  C   -0.295053  -0.005510
    10  N   -0.278351   0.194350
    11  O   -0.210384   0.189951
    12  O   -0.176316   0.169142
    13  H    0.087882  -0.001134
    14  H    0.144760   0.009683
    15  H    0.144759   0.009682
    16  H    0.196071  -0.021663
    17  H    0.237704  -0.010386
    18  H    0.161156  -0.000247
    19  H    0.145755   0.006699
    20  H    0.145752   0.006699
 Sum of Mulliken charges =  -1.00000   1.00000

 Dipole moment (field-independent basis, Debye):
    X=              6.0082    Y=              0.2112    Z=             -0.0001  Tot=              6.0120
 Quadrupole moment (field-independent basis, Debye-Ang):
   XX=           -102.7761   YY=            -90.8943   ZZ=            -74.8563
   XY=            -24.7902   XZ=              0.0000   YZ=              0.0000

 Summary of Natural Population Analysis:

                                       Natural Population
                Natural  -----------------------------------------------
    Atom  No    Charge         Core      Valence    Rydberg      Total
 -----------------------------------------------------------------------
      C    1   -0.29651      0.99964     2.29156    0.00531     3.29651
      C    2    0.05576      0.99944     1.93343    0.01137     2.94424
      C    3   -0.02144      0.99948     2.01176    0.01019     3.02144
      C    4    0.01519      0.99957     1.97133    0.01391     2.98481
      C    5    0.03488      0.99951     1.95468    0.01092     2.96512
      N    6   -0.11386      0.99965     2.60352    0.01070     3.61386
      N    7   -0.07189      0.99978     2.55373    0.01838     3.57189
      N    8   -0.11540      0.99974     2.59828    0.01739     3.61540
      C    9   -0.17457      0.99965     2.16864    0.00629     3.17457
      N   10    0.29014      0.99970     2.18156    0.02859     3.20986
      O   11   -0.19492      0.99990     3.18725    0.00777     4.19492
      O   12   -0.21537      0.99989     3.20610    0.00937     4.21537
      H   13    0.09131      0.00000     0.40766    0.00102     0.40869
      H   14    0.10277      0.00000     0.39570    0.00153     0.39723
      H   15    0.10277      0.00000     0.39570    0.00153     0.39723
      H   16    0.09281      0.00000     0.40514    0.00205     0.40719
      H   17    0.12249      0.00000     0.37630    0.00121     0.37751
      H   18    0.10556      0.00000     0.39308    0.00136     0.39444
      H   19    0.09513      0.00000     0.40384    0.00103     0.40487
      H   20    0.09513      0.00000     0.40384    0.00103     0.40487
 =======================================================================
   * Total *    0.00000     11.99595    31.84309    0.16095    44.00000

 Normal termination of Gaussian 16 at Wed Dec  9 18:30:55 2020.
