 Gaussian 16, Revision A.03,

 -----------------------------------------------------------
 # opt freq B3LYP/6-31G(d) empiricaldispersion=gd3bj scf=xqc
 -----------------------------------------------------------

 -----------------------------
 CID_91246194_JID_921_neutraal
 -----------------------------
 Symbolic Z-matrix:
 Charge =  0 Multiplicity = 1

 SCF Done:  E(RB3LYP) =  -550.385843747     A.U. after   14 cycles
 SCF Done:  E(RB3LYP) =  -550.392720855     A.U. after   13 cycles
 SCF Done:  E(RB3LYP) =  -550.395722611     A.U. after   13 cycles
 SCF Done:  E(RB3LYP) =  -550.397376541     A.U. after   13 cycles
 SCF Done:  E(RB3LYP) =  -550.399368023     A.U. after   12 cycles
 SCF Done:  E(RB3LYP) =  -550.402000419     A.U. after   13 cycles
 SCF Done:  E(RB3LYP) =  -550.405033353     A.U. after   15 cycles
 SCF Done:  E(RB3LYP) =  -550.406211088     A.U. after   12 cycles
 SCF Done:  E(RB3LYP) =  -550.407047973     A.U. after   12 cycles
 SCF Done:  E(RB3LYP) =  -550.407062195     A.U. after   12 cycles
 SCF Done:  E(RB3LYP) =  -550.407469103     A.U. after   11 cycles
 SCF Done:  E(RB3LYP) =  -550.407476395     A.U. after   10 cycles
 SCF Done:  E(RB3LYP) =  -550.407479441     A.U. after   10 cycles
 SCF Done:  E(RB3LYP) =  -550.407479832     A.U. after    8 cycles
 SCF Done:  E(RB3LYP) =  -550.407479918     A.U. after    7 cycles
 Optimization completed.
    -- Stationary point found.
 Normal termination of Gaussian 16 at Tue Dec  8 13:31:40 2020.

 --------------------------------------------------------------------
 #N Geom=AllCheck Guess=TCheck SCRF=Check GenChk RB3LYP/6-31G(d) Freq
 --------------------------------------------------------------------

 Structure from the checkpoint file:  "JID_921.chk"
 -----------------------------
 CID_91246194_JID_921_neutraal
 -----------------------------
 Charge =  0 Multiplicity = 1

 SCF Done:  E(RB3LYP) =  -550.407479918     A.U. after    1 cycles

  Exact polarizability:  81.792  -2.122  64.355   2.741  -4.246  54.118
 Approx polarizability: 114.704 -12.319 100.028   7.955  -8.698  80.803

                      1                      2                      3
                      A                      A                      A
 Frequencies --     48.1079                73.2861               111.3526
 Red. masses --     10.4213                 9.8159                 6.3679
 Frc consts  --      0.0142                 0.0311                 0.0465
 IR Inten    --      1.8825                 1.2826                 0.5422

                      4                      5                      6
                      A                      A                      A
 Frequencies --    158.7829               218.2371               234.2490
 Red. masses --      4.3844                 1.1486                 3.8527
 Frc consts  --      0.0651                 0.0322                 0.1246
 IR Inten    --      0.2392                 0.3509                 4.5737

                      7                      8                      9
                      A                      A                      A
 Frequencies --    304.9037               354.8626               390.0946
 Red. masses --      3.5527                 3.2860                 2.5471
 Frc consts  --      0.1946                 0.2438                 0.2284
 IR Inten    --      2.4686                 2.9819                 4.9181

                     10                     11                     12
                      A                      A                      A
 Frequencies --    457.9572               506.6206               544.6232
 Red. masses --      6.4774                 4.7273                 3.0924
 Frc consts  --      0.8004                 0.7149                 0.5404
 IR Inten    --      3.2327                27.2263                50.1150

                     13                     14                     15
                      A                      A                      A
 Frequencies --    586.3952               600.0963               643.2908
 Red. masses --      1.2708                 1.6151                 2.5621
 Frc consts  --      0.2575                 0.3427                 0.6247
 IR Inten    --     81.6592                62.8348                61.5923

                     16                     17                     18
                      A                      A                      A
 Frequencies --    720.7303               744.8619               799.0469
 Red. masses --      3.7552                 4.6353                 6.9452
 Frc consts  --      1.1493                 1.5152                 2.6126
 IR Inten    --     36.4299                 7.7349                29.7576

                     19                     20                     21
                      A                      A                      A
 Frequencies --    821.2515               902.1733               963.5658
 Red. masses --      4.9737                 2.1108                 3.0639
 Frc consts  --      1.9764                 1.0122                 1.6761
 IR Inten    --     23.6850                 5.2661                18.5339

                     22                     23                     24
                      A                      A                      A
 Frequencies --    970.9504              1108.3534              1113.1108
 Red. masses --      1.4818                 2.4156                 1.5703
 Frc consts  --      0.8231                 1.7484                 1.1463
 IR Inten    --      8.8766                24.2569                 6.8218

                     25                     26                     27
                      A                      A                      A
 Frequencies --   1136.2772              1169.9835              1178.7611
 Red. masses --      1.5236                 2.2408                 2.1499
 Frc consts  --      1.1590                 1.8072                 1.7601
 IR Inten    --     95.1165               193.4329                62.2174

                     28                     29                     30
                      A                      A                      A
 Frequencies --   1212.7884              1282.9786              1363.4273
 Red. masses --      2.0392                 1.8702                 2.8029
 Frc consts  --      1.7671                 1.8138                 3.0699
 IR Inten    --    260.9438                26.6704                 0.1010

                     31                     32                     33
                      A                      A                      A
 Frequencies --   1407.0546              1449.9274              1461.3023
 Red. masses --      2.7655                 1.5122                 3.0501
 Frc consts  --      3.2258                 1.8731                 3.8374
 IR Inten    --    132.6540                17.2115               166.7074

                     34                     35                     36
                      A                      A                      A
 Frequencies --   1512.3769              1524.9099              1530.8427
 Red. masses --      1.0463                 1.0731                 1.2323
 Frc consts  --      1.4100                 1.4702                 1.7015
 IR Inten    --      6.9560                10.4483                16.5189

                     37                     38                     39
                      A                      A                      A
 Frequencies --   1836.8373              1840.5673              3074.9234
 Red. masses --      9.8859                10.1507                 1.0355
 Frc consts  --     19.6520                20.2605                 5.7686
 IR Inten    --    617.2530                95.4822                 8.3923

                     40                     41                     42
                      A                      A                      A
 Frequencies --   3142.3521              3149.3466              3155.4993
 Red. masses --      1.0538                 1.1012                 1.1031
 Frc consts  --      6.1309                 6.4354                 6.4713
 IR Inten    --     10.0007                12.8691                 7.9301

                     43                     44                     45
                      A                      A                      A
 Frequencies --   3236.7969              3696.5329              3724.7878
 Red. masses --      1.1202                 1.0642                 1.0645
 Frc consts  --      6.9150                 8.5679                 8.7015
 IR Inten    --      4.9242                67.2061                79.1149

 - Thermochemistry -
 -------------------
 Temperature   298.150 Kelvin.  Pressure   1.00000 Atm.
 Atom     1 has atomic number  6 and mass  12.00000

 Molecular mass:   145.03751 amu.
 Principal axes and moments of inertia in atomic units:
                           1         2         3
     Eigenvalues --   713.596871993.078162131.70287
           X            0.99987   0.01601  -0.00015
           Y           -0.01600   0.99914   0.03814
           Z            0.00076  -0.03813   0.99927
 This molecule is an asymmetric top.
 Rotational symmetry number  1.
 Warning -- assumption of classical behavior for rotation
           may cause significant error
 Rotational temperatures (Kelvin)      0.12138     0.04346     0.04063
 Rotational constants (GHZ):           2.52908     0.90550     0.84662
 Zero-point vibrational energy     337736.8 (Joules/Mol)
                                   80.72102 (Kcal/Mol)
 Warning -- explicit consideration of  14 degrees of freedom as
           vibrations may cause significant error
 Vibrational temperatures:     69.22   105.44   160.21   228.45   313.99
          (Kelvin)            337.03   438.69   510.57   561.26   658.90
                              728.91   783.59   843.69   863.40   925.55
                             1036.97  1071.69  1149.65  1181.60  1298.03
                             1386.36  1396.98  1594.67  1601.52  1634.85
                             1683.35  1695.97  1744.93  1845.92  1961.67
                             2024.44  2086.12  2102.49  2175.97  2194.01
                             2202.54  2642.80  2648.17  4424.13  4521.14
                             4531.21  4540.06  4657.03  5318.49  5359.14

 Zero-point correction=                           0.128637 (Hartree/Particle)
 Thermal correction to Energy=                    0.138369
 Thermal correction to Enthalpy=                  0.139313
 Thermal correction to Gibbs Free Energy=         0.093015
 Sum of electronic and zero-point Energies=           -550.278843
 Sum of electronic and thermal Energies=              -550.269111
 Sum of electronic and thermal Enthalpies=            -550.268167
 Sum of electronic and thermal Free Energies=         -550.314465

                     E (Thermal)             CV                S
                      KCal/Mol        Cal/Mol-Kelvin    Cal/Mol-Kelvin
 Total                   86.828             35.197             97.444
 Electronic               0.000              0.000              0.000
 Translational            0.889              2.981             40.826
 Rotational               0.889              2.981             29.496
 Vibrational             85.050             29.235             27.122
 Vibration     1          0.595              1.978              4.894
 Vibration     2          0.599              1.967              4.063
 Vibration     3          0.607              1.940              3.245
 Vibration     4          0.621              1.893              2.564
 Vibration     5          0.646              1.813              1.974
 Vibration     6          0.654              1.788              1.846
 Vibration     7          0.696              1.664              1.390
 Vibration     8          0.731              1.565              1.145
 Vibration     9          0.758              1.491              1.000
 Vibration    10          0.816              1.343              0.772
 Vibration    11          0.862              1.235              0.642
 Vibration    12          0.900              1.151              0.555
 Vibration    13          0.943              1.061              0.474
 Vibration    14          0.958              1.032              0.449

 Optimization completed.
    -- Stationary point found.
 Normal termination of Gaussian 16 at Tue Dec  8 13:35:50 2020.

 ----------------------------------------------------------------------
 # B3LYP/6-311++G(d,p) empiricaldispersion=gd3bj scf=xqc pop=npa geom=c
 heck
 ----------------------------------------------------------------------

 -------------------------------------
 CID_91246194_JID_921_Energie_neutraal
 -------------------------------------
 Structure from the checkpoint file:  "JID_921.chk"
 Charge =  0 Multiplicity = 1

 SCF Done:  E(RB3LYP) =  -550.587884091     A.U. after   14 cycles
 Normal termination of Gaussian 16 at Tue Dec  8 13:37:09 2020.

 ----------------------------------------------------------------------
 # B3LYP/6-311++G(d,p) empiricaldispersion=gd3bj scf=xqc pop=npa geom=c
 heck
 ----------------------------------------------------------------------

 -----------------------------------
 CID_91246194_JID_921_Energie_kation
 -----------------------------------
 Structure from the checkpoint file:  "JID_921.chk"
 Charge =  1 Multiplicity = 2

 SCF Done:  E(UB3LYP) =  -550.233301452     A.U. after   23 cycles
 Normal termination of Gaussian 16 at Tue Dec  8 13:41:53 2020.
 Gaussian 16:  ES64L-G16RevA.03 25-Dec-2016

 ----------------------------------------------------------------------
 # B3LYP/6-311++G(d,p) empiricaldispersion=gd3bj scf=xqc pop=npa geom=c
 heck
 ----------------------------------------------------------------------

 ----------------------------------
 CID_91246194_JID_921_Energie_anion
 ----------------------------------
 Structure from the checkpoint file:  "JID_921.chk"
 Charge = -1 Multiplicity = 2

                         Standard orientation:
 ---------------------------------------------------------------------
 Center     Atomic      Atomic             Coordinates (Angstroms)
 Number     Number       Type             X           Y           Z
 ---------------------------------------------------------------------
      1          6           0        0.222821   -1.555770   -0.939680
      2          6           0        0.502582   -0.150317   -0.458288
      3          6           0       -0.104897    1.025620   -1.190962
      4          7           0       -0.579430    0.658834    0.117468
      5          6           0       -1.860409    0.155735    0.306468
      6          8           0       -2.862889    0.550965   -0.249035
      7          8           0       -1.851493   -0.805104    1.263029
      8          6           0        1.847035    0.019956    0.199183
      9          8           0        2.677752   -0.859688    0.263653
     10          8           0        2.047882    1.263408    0.684227
     11          1           0        1.016489   -1.881011   -1.616832
     12          1           0       -0.733634   -1.595847   -1.468921
     13          1           0        0.188120   -2.251587   -0.097549
     14          1           0        0.436057    1.965660   -1.240985
     15          1           0       -0.744978    0.794714   -2.040140
     16          1           0       -2.781502   -1.070100    1.374787
     17          1           0        2.942654    1.258345    1.072043
 ---------------------------------------------------------------------

 SCF Done:  E(UB3LYP) =  -550.573914336     A.U. after   33 cycles
 SCF Done:  E(UB3LYP) =  -550.573914336     a.u. after    1 cycles

 The electronic state is 2-A.
 Alpha  occ. eigenvalues --  -19.06774 -19.06627 -19.01880 -19.01088 -14.25018
 Alpha  occ. eigenvalues --  -10.22850 -10.21096 -10.14707 -10.12317 -10.07417
 Alpha  occ. eigenvalues --   -1.01709  -1.01188  -0.92461  -0.92362  -0.89938
 Alpha  occ. eigenvalues --   -0.67860  -0.62932  -0.57786  -0.50525  -0.48166
 Alpha  occ. eigenvalues --   -0.44555  -0.41783  -0.38999  -0.38476  -0.36617
 Alpha  occ. eigenvalues --   -0.35092  -0.32882  -0.32288  -0.31521  -0.31026
 Alpha  occ. eigenvalues --   -0.29168  -0.27233  -0.25047  -0.22932  -0.22577
 Alpha  occ. eigenvalues --   -0.19815  -0.19526  -0.16526   0.04766
 Alpha virt. eigenvalues --    0.06487   0.07656   0.07743   0.09171   0.10607
 Alpha virt. eigenvalues --    0.11058   0.12188   0.12556   0.13372   0.15032
 Alpha virt. eigenvalues --    0.15178   0.16752   0.17325   0.17796   0.18147

  Beta  occ. eigenvalues --  -19.06708 -19.06567 -19.01862 -19.01066 -14.25011
  Beta  occ. eigenvalues --  -10.22847 -10.21094 -10.14697 -10.12290 -10.07384
  Beta  occ. eigenvalues --   -1.01639  -1.01109  -0.92394  -0.92289  -0.89918
  Beta  occ. eigenvalues --   -0.67813  -0.62871  -0.57691  -0.50428  -0.48045
  Beta  occ. eigenvalues --   -0.44468  -0.41742  -0.38959  -0.38434  -0.36575
  Beta  occ. eigenvalues --   -0.35044  -0.32835  -0.32227  -0.31475  -0.30985
  Beta  occ. eigenvalues --   -0.29105  -0.27201  -0.25017  -0.22875  -0.22519
  Beta  occ. eigenvalues --   -0.19775  -0.19466  -0.16495
  Beta virt. eigenvalues --    0.07441   0.07718   0.08399   0.08918   0.09792
  Beta virt. eigenvalues --    0.11260   0.11311   0.12530   0.12894   0.13511
  Beta virt. eigenvalues --    0.15120   0.15484   0.16952   0.17499   0.17970

 Mulliken charges and spin densities:
               1          2
     1  C    0.987303  -1.424617
     2  C   -2.145905   2.126911
     3  C    1.976478  -2.327207
     4  N    0.309690  -0.162370
     5  C    0.758934  -0.616457
     6  O   -0.315242   0.025672
     7  O   -0.252512   0.067689
     8  C    0.008137  -0.110964
     9  O   -0.299737   0.009985
    10  O   -0.183895   0.022215
    11  H   -0.189746   0.362055
    12  H   -0.224720   0.387771
    13  H   -0.075927   0.281151
    14  H   -0.267777   0.485746
    15  H    0.020919   0.145167
    16  H   -0.500433   0.809300
    17  H   -0.605566   0.917953
 Sum of Mulliken charges =  -1.00000   1.00000

 Dipole moment (field-independent basis, Debye):
    X=             -0.3994    Y=              0.0407    Z=             -2.7920  Tot=              2.8207
 Quadrupole moment (field-independent basis, Debye-Ang):
   XX=           -118.7276   YY=            -92.7049   ZZ=            -84.5900
   XY=             -8.7881   XZ=             -1.4103   YZ=             -0.0639

 Summary of Natural Population Analysis:

                                       Natural Population
                Natural  -----------------------------------------------
    Atom  No    Charge         Core      Valence    Rydberg      Total
 -----------------------------------------------------------------------
      C    1   -0.29073      0.99963     2.28566    0.00544     3.29073
      C    2    0.01341      0.99954     1.97268    0.01437     2.98659
      C    3   -0.07582      0.99958     2.06564    0.01061     3.07582
      N    4   -0.25132      0.99962     2.73853    0.01317     3.75132
      C    5    0.46057      0.99970     1.51268    0.02705     2.53943
      O    6   -0.31564      0.99987     3.30950    0.00628     4.31564
      O    7   -0.34063      0.99988     3.33387    0.00689     4.34063
      C    8    0.40404      0.99964     1.57078    0.02555     2.59596
      O    9   -0.30122      0.99987     3.29507    0.00628     4.30122
      O   10   -0.33596      0.99988     3.32922    0.00686     4.33596
      H   11    0.11143      0.00000     0.38730    0.00127     0.38857
      H   12    0.10368      0.00000     0.39492    0.00141     0.39632
      H   13    0.11392      0.00000     0.38464    0.00144     0.38608
      H   14    0.10732      0.00000     0.39091    0.00177     0.39268
      H   15    0.10254      0.00000     0.39617    0.00130     0.39746
      H   16    0.24706      0.00000     0.23245    0.02049     0.25294
      H   17    0.24737      0.00000     0.22316    0.02947     0.25263
 =======================================================================
   * Total *    0.00000      9.99719    27.82317    0.17963    38.00000

 Normal termination of Gaussian 16 at Tue Dec  8 13:47:11 2020.
