 Gaussian 16, Revision A.03,

 -----------------------------------------------------------
 # opt freq B3LYP/6-31G(d) empiricaldispersion=gd3bj scf=xqc
 -----------------------------------------------------------

 ------------------------------
 CID_80643431_JID_9211_neutraal
 ------------------------------
 Symbolic Z-matrix:
 Charge =  0 Multiplicity = 1

 SCF Done:  E(RB3LYP) =  -1253.32007570     A.U. after   15 cycles
 SCF Done:  E(RB3LYP) =  -1253.32726479     A.U. after   14 cycles
 SCF Done:  E(RB3LYP) =  -1253.32885658     A.U. after   14 cycles
 SCF Done:  E(RB3LYP) =  -1253.32983239     A.U. after   13 cycles
 SCF Done:  E(RB3LYP) =  -1253.33095363     A.U. after   13 cycles
 SCF Done:  E(RB3LYP) =  -1253.33193249     A.U. after   13 cycles
 SCF Done:  E(RB3LYP) =  -1253.33271430     A.U. after   13 cycles
 SCF Done:  E(RB3LYP) =  -1253.33328796     A.U. after   13 cycles
 SCF Done:  E(RB3LYP) =  -1253.33350240     A.U. after   13 cycles
 SCF Done:  E(RB3LYP) =  -1253.33354471     A.U. after   12 cycles
 SCF Done:  E(RB3LYP) =  -1253.33362258     A.U. after    8 cycles
 SCF Done:  E(RB3LYP) =  -1253.33362292     A.U. after    8 cycles
 SCF Done:  E(RB3LYP) =  -1253.33362314     A.U. after    8 cycles
 SCF Done:  E(RB3LYP) =  -1253.33362325     A.U. after    7 cycles
 SCF Done:  E(RB3LYP) =  -1253.33362329     A.U. after    7 cycles
 Optimization completed.
    -- Stationary point found.
 Normal termination of Gaussian 16 at Mon Dec 14 13:32:44 2020.

 --------------------------------------------------------------------
 #N Geom=AllCheck Guess=TCheck SCRF=Check GenChk RB3LYP/6-31G(d) Freq
 --------------------------------------------------------------------

 Structure from the checkpoint file:  "JID_9211.chk"
 ------------------------------
 CID_80643431_JID_9211_neutraal
 ------------------------------
 Charge =  0 Multiplicity = 1

 SCF Done:  E(RB3LYP) =  -1253.33362329     A.U. after    1 cycles

  Exact polarizability: 208.067 -17.377 142.006  -9.541  -6.355 141.946
 Approx polarizability: 306.933 -44.516 222.332 -21.756 -11.605 254.990

                      1                      2                      3
                      A                      A                      A
 Frequencies --     22.4598                28.1822                42.5007
 Red. masses --      5.8702                 5.4195                 5.4881
 Frc consts  --      0.0017                 0.0025                 0.0058
 IR Inten    --      0.0944                 0.0544                 0.1663

                      4                      5                      6
                      A                      A                      A
 Frequencies --     63.1955                78.0328               114.4131
 Red. masses --      5.2822                 6.6389                 6.5938
 Frc consts  --      0.0124                 0.0238                 0.0509
 IR Inten    --      5.3830                 0.6434                10.8026

                      7                      8                      9
                      A                      A                      A
 Frequencies --    129.3372               161.4604               173.2812
 Red. masses --      1.0824                 3.7898                 4.1727
 Frc consts  --      0.0107                 0.0582                 0.0738
 IR Inten    --      0.4739                 0.7149                 3.7009

                     10                     11                     12
                      A                      A                      A
 Frequencies --    186.6695               194.5681               229.0182
 Red. masses --      1.0837                 4.0917                 4.3353
 Frc consts  --      0.0222                 0.0913                 0.1340
 IR Inten    --      0.3478                 0.9422                 1.1642

                     13                     14                     15
                      A                      A                      A
 Frequencies --    241.9652               251.1128               258.9908
 Red. masses --      1.8958                 6.8938                 1.6171
 Frc consts  --      0.0654                 0.2561                 0.0639
 IR Inten    --      1.2001                 0.9896                 2.1450

                     16                     17                     18
                      A                      A                      A
 Frequencies --    265.9885               307.7594               345.8912
 Red. masses --      6.2608                 3.6637                 4.8142
 Frc consts  --      0.2610                 0.2045                 0.3394
 IR Inten    --      5.8338                 1.5299                 8.2640

                     19                     20                     21
                      A                      A                      A
 Frequencies --    368.4434               389.3020               434.3116
 Red. masses --      3.6264                 7.0605                 4.1234
 Frc consts  --      0.2900                 0.6305                 0.4583
 IR Inten    --      7.6721                 2.7098                 9.9418

                     22                     23                     24
                      A                      A                      A
 Frequencies --    449.0026               493.2447               515.0002
 Red. masses --      7.2195                 4.8071                 6.9042
 Frc consts  --      0.8575                 0.6891                 1.0789
 IR Inten    --     27.0059                10.7909                 1.7479

                     25                     26                     27
                      A                      A                      A
 Frequencies --    553.0115               562.4290               564.3212
 Red. masses --      5.4086                 5.7360                 6.1177
 Frc consts  --      0.9746                 1.0690                 1.1479
 IR Inten    --     17.3734                37.2075                 3.2155

                     28                     29                     30
                      A                      A                      A
 Frequencies --    595.4326               634.1340               638.1538
 Red. masses --      2.6372                 1.3349                 3.2786
 Frc consts  --      0.5509                 0.3163                 0.7867
 IR Inten    --      6.0621                70.4651                13.3364

                     31                     32                     33
                      A                      A                      A
 Frequencies --    658.7108               677.2976               693.7334
 Red. masses --      4.9702                 4.5144                 4.9811
 Frc consts  --      1.2706                 1.2202                 1.4124
 IR Inten    --     10.5737                 1.6872                 7.7480

                     34                     35                     36
                      A                      A                      A
 Frequencies --    731.5092               747.1570               757.6408
 Red. masses --      2.3458                 2.0982                 4.9470
 Frc consts  --      0.7396                 0.6901                 1.6731
 IR Inten    --     12.9923                24.3595                19.5240

                     37                     38                     39
                      A                      A                      A
 Frequencies --    774.0152               795.7311               860.4999
 Red. masses --      7.5256                 7.1959                 4.1996
 Frc consts  --      2.6564                 2.6845                 1.8322
 IR Inten    --     11.3821                 1.7826                 5.9243

                     40                     41                     42
                      A                      A                      A
 Frequencies --    880.5398               976.7641               986.9021
 Red. masses --      4.9274                 4.0192                 1.3442
 Frc consts  --      2.2510                 2.2593                 0.7714
 IR Inten    --      0.6333                 2.2401                 7.6900

                     43                     44                     45
                      A                      A                      A
 Frequencies --    989.5312              1013.7249              1026.5489
 Red. masses --      2.1581                 2.0642                 1.4954
 Frc consts  --      1.2451                 1.2498                 0.9284
 IR Inten    --     34.4407                 3.2310                 8.4136

                     46                     47                     48
                      A                      A                      A
 Frequencies --   1052.1038              1062.4604              1079.4920
 Red. masses --      1.9053                 1.8274                 1.5058
 Frc consts  --      1.2426                 1.2153                 1.0338
 IR Inten    --     74.9028                 2.9805                 2.7879

                     49                     50                     51
                      A                      A                      A
 Frequencies --   1103.4854              1125.3414              1152.6822
 Red. masses --      3.0945                 3.1135                 3.3560
 Frc consts  --      2.2201                 2.3231                 2.6272
 IR Inten    --      5.9717                61.5487                23.7236

                     52                     53                     54
                      A                      A                      A
 Frequencies --   1176.4292              1187.5803              1211.6183
 Red. masses --      1.5628                 2.9309                 1.9173
 Frc consts  --      1.2743                 2.4354                 1.6584
 IR Inten    --      4.5951                 0.5875                49.9400

                     55                     56                     57
                      A                      A                      A
 Frequencies --   1248.1079              1323.3731              1348.5639
 Red. masses --      2.7612                 3.9346                 3.1197
 Frc consts  --      2.5342                 4.0599                 3.3427
 IR Inten    --     47.7291                53.6350                 5.1721

                     58                     59                     60
                      A                      A                      A
 Frequencies --   1352.3375              1372.2180              1394.3741
 Red. masses --      2.4529                 1.6010                 1.6792
 Frc consts  --      2.6430                 1.7762                 1.9236
 IR Inten    --    253.0074                30.1576                71.6714

                     61                     62                     63
                      A                      A                      A
 Frequencies --   1423.5141              1433.4701              1441.7876
 Red. masses --      1.3434                 1.2926                 1.2823
 Frc consts  --      1.6039                 1.5649                 1.5705
 IR Inten    --     55.7127                55.9757                 3.4656

                     64                     65                     66
                      A                      A                      A
 Frequencies --   1443.3915              1475.8021              1495.5765
 Red. masses --      2.2027                 1.0669                 1.0479
 Frc consts  --      2.7038                 1.3691                 1.3810
 IR Inten    --    195.4929                26.8492                 8.4573

                     67                     68                     69
                      A                      A                      A
 Frequencies --   1505.8959              1512.3800              1522.3763
 Red. masses --      1.0443                 1.2059                 1.0512
 Frc consts  --      1.3952                 1.6251                 1.4355
 IR Inten    --      6.7782                 6.5823                19.1460

                     70                     71                     72
                      A                      A                      A
 Frequencies --   1530.6297              1537.2079              1547.0487
 Red. masses --      2.9335                 1.1714                 4.1291
 Frc consts  --      4.0493                 1.6309                 5.8225
 IR Inten    --    114.3534                15.6953                10.8234

                     73                     74                     75
                      A                      A                      A
 Frequencies --   1595.6956              1661.1419              1758.0057
 Red. masses --      4.9097                 6.6703                10.6569
 Frc consts  --      7.3656                10.8445                19.4054
 IR Inten    --     32.4355               221.3267               380.4915

                     76                     77                     78
                      A                      A                      A
 Frequencies --   1776.9892              1826.4036              3053.5990
 Red. masses --     10.5499                 9.2065                 1.0365
 Frc consts  --     19.6277                18.0942                 5.6946
 IR Inten    --    340.0875               296.9547                24.5502

                     79                     80                     81
                      A                      A                      A
 Frequencies --   3071.0628              3073.0545              3109.2388
 Red. masses --      1.0378                 1.0349                 1.1012
 Frc consts  --      5.7667                 5.7581                 6.2723
 IR Inten    --     13.1904                 0.9104                14.7770

                     82                     83                     84
                      A                      A                      A
 Frequencies --   3109.6598              3135.4712              3136.7550
 Red. masses --      1.0827                 1.1012                 1.0985
 Frc consts  --      6.1687                 6.3784                 6.3680
 IR Inten    --     24.0454                24.3774                 3.1324

                     85                     86                     87
                      A                      A                      A
 Frequencies --   3139.9773              3173.4387              3175.5909
 Red. masses --      1.1019                 1.1064                 1.1018
 Frc consts  --      6.4010                 6.5649                 6.5464
 IR Inten    --     16.4425                20.1204                 2.6453

                     88                     89                     90
                      A                      A                      A
 Frequencies --   3239.1643              3275.1444              3625.3253
 Red. masses --      1.0931                 1.0947                 1.0787
 Frc consts  --      6.7575                 6.9185                 8.3529
 IR Inten    --      2.0301                 1.4043               101.3394

 - Thermochemistry -
 -------------------
 Temperature   298.150 Kelvin.  Pressure   1.00000 Atm.
 Atom     1 has atomic number  6 and mass  12.00000

 Molecular mass:   279.06776 amu.
 Principal axes and moments of inertia in atomic units:
                           1         2         3
     Eigenvalues --  2820.030048668.409209014.90380
           X            0.99992   0.00906  -0.00935
           Y           -0.00952   0.99864  -0.05126
           Z            0.00888   0.05134   0.99864
 This molecule is an asymmetric top.
 Rotational symmetry number  1.
 Warning -- assumption of classical behavior for rotation
           may cause significant error
 Rotational temperatures (Kelvin)      0.03071     0.00999     0.00961
 Rotational constants (GHZ):           0.63997     0.20820     0.20020
 Zero-point vibrational energy     645127.4 (Joules/Mol)
                                  154.18916 (Kcal/Mol)
 Warning -- explicit consideration of  28 degrees of freedom as
           vibrations may cause significant error
 Vibrational temperatures:     32.31    40.55    61.15    90.92   112.27
          (Kelvin)            164.61   186.09   232.31   249.31   268.58
                              279.94   329.51   348.13   361.30   372.63
                              382.70   442.80   497.66   530.11   560.12
                              624.88   646.01   709.67   740.97   795.66
                              809.21   811.93   856.69   912.38   918.16
                              947.74   974.48   998.13  1052.48  1074.99
                             1090.08  1113.64  1144.88  1238.07  1266.90
                             1405.35  1419.93  1423.71  1458.52  1476.97
                             1513.74  1528.64  1553.15  1587.67  1619.12
                             1658.45  1692.62  1708.66  1743.25  1795.75
                             1904.04  1940.28  1945.71  1974.32  2006.19
                             2048.12  2062.44  2074.41  2076.72  2123.35
                             2151.80  2166.65  2175.98  2190.36  2202.23
                             2211.70  2225.86  2295.85  2390.01  2529.38
                             2556.69  2627.79  4393.45  4418.57  4421.44
                             4473.50  4474.11  4511.24  4513.09  4517.73
                             4565.87  4568.97  4660.43  4712.20  5216.03

 Zero-point correction=                           0.245716 (Hartree/Particle)
 Thermal correction to Energy=                    0.263844
 Thermal correction to Enthalpy=                  0.264789
 Thermal correction to Gibbs Free Energy=         0.197905
 Sum of electronic and zero-point Energies=          -1253.087907
 Sum of electronic and thermal Energies=             -1253.069779
 Sum of electronic and thermal Enthalpies=           -1253.068835
 Sum of electronic and thermal Free Energies=        -1253.135719

                     E (Thermal)             CV                S
                      KCal/Mol        Cal/Mol-Kelvin    Cal/Mol-Kelvin
 Total                  165.565             67.255            140.769
 Electronic               0.000              0.000              0.000
 Translational            0.889              2.981             42.777
 Rotational               0.889              2.981             33.754
 Vibrational            163.787             61.294             64.238
 Vibration     1          0.593              1.985              6.404
 Vibration     2          0.593              1.984              5.953
 Vibration     3          0.595              1.980              5.139
 Vibration     4          0.597              1.972              4.355
 Vibration     5          0.599              1.964              3.940
 Vibration     6          0.607              1.937              3.193
 Vibration     7          0.612              1.924              2.956
 Vibration     8          0.622              1.890              2.533
 Vibration     9          0.627              1.875              2.400
 Vibration    10          0.632              1.858              2.261
 Vibration    11          0.635              1.847              2.184
 Vibration    12          0.652              1.797              1.887
 Vibration    13          0.658              1.776              1.788
 Vibration    14          0.663              1.761              1.723
 Vibration    15          0.668              1.748              1.669
 Vibration    16          0.672              1.735              1.622
 Vibration    17          0.698              1.659              1.374
 Vibration    18          0.724              1.584              1.185
 Vibration    19          0.741              1.537              1.086
 Vibration    20          0.757              1.493              1.003
 Vibration    21          0.795              1.395              0.845
 Vibration    22          0.808              1.363              0.799
 Vibration    23          0.849              1.265              0.675
 Vibration    24          0.870              1.217              0.622
 Vibration    25          0.908              1.133              0.538
 Vibration    26          0.918              1.113              0.519
 Vibration    27          0.920              1.108              0.515
 Vibration    28          0.953              1.042              0.458

 Optimization completed.
    -- Stationary point found.
 Normal termination of Gaussian 16 at Mon Dec 14 13:49:17 2020.

 ----------------------------------------------------------------------
 # B3LYP/6-311++G(d,p) empiricaldispersion=gd3bj scf=xqc pop=npa geom=c
 heck
 ----------------------------------------------------------------------

 --------------------------------------
 CID_80643431_JID_9211_Energie_neutraal
 --------------------------------------
 Structure from the checkpoint file:  "JID_9211.chk"
 Charge =  0 Multiplicity = 1

 SCF Done:  E(RB3LYP) =  -1253.59991266     A.U. after   17 cycles
 Normal termination of Gaussian 16 at Mon Dec 14 13:57:03 2020.

 ----------------------------------------------------------------------
 # B3LYP/6-311++G(d,p) empiricaldispersion=gd3bj scf=xqc pop=npa geom=c
 heck
 ----------------------------------------------------------------------

 ------------------------------------
 CID_80643431_JID_9211_Energie_kation
 ------------------------------------
 Structure from the checkpoint file:  "JID_9211.chk"
 Charge =  1 Multiplicity = 2

 SCF Done:  E(UB3LYP) =  -1253.29326744     A.U. after   33 cycles
 SCF Done:  E(UB3LYP) =  -1253.29326744     a.u. after    1 cycles
 Normal termination of Gaussian 16 at Mon Dec 14 14:18:45 2020.
 Gaussian 16:  ES64L-G16RevA.03 25-Dec-2016

 ----------------------------------------------------------------------
 # B3LYP/6-311++G(d,p) empiricaldispersion=gd3bj scf=xqc pop=npa geom=c
 heck
 ----------------------------------------------------------------------

 -----------------------------------
 CID_80643431_JID_9211_Energie_anion
 -----------------------------------
 Structure from the checkpoint file:  "JID_9211.chk"
 Charge = -1 Multiplicity = 2

                         Standard orientation:
 ---------------------------------------------------------------------
 Center     Atomic      Atomic             Coordinates (Angstroms)
 Number     Number       Type             X           Y           Z
 ---------------------------------------------------------------------
      1          6           0       -2.874309   -3.179198    0.160279
      2          6           0       -2.893066   -1.701353   -0.085686
      3          6           0       -4.003846   -0.908248   -0.155698
      4         16           0       -3.557039    0.743971   -0.443483
      5          6           0       -1.877545    0.238971   -0.460415
      6          7           0       -1.695275   -1.033112   -0.265684
      7          6           0       -0.744934    1.203184   -0.725850
      8          6           0       -1.096514    2.680178   -0.542688
      9          7           0        0.427932    0.800920    0.077576
     10          6           0        1.586094    0.368898   -0.631050
     11          8           0        1.611173    0.442975   -1.851718
     12          6           0        2.678811   -0.127156    0.204879
     13          6           0        2.511688   -0.152328    1.554871
     14          7           0        1.372318    0.271765    2.148887
     15          6           0        0.261753    0.758616    1.452238
     16          8           0       -0.741148    1.112650    2.044170
     17          6           0        3.988104   -0.627026   -0.318415
     18          8           0        4.838556   -1.010633    0.475322
     19          6           0        4.238824   -0.653762   -1.806099
     20          1           0       -2.388694   -3.703712   -0.670490
     21          1           0       -2.306034   -3.412555    1.068065
     22          1           0       -3.887601   -3.573814    0.275345
     23          1           0       -5.040434   -1.196914   -0.053109
     24          1           0       -0.412686    1.047875   -1.754980
     25          1           0       -1.430489    2.885101    0.475478
     26          1           0       -0.218899    3.293200   -0.766650
     27          1           0       -1.888980    2.963222   -1.243428
     28          1           0        3.307736   -0.519277    2.193624
     29          1           0        1.253733    0.239522    3.153055
     30          1           0        3.484723   -1.261809   -2.315196
     31          1           0        4.147617    0.349744   -2.232957
     32          1           0        5.238779   -1.055724   -1.978879
 ---------------------------------------------------------------------

 SCF Done:  E(UB3LYP) =  -1253.62134788     A.U. after   27 cycles

 The electronic state is 2-A.
 Alpha  occ. eigenvalues --  -88.78016 -18.96812 -18.95510 -18.93544 -14.23068
 Alpha  occ. eigenvalues --  -14.22853 -14.20522 -10.17670 -10.14032 -10.13550
 Alpha  occ. eigenvalues --  -10.11562 -10.11471 -10.10017 -10.08877 -10.08534
 Alpha  occ. eigenvalues --  -10.06532 -10.04615 -10.02309 -10.01654  -7.86673
 Alpha  occ. eigenvalues --   -5.82945  -5.82597  -5.82278  -0.94459  -0.90856
 Alpha  occ. eigenvalues --   -0.87373  -0.86512  -0.83259  -0.80270  -0.69939
 Alpha  occ. eigenvalues --   -0.69452  -0.66029  -0.63935  -0.59174  -0.58747
 Alpha  occ. eigenvalues --   -0.55883  -0.52266  -0.51430  -0.47685  -0.46035
 Alpha  occ. eigenvalues --   -0.43877  -0.41154  -0.38697  -0.37707  -0.36096
 Alpha  occ. eigenvalues --   -0.35183  -0.34394  -0.33909  -0.32944  -0.31571
 Alpha  occ. eigenvalues --   -0.31480  -0.31141  -0.30095  -0.29605  -0.29044
 Alpha  occ. eigenvalues --   -0.28995  -0.27855  -0.27623  -0.26387  -0.26028
 Alpha  occ. eigenvalues --   -0.25630  -0.24972  -0.23815  -0.22648  -0.20220
 Alpha  occ. eigenvalues --   -0.18319  -0.17414  -0.16675  -0.15181  -0.13862
 Alpha  occ. eigenvalues --   -0.12874  -0.09932  -0.09680   0.03846
 Alpha virt. eigenvalues --    0.06457   0.06956   0.08220   0.08728   0.09458
 Alpha virt. eigenvalues --    0.10156   0.10382   0.10956   0.11545   0.11920
 Alpha virt. eigenvalues --    0.12132   0.12534   0.13088   0.13489   0.13598

  Beta  occ. eigenvalues --  -88.78008 -18.96712 -18.95470 -18.93351 -14.22968
  Beta  occ. eigenvalues --  -14.22802 -14.20507 -10.17580 -10.13967 -10.13490
  Beta  occ. eigenvalues --  -10.11570 -10.11473 -10.09992 -10.08642 -10.08534
  Beta  occ. eigenvalues --  -10.06527 -10.03837 -10.02328 -10.01688  -7.86666
  Beta  occ. eigenvalues --   -5.82940  -5.82593  -5.82255  -0.94245  -0.90743
  Beta  occ. eigenvalues --   -0.86974  -0.86460  -0.82937  -0.80000  -0.69892
  Beta  occ. eigenvalues --   -0.69399  -0.65993  -0.63351  -0.58888  -0.58708
  Beta  occ. eigenvalues --   -0.55700  -0.52052  -0.50904  -0.47567  -0.45839
  Beta  occ. eigenvalues --   -0.43757  -0.40970  -0.38498  -0.37299  -0.35989
  Beta  occ. eigenvalues --   -0.34774  -0.34352  -0.33869  -0.32729  -0.31518
  Beta  occ. eigenvalues --   -0.31200  -0.30967  -0.29920  -0.29293  -0.28926
  Beta  occ. eigenvalues --   -0.28657  -0.27629  -0.27380  -0.26290  -0.25929
  Beta  occ. eigenvalues --   -0.25353  -0.24768  -0.23653  -0.21169  -0.19103
  Beta  occ. eigenvalues --   -0.18128  -0.17380  -0.16538  -0.14696  -0.13700
  Beta  occ. eigenvalues --   -0.12778  -0.09501  -0.08610
  Beta virt. eigenvalues --    0.06438   0.07246   0.08157   0.08679   0.09416
  Beta virt. eigenvalues --    0.10128   0.10362   0.10822   0.11147   0.11556
  Beta virt. eigenvalues --    0.11911   0.12415   0.13086   0.13327   0.13513

 Mulliken charges and spin densities:
               1          2
     1  C   -0.560847   0.000087
     2  C   -0.635170  -0.003898
     3  C    0.424959   0.016450
     4  S   -0.535132   0.006641
     5  C    0.298591   0.035719
     6  N    0.201487   0.007833
     7  C   -0.171860  -0.018320
     8  C   -0.496527  -0.000910
     9  N    0.418264   0.027239
    10  C   -1.723782   0.003242
    11  O   -0.314764   0.017291
    12  C    1.638313   0.018939
    13  C    0.200287   0.596960
    14  N   -0.305674  -0.008058
    15  C   -0.038663   0.064442
    16  O   -0.302875   0.035088
    17  C   -0.710174   0.144560
    18  O   -0.379919   0.077835
    19  C   -0.329294  -0.009137
    20  H    0.158677   0.000271
    21  H    0.165297  -0.000428
    22  H    0.126318   0.000977
    23  H    0.224722  -0.001128
    24  H    0.261908  -0.000171
    25  H    0.191979   0.010391
    26  H    0.156553   0.003616
    27  H    0.111971   0.004427
    28  H    0.196655  -0.049622
    29  H    0.307309  -0.000570
    30  H    0.145833   0.010030
    31  H    0.142975   0.010131
    32  H    0.132582   0.000072
 Sum of Mulliken charges =  -1.00000   1.00000

 Dipole moment (field-independent basis, Debye):
    X=             -9.4658    Y=              0.6228    Z=             -0.1379  Tot=              9.4872
 Quadrupole moment (field-independent basis, Debye-Ang):
   XX=           -182.5102   YY=           -126.5361   ZZ=           -133.2660
   XY=             13.8080   XZ=              2.5779   YZ=             -2.6468

 Summary of Natural Population Analysis:

                                       Natural Population
                Natural  -----------------------------------------------
    Atom  No    Charge         Core      Valence    Rydberg      Total
 -----------------------------------------------------------------------
      C    1   -0.29318      0.99963     2.28902    0.00454     3.29318
      C    2    0.06536      0.99951     1.92248    0.01265     2.93464
      C    3   -0.21606      0.99946     2.20717    0.00943     3.21606
      S    4    0.18445      4.99942     2.79554    0.02059     7.81555
      C    5    0.06771      0.99958     1.91633    0.01638     2.93229
      N    6   -0.24352      0.99962     2.73237    0.01154     3.74352
      C    7   -0.03941      0.99952     2.02407    0.01583     3.03941
      C    8   -0.29154      0.99965     2.28737    0.00453     3.29154
      N    9   -0.25231      0.99961     2.73988    0.01282     3.75231
      C   10    0.35168      0.99961     1.62903    0.01969     2.64832
      O   11   -0.33447      0.99988     3.32863    0.00596     4.33447
      C   12   -0.17225      0.99942     2.16354    0.00929     3.17225
      C   13    0.21575      0.99954     1.77334    0.01137     2.78425
      N   14   -0.28532      0.99966     2.77846    0.00720     3.78532
      C   15    0.42720      0.99970     1.55120    0.02190     2.57280
      O   16   -0.33009      0.99987     3.32420    0.00601     4.33009
      C   17    0.31049      0.99966     1.66956    0.02029     2.68951
      O   18   -0.30657      0.99988     3.29952    0.00717     4.30657
      C   19   -0.32898      0.99963     2.32501    0.00433     3.32898
      H   20    0.10606      0.00000     0.39291    0.00104     0.39394
      H   21    0.10776      0.00000     0.39122    0.00103     0.39224
      H   22    0.09675      0.00000     0.40244    0.00081     0.40325
      H   23    0.10635      0.00000     0.39260    0.00104     0.39365
      H   24    0.13229      0.00000     0.36608    0.00163     0.36771
      H   25    0.11317      0.00000     0.38577    0.00106     0.38683
      H   26    0.10485      0.00000     0.39431    0.00084     0.39515
      H   27    0.09542      0.00000     0.40365    0.00092     0.40458
      H   28    0.09711      0.00000     0.40168    0.00121     0.40289
      H   29    0.19518      0.00000     0.30283    0.00199     0.30482
      H   30    0.11103      0.00000     0.38793    0.00103     0.38897
      H   31    0.11026      0.00000     0.38870    0.00105     0.38974
      H   32    0.09483      0.00000     0.40354    0.00162     0.40517
 =======================================================================
   * Total *    0.00000     22.99282    49.77037    0.23681    73.00000

 Normal termination of Gaussian 16 at Mon Dec 14 14:36:20 2020.
