 Gaussian 16, Revision A.03,

 -----------------------------------------------------------
 # opt freq B3LYP/6-31G(d) empiricaldispersion=gd3bj scf=xqc
 -----------------------------------------------------------

 -------------------------------
 CID_114460176_JID_9783_neutraal
 -------------------------------
 Symbolic Z-matrix:
 Charge =  0 Multiplicity = 1

 SCF Done:  E(RB3LYP) =  -859.661568890     A.U. after   15 cycles
 SCF Done:  E(RB3LYP) =  -859.672052831     A.U. after   13 cycles
 SCF Done:  E(RB3LYP) =  -859.673700676     A.U. after   13 cycles
 SCF Done:  E(RB3LYP) =  -859.674557616     A.U. after   13 cycles
 SCF Done:  E(RB3LYP) =  -859.674957581     A.U. after   13 cycles
 SCF Done:  E(RB3LYP) =  -859.675136892     A.U. after   13 cycles
 SCF Done:  E(RB3LYP) =  -859.675397956     A.U. after   11 cycles
 SCF Done:  E(RB3LYP) =  -859.675409409     A.U. after   11 cycles
 SCF Done:  E(RB3LYP) =  -859.675440821     A.U. after   10 cycles
 SCF Done:  E(RB3LYP) =  -859.675445298     A.U. after    9 cycles
 SCF Done:  E(RB3LYP) =  -859.675447982     A.U. after    7 cycles
 SCF Done:  E(RB3LYP) =  -859.675448194     A.U. after    8 cycles
 SCF Done:  E(RB3LYP) =  -859.675448404     A.U. after    8 cycles
 SCF Done:  E(RB3LYP) =  -859.675448573     A.U. after    8 cycles
 SCF Done:  E(RB3LYP) =  -859.675448606     A.U. after    7 cycles
 Optimization completed.
    -- Stationary point found.
 Normal termination of Gaussian 16 at Mon Dec 14 17:24:31 2020.

 --------------------------------------------------------------------
 #N Geom=AllCheck Guess=TCheck SCRF=Check GenChk RB3LYP/6-31G(d) Freq
 --------------------------------------------------------------------

 Structure from the checkpoint file:  "JID_9783.chk"
 -------------------------------
 CID_114460176_JID_9783_neutraal
 -------------------------------
 Charge =  0 Multiplicity = 1

 SCF Done:  E(RB3LYP) =  -859.675448606     A.U. after    1 cycles

  Exact polarizability: 280.108   6.012 159.270   8.035  -2.968 104.253
 Approx polarizability: 352.299  18.855 283.803  14.991  -7.180 159.713

                      1                      2                      3
                      A                      A                      A
 Frequencies --     13.9165                30.2115                57.0451
 Red. masses --      4.6719                 4.5743                 5.5012
 Frc consts  --      0.0005                 0.0025                 0.0105
 IR Inten    --      0.1815                 2.2745                 0.1765

                      4                      5                      6
                      A                      A                      A
 Frequencies --     60.1112                76.4038                93.6433
 Red. masses --      3.7352                 5.4306                 4.0297
 Frc consts  --      0.0080                 0.0187                 0.0208
 IR Inten    --      0.2525                 2.6003                 2.1398

                      7                      8                      9
                      A                      A                      A
 Frequencies --    130.7105               180.8421               201.7000
 Red. masses --      4.1033                 2.6638                 2.8216
 Frc consts  --      0.0413                 0.0513                 0.0676
 IR Inten    --      0.1959                 1.1900                 2.2600

                     10                     11                     12
                      A                      A                      A
 Frequencies --    205.3852               236.5494               246.5031
 Red. masses --      4.4893                 1.2276                 2.7503
 Frc consts  --      0.1116                 0.0405                 0.0985
 IR Inten    --      2.4770                 1.0078                 0.1720

                     13                     14                     15
                      A                      A                      A
 Frequencies --    264.0042               278.2125               303.1487
 Red. masses --      2.0438                 1.4621                 2.8257
 Frc consts  --      0.0839                 0.0667                 0.1530
 IR Inten    --      0.2027                 0.8454                 3.2704

                     16                     17                     18
                      A                      A                      A
 Frequencies --    321.3226               325.7075               335.7242
 Red. masses --      1.4879                 1.8915                 1.7882
 Frc consts  --      0.0905                 0.1182                 0.1187
 IR Inten    --      1.4854                 1.6780                 0.5924

                     19                     20                     21
                      A                      A                      A
 Frequencies --    363.9986               389.4739               407.5098
 Red. masses --      3.5947                 2.2085                 4.5901
 Frc consts  --      0.2806                 0.1974                 0.4491
 IR Inten    --      2.3817                 0.5794                 1.0459

                     22                     23                     24
                      A                      A                      A
 Frequencies --    441.2216               462.2206               477.8204
 Red. masses --      3.8327                 3.7102                 3.8661
 Frc consts  --      0.4396                 0.4670                 0.5201
 IR Inten    --      0.2130                 2.5237                 0.0250

                     25                     26                     27
                      A                      A                      A
 Frequencies --    496.1103               526.6636               531.3146
 Red. masses --      2.3932                 4.5527                 3.9249
 Frc consts  --      0.3470                 0.7440                 0.6528
 IR Inten    --      1.4411                 5.9152                 6.0755

                     28                     29                     30
                      A                      A                      A
 Frequencies --    577.2042               594.3073               608.5707
 Red. masses --      3.8848                 3.3309                 1.2724
 Frc consts  --      0.7626                 0.6932                 0.2776
 IR Inten    --     19.8910                 4.8520                83.7115

                     31                     32                     33
                      A                      A                      A
 Frequencies --    652.5619               665.2096               715.0658
 Red. masses --      5.2723                 5.8567                 4.6741
 Frc consts  --      1.3228                 1.5269                 1.4081
 IR Inten    --     43.9659                11.6696                28.5986

                     34                     35                     36
                      A                      A                      A
 Frequencies --    734.9129               784.1135               798.3887
 Red. masses --      3.9215                 2.3998                 7.6615
 Frc consts  --      1.2479                 0.8693                 2.8774
 IR Inten    --     41.2782                 4.2254                24.9087

                     37                     38                     39
                      A                      A                      A
 Frequencies --    813.5808               834.7375               841.0169
 Red. masses --      4.8218                 2.4155                 1.8763
 Frc consts  --      1.8805                 0.9916                 0.7819
 IR Inten    --      2.3803                 0.5806                15.0478

                     40                     41                     42
                      A                      A                      A
 Frequencies --    845.2915               939.8181               951.2693
 Red. masses --      1.3051                 1.7656                 1.9234
 Frc consts  --      0.5494                 0.9188                 1.0255
 IR Inten    --      2.6560                 0.5302                 0.6181

                     43                     44                     45
                      A                      A                      A
 Frequencies --    954.4688               972.8974               973.9931
 Red. masses --      2.9778                 1.7619                 1.5214
 Frc consts  --      1.5983                 0.9826                 0.8504
 IR Inten    --     20.8871                13.9672                10.4726

                     46                     47                     48
                      A                      A                      A
 Frequencies --    992.1970              1006.6854              1013.5729
 Red. masses --      1.3198                 2.2195                 1.7402
 Frc consts  --      0.7655                 1.3252                 1.0533
 IR Inten    --      1.0600                 4.5497                 8.8329

                     49                     50                     51
                      A                      A                      A
 Frequencies --   1033.4027              1055.3778              1059.5909
 Red. masses --      4.5626                 1.4128                 1.4456
 Frc consts  --      2.8708                 0.9272                 0.9563
 IR Inten    --     13.4064                 1.5788                 3.8494

                     52                     53                     54
                      A                      A                      A
 Frequencies --   1073.9948              1086.1033              1114.0524
 Red. masses --      2.6183                 2.1769                 2.0382
 Frc consts  --      1.7794                 1.5130                 1.4904
 IR Inten    --      6.6312                18.5658                43.2896

                     55                     56                     57
                      A                      A                      A
 Frequencies --   1129.7365              1178.2193              1216.6724
 Red. masses --      3.5643                 1.4517                 2.3453
 Frc consts  --      2.6803                 1.1874                 2.0455
 IR Inten    --    234.9236               363.0997                66.2048

                     58                     59                     60
                      A                      A                      A
 Frequencies --   1230.8651              1237.5312              1243.8065
 Red. masses --      2.0042                 1.9769                 3.4513
 Frc consts  --      1.7890                 1.7838                 3.1458
 IR Inten    --    121.6644                30.5180                 2.6993

                     61                     62                     63
                      A                      A                      A
 Frequencies --   1246.5132              1257.0744              1271.1940
 Red. masses --      1.7113                 2.4632                 1.3642
 Frc consts  --      1.5666                 2.2933                 1.2988
 IR Inten    --      6.3000                 8.1966                47.4982

                     64                     65                     66
                      A                      A                      A
 Frequencies --   1295.7107              1317.3181              1353.8862
 Red. masses --      2.1769                 1.6018                 1.5416
 Frc consts  --      2.1533                 1.6378                 1.6649
 IR Inten    --      6.1078               113.7591                 8.2744

                     67                     68                     69
                      A                      A                      A
 Frequencies --   1370.2970              1386.1941              1406.2718
 Red. masses --      1.8039                 1.9105                 1.9978
 Frc consts  --      1.9957                 2.1630                 2.3278
 IR Inten    --     33.0285                78.3758                 2.1991

                     70                     71                     72
                      A                      A                      A
 Frequencies --   1413.8942              1424.3928              1428.3225
 Red. masses --      2.0995                 1.2428                 1.3802
 Frc consts  --      2.4729                 1.4856                 1.6590
 IR Inten    --     10.4391                 6.2372                10.4112

                     73                     74                     75
                      A                      A                      A
 Frequencies --   1429.6638              1436.2709              1457.2069
 Red. masses --      1.8631                 1.8582                 1.2179
 Frc consts  --      2.2436                 2.2584                 1.5238
 IR Inten    --     18.4906               123.3587                 9.1863

                     76                     77                     78
                      A                      A                      A
 Frequencies --   1501.2213              1504.8133              1514.9915
 Red. masses --      1.1786                 2.7016                 1.0569
 Frc consts  --      1.5650                 3.6044                 1.4292
 IR Inten    --     15.0710                94.0805                 0.4817

                     79                     80                     81
                      A                      A                      A
 Frequencies --   1519.1892              1520.1494              1523.2302
 Red. masses --      1.0761                 1.2317                 1.0490
 Frc consts  --      1.4632                 1.6769                 1.4341
 IR Inten    --      6.5161                80.1305                 0.0505

                     82                     83                     84
                      A                      A                      A
 Frequencies --   1529.5312              1535.9924              1539.0047
 Red. masses --      1.1274                 1.0564                 1.0527
 Frc consts  --      1.5540                 1.4684                 1.4690
 IR Inten    --     21.0163                 7.2500                 4.9639

                     85                     86                     87
                      A                      A                      A
 Frequencies --   1552.7362              1598.9506              1641.7845
 Red. masses --      1.0611                 4.8849                 6.2150
 Frc consts  --      1.5073                 7.3583                 9.8702
 IR Inten    --     11.8931               115.9726               454.0886

                     88                     89                     90
                      A                      A                      A
 Frequencies --   1751.3378              1848.3696              2988.4903
 Red. masses --      7.0759                10.0713                 1.0757
 Frc consts  --     12.7872                20.2727                 5.6602
 IR Inten    --      1.2923               341.8169                36.3526

                     91                     92                     93
                      A                      A                      A
 Frequencies --   3007.6896              3040.6294              3045.7900
 Red. masses --      1.0748                 1.0616                 1.0348
 Frc consts  --      5.7288                 5.7827                 5.6560
 IR Inten    --     48.2837                14.7785                23.5290

                     94                     95                     96
                      A                      A                      A
 Frequencies --   3047.3750              3054.4879              3084.8916
 Red. masses --      1.0366                 1.0367                 1.0968
 Frc consts  --      5.6719                 5.6987                 6.1496
 IR Inten    --     33.5186                20.4413                40.0166

                     97                     98                     99
                      A                      A                      A
 Frequencies --   3105.4437              3112.0854              3113.2150
 Red. masses --      1.0853                 1.1019                 1.1028
 Frc consts  --      6.1665                 6.2878                 6.2974
 IR Inten    --      4.6720                 5.7520                 5.1796

                    100                    101                    102
                      A                      A                      A
 Frequencies --   3118.1432              3121.9110              3123.1667
 Red. masses --      1.1026                 1.1019                 1.1023
 Frc consts  --      6.3165                 6.3274                 6.3348
 IR Inten    --     27.0046                65.6594                43.4486

                    103                    104                    105
                      A                      A                      A
 Frequencies --   3123.7528              3161.7256              3205.2115
 Red. masses --      1.1014                 1.0892                 1.0887
 Frc consts  --      6.3324                 6.4149                 6.5899
 IR Inten    --     51.2305                18.5864                13.1938

                    106                    107                    108
                      A                      A                      A
 Frequencies --   3228.1198              3244.4882              3703.6772
 Red. masses --      1.0875                 1.0955                 1.0642
 Frc consts  --      6.6769                 6.7944                 8.6009
 IR Inten    --      9.5064                 4.9396                84.6197

 - Thermochemistry -
 -------------------
 Temperature   298.150 Kelvin.  Pressure   1.00000 Atm.
 Atom     1 has atomic number  6 and mass  12.00000

 Molecular mass:   261.14773 amu.
 Principal axes and moments of inertia in atomic units:
                           1         2         3
     Eigenvalues --  1298.25211********************
           X            0.99999  -0.00434  -0.00238
           Y            0.00433   0.99999  -0.00272
           Z            0.00239   0.00271   0.99999
 This molecule is an asymmetric top.
 Rotational symmetry number  1.
 Warning -- assumption of classical behavior for rotation
           may cause significant error
 Rotational temperatures (Kelvin)      0.06672     0.00629     0.00600
 Rotational constants (GHZ):           1.39013     0.13116     0.12493
 Zero-point vibrational energy     840929.9 (Joules/Mol)
                                  200.98706 (Kcal/Mol)
 Warning -- explicit consideration of  30 degrees of freedom as
           vibrations may cause significant error
 Vibrational temperatures:     20.02    43.47    82.08    86.49   109.93
          (Kelvin)            134.73   188.06   260.19   290.20   295.50
                              340.34   354.66   379.84   400.29   436.16
                              462.31   468.62   483.03   523.71   560.37
                              586.32   634.82   665.03   687.48   713.79
                              757.75   764.44   830.47   855.08   875.60
                              938.89   957.09  1028.82  1057.38  1128.16
                             1148.70  1170.56  1201.00  1210.04  1216.19
                             1352.19  1368.66  1373.27  1399.78  1401.36
                             1427.55  1448.40  1458.31  1486.84  1518.45
                             1524.51  1545.24  1562.66  1602.87  1625.44
                             1695.19  1750.52  1770.94  1780.53  1789.56
                             1793.45  1808.65  1828.96  1864.24  1895.33
                             1947.94  1971.55  1994.42  2023.31  2034.28
                             2049.38  2055.04  2056.97  2066.47  2096.60
                             2159.92  2165.09  2179.73  2185.77  2187.16
                             2191.59  2200.65  2209.95  2214.28  2234.04
                             2300.53  2362.16  2519.78  2659.39  4299.77
                             4327.39  4374.79  4382.21  4384.49  4394.73
                             4438.47  4468.04  4477.60  4479.22  4486.31
                             4491.73  4493.54  4494.38  4549.02  4611.58
                             4644.54  4668.09  5328.77

 Zero-point correction=                           0.320293 (Hartree/Particle)
 Thermal correction to Energy=                    0.338491
 Thermal correction to Enthalpy=                  0.339435
 Thermal correction to Gibbs Free Energy=         0.272620
 Sum of electronic and zero-point Energies=           -859.355155
 Sum of electronic and thermal Energies=              -859.336957
 Sum of electronic and thermal Enthalpies=            -859.336013
 Sum of electronic and thermal Free Energies=         -859.402829

                     E (Thermal)             CV                S
                      KCal/Mol        Cal/Mol-Kelvin    Cal/Mol-Kelvin
 Total                  212.406             70.136            140.626
 Electronic               0.000              0.000              0.000
 Translational            0.889              2.981             42.579
 Rotational               0.889              2.981             33.911
 Vibrational            210.629             64.175             64.135
 Vibration     1          0.593              1.986              7.354
 Vibration     2          0.594              1.984              5.815
 Vibration     3          0.596              1.975              4.557
 Vibration     4          0.597              1.973              4.454
 Vibration     5          0.599              1.965              3.981
 Vibration     6          0.603              1.954              3.582
 Vibration     7          0.612              1.923              2.936
 Vibration     8          0.630              1.866              2.320
 Vibration     9          0.639              1.837              2.118
 Vibration    10          0.640              1.832              2.084
 Vibration    11          0.655              1.785              1.829
 Vibration    12          0.661              1.769              1.755
 Vibration    13          0.671              1.739              1.635
 Vibration    14          0.679              1.714              1.545
 Vibration    15          0.695              1.668              1.399
 Vibration    16          0.707              1.633              1.303
 Vibration    17          0.710              1.624              1.281
 Vibration    18          0.717              1.604              1.232
 Vibration    19          0.738              1.546              1.105
 Vibration    20          0.757              1.493              1.002
 Vibration    21          0.772              1.454              0.935
 Vibration    22          0.801              1.380              0.823
 Vibration    23          0.820              1.334              0.760
 Vibration    24          0.834              1.299              0.716
 Vibration    25          0.852              1.259              0.668
 Vibration    26          0.882              1.191              0.595
 Vibration    27          0.886              1.181              0.584
 Vibration    28          0.934              1.081              0.491
 Vibration    29          0.952              1.044              0.460
 Vibration    30          0.967              1.014              0.435

 Optimization completed.
    -- Stationary point found.
 Normal termination of Gaussian 16 at Mon Dec 14 17:41:12 2020.

 ----------------------------------------------------------------------
 # B3LYP/6-311++G(d,p) empiricaldispersion=gd3bj scf=xqc pop=npa geom=c
 heck
 ----------------------------------------------------------------------

 ---------------------------------------
 CID_114460176_JID_9783_Energie_neutraal
 ---------------------------------------
 Structure from the checkpoint file:  "JID_9783.chk"
 Charge =  0 Multiplicity = 1

 SCF Done:  E(RB3LYP) =  -859.914846527     A.U. after   16 cycles
 Normal termination of Gaussian 16 at Mon Dec 14 17:49:23 2020.

 ----------------------------------------------------------------------
 # B3LYP/6-311++G(d,p) empiricaldispersion=gd3bj scf=xqc pop=npa geom=c
 heck
 ----------------------------------------------------------------------

 -------------------------------------
 CID_114460176_JID_9783_Energie_kation
 -------------------------------------
 Structure from the checkpoint file:  "JID_9783.chk"
 Charge =  1 Multiplicity = 2

 SCF Done:  E(UB3LYP) =  -859.624531749     A.U. after   29 cycles
 Normal termination of Gaussian 16 at Mon Dec 14 18:09:57 2020.
 Gaussian 16:  ES64L-G16RevA.03 25-Dec-2016

 ----------------------------------------------------------------------
 # B3LYP/6-311++G(d,p) empiricaldispersion=gd3bj scf=xqc pop=npa geom=c
 heck
 ----------------------------------------------------------------------

 ------------------------------------
 CID_114460176_JID_9783_Energie_anion
 ------------------------------------
 Structure from the checkpoint file:  "JID_9783.chk"
 Charge = -1 Multiplicity = 2

                         Standard orientation:
 ---------------------------------------------------------------------
 Center     Atomic      Atomic             Coordinates (Angstroms)
 Number     Number       Type             X           Y           Z
 ---------------------------------------------------------------------
      1          6           0       -5.114222    1.510229    0.311868
      2          6           0       -4.538399    0.086862    0.249228
      3          6           0       -4.839228   -0.619113    1.589491
      4          6           0       -5.248382   -0.670982   -0.895530
      5          6           0       -3.029157    0.082415    0.002832
      6          6           0       -2.320473    1.174256   -0.304674
      7          6           0       -0.835025    1.225504   -0.517644
      8          7           0       -0.191187   -0.080125   -0.358135
      9          6           0       -1.012724   -1.229197   -0.714714
     10          6           0       -2.300652   -1.241215    0.106542
     11          6           0        1.168351   -0.135484   -0.238292
     12          7           0        1.793601    1.072576   -0.179628
     13          7           0        3.097999    1.152997   -0.020706
     14          6           0        3.840270    0.043818    0.070482
     15          6           0        3.269055   -1.239894    0.003829
     16          6           0        1.908792   -1.341577   -0.154735
     17          6           0        5.301937    0.260423    0.241182
     18          8           0        5.869416    1.326012    0.307434
     19          8           0        5.972423   -0.927359    0.320747
     20          1           0       -6.187522    1.467107    0.526460
     21          1           0       -4.989723    2.040143   -0.638617
     22          1           0       -4.635603    2.101452    1.099924
     23          1           0       -5.918168   -0.621567    1.781869
     24          1           0       -4.501965   -1.660769    1.588166
     25          1           0       -4.346578   -0.103777    2.421743
     26          1           0       -5.056320   -0.185402   -1.858498
     27          1           0       -4.917576   -1.712340   -0.969105
     28          1           0       -6.331685   -0.682290   -0.727960
     29          1           0       -2.803621    2.141621   -0.400053
     30          1           0       -0.376413    1.917497    0.193968
     31          1           0       -0.607171    1.643239   -1.512701
     32          1           0       -1.260752   -1.188294   -1.786783
     33          1           0       -0.457688   -2.150161   -0.544213
     34          1           0       -2.930153   -2.065369   -0.248229
     35          1           0       -2.059483   -1.464380    1.154615
     36          1           0        3.894952   -2.121138    0.077805
     37          1           0        1.437252   -2.314780   -0.204911
     38          1           0        6.909757   -0.684429    0.431143
 ---------------------------------------------------------------------

 SCF Done:  E(UB3LYP) =  -859.923754423     A.U. after   33 cycles
 SCF Done:  E(UB3LYP) =  -859.923754423     a.u. after    1 cycles

 The electronic state is 2-A.
 Alpha  occ. eigenvalues --  -19.04572 -18.97443 -14.22779 -14.19476 -14.18337
 Alpha  occ. eigenvalues --  -10.16206 -10.11869 -10.11063 -10.10691 -10.10064
 Alpha  occ. eigenvalues --  -10.08466 -10.08212 -10.07847 -10.07818 -10.07695
 Alpha  occ. eigenvalues --  -10.07465 -10.07069 -10.06646 -10.05786  -0.98107
 Alpha  occ. eigenvalues --   -0.88984  -0.88392  -0.84296  -0.75584  -0.70712
 Alpha  occ. eigenvalues --   -0.69364  -0.66827  -0.66400  -0.60877  -0.60560
 Alpha  occ. eigenvalues --   -0.58044  -0.56424  -0.53455  -0.51581  -0.48465
 Alpha  occ. eigenvalues --   -0.47489  -0.44140  -0.41209  -0.40071  -0.38450
 Alpha  occ. eigenvalues --   -0.38193  -0.37305  -0.36072  -0.35706  -0.35426
 Alpha  occ. eigenvalues --   -0.34654  -0.33595  -0.32885  -0.31750  -0.31578
 Alpha  occ. eigenvalues --   -0.30903  -0.30796  -0.29470  -0.28973  -0.28773
 Alpha  occ. eigenvalues --   -0.28451  -0.27993  -0.27767  -0.26928  -0.25398
 Alpha  occ. eigenvalues --   -0.24043  -0.22589  -0.20891  -0.19565  -0.18974
 Alpha  occ. eigenvalues --   -0.17763  -0.15209  -0.15080  -0.10123  -0.09044
 Alpha  occ. eigenvalues --    0.03429
 Alpha virt. eigenvalues --    0.04966   0.06721   0.07227   0.07535   0.08004
 Alpha virt. eigenvalues --    0.08107   0.08820   0.09215   0.09499   0.09738
 Alpha virt. eigenvalues --    0.10138   0.10617   0.11499   0.12230   0.12895

  Beta  occ. eigenvalues --  -19.04514 -18.97305 -14.22768 -14.19485 -14.17705
  Beta  occ. eigenvalues --  -10.16055 -10.11741 -10.11056 -10.10690 -10.10061
  Beta  occ. eigenvalues --  -10.08463 -10.08191 -10.07833 -10.07806 -10.07669
  Beta  occ. eigenvalues --  -10.07462 -10.07111 -10.06591 -10.05641  -0.97919
  Beta  occ. eigenvalues --   -0.88688  -0.88039  -0.83997  -0.75551  -0.70492
  Beta  occ. eigenvalues --   -0.69187  -0.66795  -0.66092  -0.60849  -0.60520
  Beta  occ. eigenvalues --   -0.57870  -0.56167  -0.53248  -0.51492  -0.48296
  Beta  occ. eigenvalues --   -0.47375  -0.44064  -0.41125  -0.39988  -0.38310
  Beta  occ. eigenvalues --   -0.38117  -0.37254  -0.36029  -0.35598  -0.35304
  Beta  occ. eigenvalues --   -0.34514  -0.33472  -0.32112  -0.31669  -0.31552
  Beta  occ. eigenvalues --   -0.30823  -0.30746  -0.29360  -0.28882  -0.28449
  Beta  occ. eigenvalues --   -0.28328  -0.27709  -0.27527  -0.26840  -0.25378
  Beta  occ. eigenvalues --   -0.23998  -0.22546  -0.20109  -0.18841  -0.18467
  Beta  occ. eigenvalues --   -0.16914  -0.15122  -0.14967  -0.09408  -0.08533
  Beta virt. eigenvalues --    0.05252   0.06905   0.07317   0.07634   0.08034
  Beta virt. eigenvalues --    0.08461   0.08831   0.08920   0.09377   0.09564
  Beta virt. eigenvalues --    0.09843   0.10129   0.10646   0.11513   0.12215

 Mulliken charges and spin densities:
               1          2
     1  C   -0.345662  -0.122161
     2  C   -0.985873   1.398889
     3  C   -0.204362  -0.481746
     4  C    0.227585  -0.938781
     5  C    0.602766  -0.092123
     6  C    0.851119  -0.396164
     7  C   -0.812766  -0.206200
     8  N    0.202801   0.064472
     9  C    0.149292  -0.814214
    10  C   -0.640575   0.180746
    11  C    0.022127  -0.044285
    12  N   -0.348096  -0.061322
    13  N    0.159438   0.335173
    14  C   -0.381527   0.017469
    15  C   -0.218755  -0.014927
    16  C   -0.301357   0.214210
    17  C    0.290839   0.076904
    18  O   -0.329999   0.051482
    19  O   -0.216891   0.010375
    20  H    0.025734   0.134472
    21  H    0.029391   0.095687
    22  H    0.075016   0.057519
    23  H   -0.069298   0.225619
    24  H   -0.057849   0.216683
    25  H    0.133961   0.015673
    26  H    0.039481   0.113449
    27  H   -0.158623   0.294150
    28  H   -0.071373   0.217398
    29  H    0.181841  -0.003477
    30  H    0.221421   0.010254
    31  H    0.144654   0.050787
    32  H    0.051467   0.118842
    33  H    0.048770   0.060117
    34  H    0.099059   0.056251
    35  H    0.075588   0.107410
    36  H    0.192471   0.007212
    37  H    0.044556   0.044279
    38  H    0.273630  -0.000124
 Sum of Mulliken charges =  -1.00000   1.00000

 Dipole moment (field-independent basis, Debye):
    X=             -5.0460    Y=             -3.3991    Z=             -0.0342  Tot=              6.0841
 Quadrupole moment (field-independent basis, Debye-Ang):
   XX=           -222.4420   YY=           -140.3725   ZZ=           -130.8955
   XY=            -27.3465   XZ=             -2.1094   YZ=             -0.3300

 Summary of Natural Population Analysis:

                                       Natural Population
                Natural  -----------------------------------------------
    Atom  No    Charge         Core      Valence    Rydberg      Total
 -----------------------------------------------------------------------
      C    1   -0.28467      0.99964     2.27903    0.00600     3.28467
      C    2   -0.05624      0.99955     2.04529    0.01140     3.05624
      C    3   -0.28161      0.99963     2.27615    0.00584     3.28161
      C    4   -0.28131      0.99963     2.27449    0.00719     3.28131
      C    5   -0.00470      0.99945     1.99219    0.01307     3.00470
      C    6   -0.10033      0.99945     2.09335    0.00752     3.10033
      C    7   -0.09804      0.99960     2.08785    0.01059     3.09804
      N    8   -0.24412      0.99963     2.73437    0.01012     3.74412
      C    9   -0.07612      0.99962     2.06557    0.01094     3.07612
      C   10   -0.20924      0.99958     2.19996    0.00969     3.20924
      C   11    0.21808      0.99953     1.76851    0.01388     2.78192
      N   12   -0.16830      0.99970     2.65551    0.01309     3.66830
      N   13    0.00040      0.99969     2.48541    0.01450     3.49960
      C   14    0.00169      0.99949     1.98523    0.01359     2.99831
      C   15   -0.08879      0.99954     2.08098    0.00827     3.08879
      C   16   -0.11698      0.99953     2.10980    0.00765     3.11698
      C   17    0.40554      0.99968     1.56922    0.02555     2.59446
      O   18   -0.30009      0.99987     3.29150    0.00872     4.30009
      O   19   -0.35795      0.99988     3.35224    0.00583     4.35795
      H   20    0.09925      0.00000     0.39996    0.00079     0.40075
      H   21    0.10050      0.00000     0.39860    0.00091     0.39950
      H   22    0.10169      0.00000     0.39746    0.00086     0.39831
      H   23    0.09804      0.00000     0.40115    0.00081     0.40196
      H   24    0.10125      0.00000     0.39785    0.00090     0.39875
      H   25    0.10087      0.00000     0.39832    0.00081     0.39913
      H   26    0.10139      0.00000     0.39771    0.00090     0.39861
      H   27    0.10004      0.00000     0.39893    0.00103     0.39996
      H   28    0.09799      0.00000     0.40117    0.00084     0.40201
      H   29    0.09852      0.00000     0.40045    0.00103     0.40148
      H   30    0.11876      0.00000     0.37904    0.00219     0.38124
      H   31    0.09618      0.00000     0.40164    0.00217     0.40382
      H   32    0.08741      0.00000     0.41125    0.00134     0.41259
      H   33    0.10071      0.00000     0.39788    0.00141     0.39929
      H   34    0.10148      0.00000     0.39727    0.00125     0.39852
      H   35    0.10529      0.00000     0.39346    0.00125     0.39471
      H   36    0.10571      0.00000     0.39318    0.00111     0.39429
      H   37    0.09537      0.00000     0.40326    0.00137     0.40463
      H   38    0.23235      0.00000     0.26432    0.00333     0.26765
 =======================================================================
   * Total *    0.00000     18.99270    50.77957    0.22773    70.00000

 Normal termination of Gaussian 16 at Mon Dec 14 18:34:01 2020.
