 Gaussian 16, Revision A.03,

 -----------------------------------------------------------
 # opt freq B3LYP/6-31G(d) empiricaldispersion=gd3bj scf=xqc
 -----------------------------------------------------------

 ------------------------------
 CID_66407747_JID_5901_neutraal
 ------------------------------
 Symbolic Z-matrix:
 Charge =  0 Multiplicity = 1

 SCF Done:  E(RB3LYP) =  -670.132803492     A.U. after   15 cycles
 SCF Done:  E(RB3LYP) =  -670.134265951     A.U. after   14 cycles
 SCF Done:  E(RB3LYP) =  -670.134404266     A.U. after   13 cycles
 SCF Done:  E(RB3LYP) =  -670.137836063     A.U. after   13 cycles
 SCF Done:  E(RB3LYP) =  -670.139288888     A.U. after   12 cycles
 SCF Done:  E(RB3LYP) =  -670.139870130     A.U. after   12 cycles
 SCF Done:  E(RB3LYP) =  -670.140113123     A.U. after   11 cycles
 SCF Done:  E(RB3LYP) =  -670.140302125     A.U. after   12 cycles
 SCF Done:  E(RB3LYP) =  -670.140483783     A.U. after   12 cycles
 SCF Done:  E(RB3LYP) =  -670.140577010     A.U. after   11 cycles
 SCF Done:  E(RB3LYP) =  -670.140711664     A.U. after    8 cycles
 SCF Done:  E(RB3LYP) =  -670.140711714     A.U. after    7 cycles
 SCF Done:  E(RB3LYP) =  -670.140711760     A.U. after    7 cycles
 SCF Done:  E(RB3LYP) =  -670.140711785     A.U. after    7 cycles
 SCF Done:  E(RB3LYP) =  -670.140711813     A.U. after    7 cycles
 Optimization completed.
    -- Stationary point found.
 Normal termination of Gaussian 16 at Thu Dec 10 17:44:47 2020.

 --------------------------------------------------------------------
 #N Geom=AllCheck Guess=TCheck SCRF=Check GenChk RB3LYP/6-31G(d) Freq
 --------------------------------------------------------------------

 Structure from the checkpoint file:  "JID_5901.chk"
 ------------------------------
 CID_66407747_JID_5901_neutraal
 ------------------------------
 Charge =  0 Multiplicity = 1

 SCF Done:  E(RB3LYP) =  -670.140711813     A.U. after    1 cycles

  Exact polarizability: 150.943   8.454 126.050   4.539  -6.628 123.272
 Approx polarizability: 198.209  19.349 188.298   5.724 -22.620 197.443

                      1                      2                      3
                      A                      A                      A
 Frequencies --     34.4960                44.0944                58.9323
 Red. masses --      4.2599                 3.8391                 3.1885
 Frc consts  --      0.0030                 0.0044                 0.0065
 IR Inten    --      0.4325                 3.0840                 0.5561

                      4                      5                      6
                      A                      A                      A
 Frequencies --     84.4440                94.0843               103.4442
 Red. masses --      3.8509                 3.6931                 3.4566
 Frc consts  --      0.0162                 0.0193                 0.0218
 IR Inten    --      3.1964                 3.5788                 0.2655

                      7                      8                      9
                      A                      A                      A
 Frequencies --    146.1390               192.2257               214.9988
 Red. masses --      4.1629                 2.4615                 1.7697
 Frc consts  --      0.0524                 0.0536                 0.0482
 IR Inten    --      2.6843                 2.5429                 0.5953

                     10                     11                     12
                      A                      A                      A
 Frequencies --    233.1277               255.5998               278.3069
 Red. masses --      1.9262                 1.6133                 1.0953
 Frc consts  --      0.0617                 0.0621                 0.0500
 IR Inten    --     13.5965                 2.6972                 3.3192

                     13                     14                     15
                      A                      A                      A
 Frequencies --    294.9525               313.6125               323.2018
 Red. masses --      1.2338                 1.6828                 2.2126
 Frc consts  --      0.0632                 0.0975                 0.1362
 IR Inten    --      2.4090                45.8952                 6.2522

                     16                     17                     18
                      A                      A                      A
 Frequencies --    354.9376               360.8071               387.6665
 Red. masses --      2.7531                 2.3423                 3.2729
 Frc consts  --      0.2044                 0.1797                 0.2898
 IR Inten    --      3.6610                 0.3859                 1.0828

                     19                     20                     21
                      A                      A                      A
 Frequencies --    407.1665               437.1977               459.7496
 Red. masses --      2.3242                 3.4070                 2.7134
 Frc consts  --      0.2270                 0.3837                 0.3379
 IR Inten    --      4.7113                 4.9914                 1.6731

                     22                     23                     24
                      A                      A                      A
 Frequencies --    529.2702               565.0359               585.8501
 Red. masses --      3.0403                 2.2553                 3.3935
 Frc consts  --      0.5018                 0.4242                 0.6862
 IR Inten    --     20.6489                 5.3490                 7.6521

                     25                     26                     27
                      A                      A                      A
 Frequencies --    617.0245               633.1339               689.5285
 Red. masses --      4.7670                 2.7519                 1.9431
 Frc consts  --      1.0693                 0.6499                 0.5443
 IR Inten    --      6.9948                 6.3716                31.5184

                     28                     29                     30
                      A                      A                      A
 Frequencies --    692.7607               700.0582               772.7738
 Red. masses --      1.3551                 2.1973                 3.6952
 Frc consts  --      0.3832                 0.6345                 1.3002
 IR Inten    --      4.6260                67.5268                 2.8820

                     31                     32                     33
                      A                      A                      A
 Frequencies --    793.3143               816.2676               839.0959
 Red. masses --      1.2982                 3.8632                 1.2969
 Frc consts  --      0.4814                 1.5166                 0.5380
 IR Inten    --     59.4461                 5.1445                 4.3481

                     34                     35                     36
                      A                      A                      A
 Frequencies --    859.2613               881.6370               933.5044
 Red. masses --      3.6320                 1.2864                 1.7339
 Frc consts  --      1.5800                 0.5891                 0.8902
 IR Inten    --     11.2189               100.0862                 1.8264

                     37                     38                     39
                      A                      A                      A
 Frequencies --    944.1768               980.6197               986.0386
 Red. masses --      1.7644                 1.2028                 2.7067
 Frc consts  --      0.9267                 0.6815                 1.5505
 IR Inten    --      1.5404                 0.8142                 8.8861

                     40                     41                     42
                      A                      A                      A
 Frequencies --    996.5786              1014.4753              1024.9811
 Red. masses --      2.4000                 1.7268                 2.3535
 Frc consts  --      1.4044                 1.0471                 1.4568
 IR Inten    --     13.8459                19.9070                 7.1530

                     43                     44                     45
                      A                      A                      A
 Frequencies --   1037.6743              1063.8660              1065.1976
 Red. masses --      2.9391                 2.3803                 1.4006
 Frc consts  --      1.8646                 1.5873                 0.9363
 IR Inten    --      8.8483                 2.0752                 1.2497

                     46                     47                     48
                      A                      A                      A
 Frequencies --   1074.8469              1101.8313              1180.4436
 Red. masses --      1.4420                 1.3022                 1.3956
 Frc consts  --      0.9815                 0.9314                 1.1458
 IR Inten    --      1.0544                16.8906                37.5730

                     49                     50                     51
                      A                      A                      A
 Frequencies --   1199.3803              1215.4022              1243.8442
 Red. masses --      1.3339                 1.3476                 2.1935
 Frc consts  --      1.1305                 1.1729                 1.9995
 IR Inten    --     11.3774                12.8057                29.0262

                     52                     53                     54
                      A                      A                      A
 Frequencies --   1264.3600              1269.9878              1287.8889
 Red. masses --      2.7369                 1.4967                 3.1076
 Frc consts  --      2.5778                 1.4223                 3.0369
 IR Inten    --     15.1916                 1.7075                27.9808

                     55                     56                     57
                      A                      A                      A
 Frequencies --   1323.3131              1359.1553              1382.5242
 Red. masses --      1.2477                 1.6562                 2.8086
 Frc consts  --      1.2873                 1.8026                 3.1629
 IR Inten    --      5.9081                50.2023                39.0520

                     58                     59                     60
                      A                      A                      A
 Frequencies --   1402.7150              1427.0340              1430.1102
 Red. masses --      4.0178                 1.2573                 1.2532
 Frc consts  --      4.6577                 1.5085                 1.5101
 IR Inten    --    121.4248                 8.3258                 6.8108

                     61                     62                     63
                      A                      A                      A
 Frequencies --   1434.6189              1450.5726              1455.7429
 Red. masses --      3.0669                 2.3004                 1.8370
 Frc consts  --      3.7190                 2.8519                 2.2936
 IR Inten    --      4.0533                33.0422                16.1191

                     64                     65                     66
                      A                      A                      A
 Frequencies --   1457.2014              1491.1649              1508.8641
 Red. masses --      1.5034                 1.3917                 1.0545
 Frc consts  --      1.8808                 1.8232                 1.4145
 IR Inten    --     57.2076                18.5818                 0.2870

                     67                     68                     69
                      A                      A                      A
 Frequencies --   1510.4141              1513.1569              1523.7500
 Red. masses --      1.1152                 1.0956                 1.1207
 Frc consts  --      1.4990                 1.4780                 1.5331
 IR Inten    --      3.4291                 4.7019                 3.5359

                     70                     71                     72
                      A                      A                      A
 Frequencies --   1538.4996              1539.5507              1540.5084
 Red. masses --      1.1063                 1.1166                 1.1012
 Frc consts  --      1.5428                 1.5594                 1.5397
 IR Inten    --      4.6834                 0.6801                 0.2301

                     73                     74                     75
                      A                      A                      A
 Frequencies --   1550.7973              1560.5956              1620.4990
 Red. masses --      1.8862                 1.1402                 5.0638
 Frc consts  --      2.6726                 1.6360                 7.8348
 IR Inten    --     27.2812                 4.7025                 9.4242

                     76                     77                     78
                      A                      A                      A
 Frequencies --   1688.2815              1767.2203              2957.5787
 Red. masses --      1.0973                 6.9229                 1.0735
 Frc consts  --      1.8427                12.7385                 5.5326
 IR Inten    --     27.5612               339.7764                80.5544

                     79                     80                     81
                      A                      A                      A
 Frequencies --   3039.7638              3047.7395              3055.7407
 Red. masses --      1.0876                 1.0374                 1.0394
 Frc consts  --      5.9211                 5.6775                 5.7185
 IR Inten    --     50.2703                14.9139                30.2750

                     82                     83                     84
                      A                      A                      A
 Frequencies --   3066.9966              3093.0269              3112.9810
 Red. masses --      1.0394                 1.0643                 1.1013
 Frc consts  --      5.7602                 5.9988                 6.2882
 IR Inten    --     14.8219                27.9515                 3.4227

                     85                     86                     87
                      A                      A                      A
 Frequencies --   3118.0586              3127.3260              3138.9351
 Red. masses --      1.1012                 1.1028                 1.1023
 Frc consts  --      6.3076                 6.3545                 6.3989
 IR Inten    --     42.1921                10.8093                37.2502

                     88                     89                     90
                      A                      A                      A
 Frequencies --   3156.4962              3169.4582              3176.2858
 Red. masses --      1.1014                 1.0974                 1.0972
 Frc consts  --      6.4653                 6.4951                 6.5217
 IR Inten    --     11.1112                 7.5679                 3.8562

                     91                     92                     93
                      A                      A                      A
 Frequencies --   3260.8259              3274.0677              3280.3454
 Red. masses --      1.0894                 1.0964                 1.1037
 Frc consts  --      6.8247                 6.9243                 6.9973
 IR Inten    --      1.7293                 0.1972                 3.0791

                     94                     95                     96
                      A                      A                      A
 Frequencies --   3455.4511              3545.9359              3562.9799
 Red. masses --      1.0493                 1.0928                 1.0747
 Frc consts  --      7.3819                 8.0957                 8.0385
 IR Inten    --      7.3206                 2.9189                14.2511

 - Thermochemistry -
 -------------------
 Temperature   298.150 Kelvin.  Pressure   1.00000 Atm.
 Atom     1 has atomic number  6 and mass  12.00000

 Molecular mass:   209.15281 amu.
 Principal axes and moments of inertia in atomic units:
                           1         2         3
     Eigenvalues --  2081.292154684.505235253.19945
           X            0.99966  -0.02026   0.01668
           Y            0.01948   0.99877   0.04552
           Z           -0.01758  -0.04518   0.99882
 This molecule is an asymmetric top.
 Rotational symmetry number  1.
 Warning -- assumption of classical behavior for rotation
           may cause significant error
 Rotational temperatures (Kelvin)      0.04162     0.01849     0.01649
 Rotational constants (GHZ):           0.86713     0.38526     0.34355
 Zero-point vibrational energy     783886.4 (Joules/Mol)
                                  187.35335 (Kcal/Mol)
 Warning -- explicit consideration of  25 degrees of freedom as
           vibrations may cause significant error
 Vibrational temperatures:     49.63    63.44    84.79   121.50   135.37
          (Kelvin)            148.83   210.26   276.57   309.34   335.42
                              367.75   400.42   424.37   451.22   465.02
                              510.68   519.12   557.77   585.82   629.03
                              661.48   761.50   812.96   842.91   887.76
                              910.94   992.08   996.73  1007.23  1111.85
                             1141.40  1174.43  1207.27  1236.29  1268.48
                             1343.10  1358.46  1410.89  1418.69  1433.85
                             1459.60  1474.72  1492.98  1530.67  1532.58
                             1546.46  1585.29  1698.40  1725.64  1748.69
                             1789.61  1819.13  1827.23  1852.98  1903.95
                             1955.52  1989.14  2018.19  2053.18  2057.61
                             2064.10  2087.05  2094.49  2096.59  2145.45
                             2170.92  2173.15  2177.10  2192.34  2213.56
                             2215.07  2216.45  2231.25  2245.35  2331.54
                             2429.06  2542.64  4255.30  4373.54  4385.02
                             4396.53  4412.72  4450.18  4478.89  4486.19
                             4499.52  4516.23  4541.49  4560.14  4569.97
                             4691.60  4710.65  4719.69  4971.62  5101.81
                             5126.33

 Zero-point correction=                           0.298567 (Hartree/Particle)
 Thermal correction to Energy=                    0.314712
 Thermal correction to Enthalpy=                  0.315656
 Thermal correction to Gibbs Free Energy=         0.254809
 Sum of electronic and zero-point Energies=           -669.842145
 Sum of electronic and thermal Energies=              -669.826000
 Sum of electronic and thermal Enthalpies=            -669.825056
 Sum of electronic and thermal Free Energies=         -669.885903

                     E (Thermal)             CV                S
                      KCal/Mol        Cal/Mol-Kelvin    Cal/Mol-Kelvin
 Total                  197.485             61.266            128.064
 Electronic               0.000              0.000              0.000
 Translational            0.889              2.981             41.918
 Rotational               0.889              2.981             32.304
 Vibrational            195.707             55.305             53.842
 Vibration     1          0.594              1.983              5.552
 Vibration     2          0.595              1.980              5.066
 Vibration     3          0.596              1.974              4.493
 Vibration     4          0.601              1.960              3.785
 Vibration     5          0.603              1.953              3.573
 Vibration     6          0.605              1.946              3.388
 Vibration     7          0.617              1.907              2.722
 Vibration     8          0.634              1.851              2.206
 Vibration     9          0.645              1.818              2.001
 Vibration    10          0.654              1.790              1.855
 Vibration    11          0.666              1.753              1.692
 Vibration    12          0.679              1.714              1.544
 Vibration    13          0.689              1.683              1.445
 Vibration    14          0.701              1.648              1.343
 Vibration    15          0.708              1.629              1.294
 Vibration    16          0.731              1.565              1.144
 Vibration    17          0.735              1.553              1.119
 Vibration    18          0.756              1.497              1.009
 Vibration    19          0.772              1.455              0.937
 Vibration    20          0.798              1.389              0.835
 Vibration    21          0.818              1.339              0.767
 Vibration    22          0.884              1.185              0.589
 Vibration    23          0.921              1.107              0.514
 Vibration    24          0.943              1.062              0.475
 Vibration    25          0.977              0.996              0.421

 Optimization completed.
    -- Stationary point found.
 Normal termination of Gaussian 16 at Thu Dec 10 17:57:35 2020.

 ----------------------------------------------------------------------
 # B3LYP/6-311++G(d,p) empiricaldispersion=gd3bj scf=xqc pop=npa geom=c
 heck
 ----------------------------------------------------------------------

 --------------------------------------
 CID_66407747_JID_5901_Energie_neutraal
 --------------------------------------
 Structure from the checkpoint file:  "JID_5901.chk"
 Charge =  0 Multiplicity = 1

 SCF Done:  E(RB3LYP) =  -670.341240135     A.U. after   16 cycles
 Normal termination of Gaussian 16 at Thu Dec 10 18:04:16 2020.

 ----------------------------------------------------------------------
 # B3LYP/6-311++G(d,p) empiricaldispersion=gd3bj scf=xqc pop=npa geom=c
 heck
 ----------------------------------------------------------------------

 ------------------------------------
 CID_66407747_JID_5901_Energie_kation
 ------------------------------------
 Structure from the checkpoint file:  "JID_5901.chk"
 Charge =  1 Multiplicity = 2

 SCF Done:  E(UB3LYP) =  -670.050132244     A.U. after   29 cycles
 Normal termination of Gaussian 16 at Thu Dec 10 18:21:14 2020.
 Gaussian 16:  ES64L-G16RevA.03 25-Dec-2016

 ----------------------------------------------------------------------
 # B3LYP/6-311++G(d,p) empiricaldispersion=gd3bj scf=xqc pop=npa geom=c
 heck
 ----------------------------------------------------------------------

 -----------------------------------
 CID_66407747_JID_5901_Energie_anion
 -----------------------------------
 Structure from the checkpoint file:  "JID_5901.chk"
 Charge = -1 Multiplicity = 2

                         Standard orientation:
 ---------------------------------------------------------------------
 Center     Atomic      Atomic             Coordinates (Angstroms)
 Number     Number       Type             X           Y           Z
 ---------------------------------------------------------------------
      1          6           0        2.281870   -0.887338    1.504347
      2          6           0        2.136333   -1.028582   -0.017337
      3          6           0        3.357144   -1.796316   -0.553907
      4          6           0        0.849716   -1.796920   -0.368893
      5          7           0        2.176669    0.279866   -0.714294
      6          6           0        1.529607    1.476805   -0.575001
      7          8           0        1.591902    2.320393   -1.465387
      8          6           0        0.726612    1.800084    0.690908
      9          7           0       -0.547385    1.102722    0.706854
     10          6           0       -1.106612    0.449145    1.785867
     11          6           0       -2.304561   -0.098303    1.383214
     12          6           0       -2.489748    0.238196    0.007139
     13          6           0       -1.389644    0.978984   -0.377219
     14          6           0       -3.648637   -0.152851   -0.859688
     15          7           0       -3.899513   -1.599717   -0.759335
     16          1           0        2.498321   -1.870032    1.935650
     17          1           0        1.363120   -0.530795    1.971821
     18          1           0        3.106795   -0.213609    1.758372
     19          1           0        3.394620   -2.798550   -0.117049
     20          1           0        3.302018   -1.910191   -1.643612
     21          1           0        4.287156   -1.273456   -0.306777
     22          1           0       -0.039697   -1.281148   -0.003049
     23          1           0        0.761234   -1.912509   -1.454788
     24          1           0        0.875128   -2.797062    0.079093
     25          1           0        2.589009    0.234601   -1.640249
     26          1           0        1.271874    1.543864    1.599784
     27          1           0        0.573723    2.882533    0.667808
     28          1           0       -0.608824    0.447807    2.744977
     29          1           0       -2.980465   -0.686294    1.987518
     30          1           0       -1.127946    1.424112   -1.326405
     31          1           0       -4.563307    0.352917   -0.520865
     32          1           0       -3.459047    0.205214   -1.887533
     33          1           0       -4.664730   -1.858049   -1.381291
     34          1           0       -3.075087   -2.100020   -1.089474
 ---------------------------------------------------------------------

 SCF Done:  E(UB3LYP) =  -670.330203852     A.U. after   33 cycles
 SCF Done:  E(UB3LYP) =  -670.330203851     a.u. after    1 cycles

 The electronic state is 2-A.
 Alpha  occ. eigenvalues --  -19.00040 -14.27441 -14.24287 -14.19990 -10.18812
 Alpha  occ. eigenvalues --  -10.13483 -10.13320 -10.10474 -10.10114 -10.09603
 Alpha  occ. eigenvalues --  -10.07077 -10.06999 -10.06765 -10.06318 -10.05997
 Alpha  occ. eigenvalues --   -0.95278  -0.89803  -0.83324  -0.79036  -0.72296
 Alpha  occ. eigenvalues --   -0.70264  -0.64420  -0.62743  -0.60186  -0.59650
 Alpha  occ. eigenvalues --   -0.56733  -0.51975  -0.48072  -0.47496  -0.46112
 Alpha  occ. eigenvalues --   -0.43639  -0.40042  -0.39806  -0.37945  -0.36501
 Alpha  occ. eigenvalues --   -0.36252  -0.35702  -0.34512  -0.33994  -0.33340
 Alpha  occ. eigenvalues --   -0.32619  -0.31126  -0.30896  -0.29560  -0.29151
 Alpha  occ. eigenvalues --   -0.28831  -0.27797  -0.27679  -0.27259  -0.26896
 Alpha  occ. eigenvalues --   -0.25031  -0.24304  -0.17575  -0.16422  -0.15714
 Alpha  occ. eigenvalues --   -0.14191  -0.12794   0.04088
 Alpha virt. eigenvalues --    0.05758   0.06690   0.07826   0.08373   0.08546
 Alpha virt. eigenvalues --    0.08758   0.09029   0.09326   0.10128   0.10411
 Alpha virt. eigenvalues --    0.10708   0.11218   0.11892   0.12202   0.12966

  Beta  occ. eigenvalues --  -19.00034 -14.27442 -14.24274 -14.19961 -10.18808
  Beta  occ. eigenvalues --  -10.13481 -10.13304 -10.10461 -10.10102 -10.09595
  Beta  occ. eigenvalues --  -10.07078 -10.06953 -10.06718 -10.06312 -10.05969
  Beta  occ. eigenvalues --   -0.95267  -0.89798  -0.83305  -0.78989  -0.72279
  Beta  occ. eigenvalues --   -0.70233  -0.64396  -0.62714  -0.60110  -0.59588
  Beta  occ. eigenvalues --   -0.56689  -0.51929  -0.48042  -0.47464  -0.46084
  Beta  occ. eigenvalues --   -0.43607  -0.40002  -0.39774  -0.37912  -0.36470
  Beta  occ. eigenvalues --   -0.36211  -0.35667  -0.34481  -0.33959  -0.33312
  Beta  occ. eigenvalues --   -0.32596  -0.31100  -0.30865  -0.29514  -0.29123
  Beta  occ. eigenvalues --   -0.28793  -0.27765  -0.27654  -0.27235  -0.26869
  Beta  occ. eigenvalues --   -0.24991  -0.24263  -0.17566  -0.16401  -0.15690
  Beta  occ. eigenvalues --   -0.14177  -0.12778
  Beta virt. eigenvalues --    0.06204   0.06721   0.07396   0.08266   0.08717
  Beta virt. eigenvalues --    0.08911   0.09223   0.09442   0.09589   0.10476
  Beta virt. eigenvalues --    0.10715   0.11171   0.11501   0.12192   0.12506

 Mulliken charges and spin densities:
               1          2
     1  C    1.464002  -1.989917
     2  C   -2.388404   2.569601
     3  C    1.044026  -1.493323
     4  C    0.157935  -0.903116
     5  N    0.033243  -0.061158
     6  C    0.017829  -0.188527
     7  O   -0.295282   0.013053
     8  C    0.360081  -0.367337
     9  N    0.250083  -0.075390
    10  C   -0.134947  -0.103778
    11  C   -0.636767   0.600126
    12  C   -0.137628   0.515631
    13  C   -0.847533   0.451118
    14  C    1.380517  -2.288929
    15  N   -0.392770   0.035806
    16  H   -0.204708   0.361714
    17  H    0.074718  -0.011115
    18  H   -0.396755   0.577269
    19  H   -0.106622   0.260169
    20  H   -0.360846   0.503666
    21  H   -0.242915   0.418658
    22  H    0.856042  -0.599683
    23  H   -0.310178   0.467641
    24  H   -0.147973   0.291665
    25  H    0.158174   0.136447
    26  H    0.070270   0.078716
    27  H    0.050172   0.192718
    28  H   -0.436186   0.605232
    29  H    0.012599   0.163344
    30  H    0.182500   0.020350
    31  H    0.056267   0.092652
    32  H   -0.174039   0.329901
    33  H   -0.007279   0.229852
    34  H    0.052373   0.166946
 Sum of Mulliken charges =  -1.00000   1.00000

 Dipole moment (field-independent basis, Debye):
    X=             -2.4812    Y=              3.0329    Z=              0.5072  Tot=              3.9512
 Quadrupole moment (field-independent basis, Debye-Ang):
   XX=           -166.9228   YY=           -140.2572   ZZ=           -136.2946
   XY=             -1.3445   XZ=             -3.4538   YZ=              2.4744

 Summary of Natural Population Analysis:

                                       Natural Population
                Natural  -----------------------------------------------
    Atom  No    Charge         Core      Valence    Rydberg      Total
 -----------------------------------------------------------------------
      C    1   -0.29123      0.99961     2.28419    0.00743     3.29123
      C    2    0.05545      0.99958     1.93220    0.01277     2.94455
      C    3   -0.28500      0.99962     2.27822    0.00715     3.28500
      C    4   -0.28885      0.99960     2.28171    0.00753     3.28885
      N    5   -0.32011      0.99964     2.80877    0.01170     3.82011
      C    6    0.34026      0.99968     1.63846    0.02160     2.65974
      O    7   -0.32415      0.99988     3.31836    0.00590     4.32415
      C    8   -0.11874      0.99957     2.10850    0.01067     3.11874
      N    9   -0.20696      0.99965     2.69735    0.00996     3.70696
      C   10   -0.01939      0.99956     2.00772    0.01211     3.01939
      C   11   -0.13762      0.99952     2.12956    0.00855     3.13762
      C   12   -0.06133      0.99953     2.05074    0.01107     3.06133
      C   13   -0.01748      0.99949     2.00777    0.01023     3.01748
      C   14   -0.09394      0.99959     2.08243    0.01191     3.09394
      N   15   -0.41926      0.99978     2.90916    0.01032     3.91926
      H   16    0.10750      0.00000     0.39109    0.00141     0.39250
      H   17    0.10062      0.00000     0.39721    0.00217     0.39938
      H   18    0.10427      0.00000     0.39408    0.00165     0.39573
      H   19    0.10610      0.00000     0.39248    0.00142     0.39390
      H   20    0.10019      0.00000     0.39821    0.00160     0.39981
      H   21    0.10402      0.00000     0.39461    0.00137     0.39598
      H   22    0.10837      0.00000     0.38870    0.00292     0.39163
      H   23    0.10091      0.00000     0.39758    0.00150     0.39909
      H   24    0.10163      0.00000     0.39725    0.00112     0.39837
      H   25    0.19516      0.00000     0.30215    0.00270     0.30484
      H   26    0.11155      0.00000     0.38698    0.00147     0.38845
      H   27    0.10732      0.00000     0.39160    0.00108     0.39268
      H   28    0.10217      0.00000     0.39665    0.00118     0.39783
      H   29    0.10989      0.00000     0.38924    0.00087     0.39011
      H   30    0.10814      0.00000     0.39059    0.00127     0.39186
      H   31    0.09099      0.00000     0.40786    0.00115     0.40901
      H   32    0.08265      0.00000     0.41578    0.00157     0.41735
      H   33    0.17246      0.00000     0.32543    0.00211     0.32754
      H   34    0.17438      0.00000     0.32326    0.00236     0.32562
 =======================================================================
   * Total *    0.00000     14.99429    41.81591    0.18981    57.00000

 Normal termination of Gaussian 16 at Thu Dec 10 18:39:57 2020.
