 Gaussian 16, Revision A.03,

 -----------------------------------------------------------
 # opt freq B3LYP/6-31G(d) empiricaldispersion=gd3bj scf=xqc
 -----------------------------------------------------------

 -----------------------------
 CID_87124475_JID_528_neutraal
 -----------------------------
 Symbolic Z-matrix:
 Charge =  0 Multiplicity = 1

 SCF Done:  E(RB3LYP) =  -462.485472132     A.U. after   14 cycles
 SCF Done:  E(RB3LYP) =  -462.487253151     A.U. after   11 cycles
 SCF Done:  E(RB3LYP) =  -462.487504880     A.U. after   11 cycles
 SCF Done:  E(RB3LYP) =  -462.487615758     A.U. after   11 cycles
 SCF Done:  E(RB3LYP) =  -462.487701766     A.U. after   10 cycles
 SCF Done:  E(RB3LYP) =  -462.487703201     A.U. after   10 cycles
 SCF Done:  E(RB3LYP) =  -462.487761289     A.U. after    9 cycles
 SCF Done:  E(RB3LYP) =  -462.487862690     A.U. after   12 cycles
 SCF Done:  E(RB3LYP) =  -462.487888285     A.U. after   11 cycles
 SCF Done:  E(RB3LYP) =  -462.487945142     A.U. after   12 cycles
 SCF Done:  E(RB3LYP) =  -462.488385426     A.U. after   10 cycles
 SCF Done:  E(RB3LYP) =  -462.488386587     A.U. after   10 cycles
 SCF Done:  E(RB3LYP) =  -462.488387986     A.U. after    9 cycles
 SCF Done:  E(RB3LYP) =  -462.488388212     A.U. after    8 cycles
 SCF Done:  E(RB3LYP) =  -462.488388276     A.U. after    8 cycles
 SCF Done:  E(RB3LYP) =  -462.488388296     A.U. after    7 cycles
 Optimization completed.
    -- Stationary point found.

 1\1\GINC-NODE372\FOpt\RB3LYP\6-31G(d)\C8H12O2\VSC10255\08-Dec-2020\0\\
 # opt freq B3LYP/6-31G(d) empiricaldispersion=gd3bj scf=xqc\\CID_87124
 475_JID_528_neutraal\\0,1\C,0.3270508414,-0.3761104905,-0.097231688\O,
 0.2156767264,-0.5734773112,1.3211188284\C,1.1316569592,-1.4093351418,1
 .8570456945\O,1.9962076953,-1.9657890475,1.2079962941\C,0.9743415537,-
 1.579244831,3.3217956221\C,0.0343447738,-0.9802117001,4.0561822158\C,0
 .6206633803,-0.394797098,-3.6554538737\C,0.1103801704,0.7856869442,-3.
 2769528855\C,-1.3049583705,1.0201590005,-3.0231119626\C,-1.8125753792,

 Normal termination of Gaussian 16 at Tue Dec  8 12:40:39 2020.

 --------------------------------------------------------------------
 #N Geom=AllCheck Guess=TCheck SCRF=Check GenChk RB3LYP/6-31G(d) Freq
 --------------------------------------------------------------------

 Structure from the checkpoint file:  "JID_528.chk"
 -----------------------------
 CID_87124475_JID_528_neutraal
 -----------------------------
 Charge =  0 Multiplicity = 1

 SCF Done:  E(RB3LYP) =  -462.488388296     A.U. after    1 cycles

  Exact polarizability:  83.069   0.910 127.404   1.898   5.025  62.933
 Approx polarizability:  95.895   3.522 223.720   3.845  15.504  92.480

                      1                      2                      3
                      A                      A                      A
 Frequencies --     13.2266                24.9795                25.6718
 Red. masses --      4.0504                 3.9933                 3.0725
 Frc consts  --      0.0004                 0.0015                 0.0012
 IR Inten    --      1.5111                 0.7501                 0.0468

                      4                      5                      6
                      A                      A                      A
 Frequencies --     41.1040                54.0435                66.3851
 Red. masses --      3.8101                 1.9841                 4.7495
 Frc consts  --      0.0038                 0.0034                 0.0123
 IR Inten    --      0.1185                 0.0024                 0.1957

                      7                      8                      9
                      A                      A                      A
 Frequencies --    100.8057               157.1077               180.9037
 Red. masses --      2.5331                 1.1793                 2.6665
 Frc consts  --      0.0152                 0.0172                 0.0514
 IR Inten    --      0.0925                 0.5027                 0.2963

                     10                     11                     12
                      A                      A                      A
 Frequencies --    187.6631               226.2333               296.7447
 Red. masses --      2.2856                 3.1732                 2.1628
 Frc consts  --      0.0474                 0.0957                 0.1122
 IR Inten    --      4.6510                 1.8499                 2.2334

                     13                     14                     15
                      A                      A                      A
 Frequencies --    343.5753               508.7627               517.5019
 Red. masses --      3.8248                 1.6481                 2.6491
 Frc consts  --      0.2660                 0.2513                 0.4180
 IR Inten    --     16.4239                 0.3895                 0.1093

                     16                     17                     18
                      A                      A                      A
 Frequencies --    529.5533               542.2095               634.2618
 Red. masses --      4.6975                 1.0801                 3.4167
 Frc consts  --      0.7761                 0.1871                 0.8098
 IR Inten    --      5.7563                 9.8560                 1.5569

                     19                     20                     21
                      A                      A                      A
 Frequencies --    782.5409               821.8496               868.9458
 Red. masses --      1.6635                 4.1459                 4.7228
 Frc consts  --      0.6002                 1.6499                 2.1010
 IR Inten    --      0.0556                22.5693                10.8417

                     22                     23                     24
                      A                      A                      A
 Frequencies --    908.3086               931.9301               936.7206
 Red. masses --      1.8136                 1.3632                 1.3472
 Frc consts  --      0.8816                 0.6975                 0.6965
 IR Inten    --      0.0672                83.5639                12.4884

                     25                     26                     27
                      A                      A                      A
 Frequencies --    988.6779               999.1779              1003.2252
 Red. masses --      1.3696                 1.9679                 1.1770
 Frc consts  --      0.7888                 1.1576                 0.6980
 IR Inten    --     25.6265                 1.7844                 0.0587

                     28                     29                     30
                      A                      A                      A
 Frequencies --   1011.1664              1036.9482              1064.5267
 Red. masses --      1.1985                 1.0769                 1.0920
 Frc consts  --      0.7220                 0.6822                 0.7291
 IR Inten    --      2.0887                18.3084                39.6369

                     31                     32                     33
                      A                      A                      A
 Frequencies --   1105.0331              1183.7747              1218.4074
 Red. masses --      3.0862                 1.2699                 1.4669
 Frc consts  --      2.2203                 1.0484                 1.2830
 IR Inten    --    134.4735                 0.4935                14.6069

                     34                     35                     36
                      A                      A                      A
 Frequencies --   1241.5711              1318.9017              1322.4982
 Red. masses --      1.9494                 4.1509                 1.3395
 Frc consts  --      1.7705                 4.2542                 1.3803
 IR Inten    --      0.0425               333.8527                 1.4096

                     37                     38                     39
                      A                      A                      A
 Frequencies --   1329.9623              1332.1421              1435.7075
 Red. masses --      1.3543                 1.2796                 1.2534
 Frc consts  --      1.4114                 1.3379                 1.5222
 IR Inten    --      0.0782                 2.2308                 3.6649

                     40                     41                     42
                      A                      A                      A
 Frequencies --   1456.5157              1492.4253              1496.7543
 Red. masses --      1.2212                 1.2418                 1.2198
 Frc consts  --      1.5264                 1.6296                 1.6101
 IR Inten    --     17.5474                29.7715                 0.1718

                     43                     44                     45
                      A                      A                      A
 Frequencies --   1514.2804              1521.1903              1676.4770
 Red. masses --      1.0490                 1.0442                 3.5213
 Frc consts  --      1.4172                 1.4237                 5.8311
 IR Inten    --      2.4886                 6.6971                10.6148

                     46                     47                     48
                      A                      A                      A
 Frequencies --   1706.4892              1729.9098              1809.2227
 Red. masses --      4.5916                 4.4556                10.1509
 Frc consts  --      7.8781                 7.8561                19.5767
 IR Inten    --     14.3785                 0.5710               213.8444

                     49                     50                     51
                      A                      A                      A
 Frequencies --   3082.6453              3148.8848              3155.5779
 Red. masses --      1.0304                 1.0820                 1.1056
 Frc consts  --      5.7690                 6.3210                 6.4866
 IR Inten    --     29.7697                 0.1101                 8.7272

                     52                     53                     54
                      A                      A                      A
 Frequencies --   3159.6483              3165.4640              3166.6493
 Red. masses --      1.0837                 1.0682                 1.0671
 Frc consts  --      6.3745                 6.3063                 6.3044
 IR Inten    --     35.2609                 6.0159                 0.1553

                     55                     56                     57
                      A                      A                      A
 Frequencies --   3178.2034              3198.3857              3213.1716
 Red. masses --      1.0589                 1.1067                 1.0941
 Frc consts  --      6.3022                 6.6700                 6.6553
 IR Inten    --      6.0909                 7.2503                 4.5211

                     58                     59                     60
                      A                      A                      A
 Frequencies --   3249.4675              3250.8501              3267.4756
 Red. masses --      1.1157                 1.1154                 1.1160
 Frc consts  --      6.9407                 6.9451                 7.0199
 IR Inten    --     10.2593                15.4257                 6.9195

 - Thermochemistry -
 -------------------
 Temperature   298.150 Kelvin.  Pressure   1.00000 Atm.
 Atom     1 has atomic number  6 and mass  12.00000

 Molecular mass:   140.08373 amu.
 Principal axes and moments of inertia in atomic units:
                           1         2         3
     Eigenvalues --   757.482624343.583724999.19432
           X            0.99997  -0.00762   0.00068
           Y            0.00761   0.99996   0.00421
           Z           -0.00071  -0.00421   0.99999
 This molecule is an asymmetric top.
 Rotational symmetry number  1.
 Warning -- assumption of classical behavior for rotation
           may cause significant error
 Rotational temperatures (Kelvin)      0.11434     0.01994     0.01733
 Rotational constants (GHZ):           2.38255     0.41550     0.36101
 Zero-point vibrational energy     478102.1 (Joules/Mol)
                                  114.26916 (Kcal/Mol)
 Warning -- explicit consideration of  17 degrees of freedom as
           vibrations may cause significant error
 Vibrational temperatures:     19.03    35.94    36.94    59.14    77.76
          (Kelvin)             95.51   145.04   226.04   260.28   270.01
                              325.50   426.95   494.33   732.00   744.57
                              761.91   780.12   912.56  1125.90  1182.46
                             1250.22  1306.85  1340.84  1347.73  1422.49
                             1437.59  1443.42  1454.84  1491.94  1531.62
                             1589.90  1703.19  1753.02  1786.34  1897.61
                             1902.78  1913.52  1916.66  2065.66  2095.60
                             2147.27  2153.50  2178.71  2188.65  2412.08
                             2455.26  2488.95  2603.07  4435.24  4530.54
                             4540.17  4546.03  4554.40  4556.10  4572.73
                             4601.76  4623.04  4675.26  4677.25  4701.17

 Zero-point correction=                           0.182099 (Hartree/Particle)
 Thermal correction to Energy=                    0.195644
 Thermal correction to Enthalpy=                  0.196588
 Thermal correction to Gibbs Free Energy=         0.136919
 Sum of electronic and zero-point Energies=           -462.306289
 Sum of electronic and thermal Energies=              -462.292744
 Sum of electronic and thermal Enthalpies=            -462.291800
 Sum of electronic and thermal Free Energies=         -462.351469

                     E (Thermal)             CV                S
                      KCal/Mol        Cal/Mol-Kelvin    Cal/Mol-Kelvin
 Total                  122.768             43.633            125.585
 Electronic               0.000              0.000              0.000
 Translational            0.889              2.981             40.723
 Rotational               0.889              2.981             31.176
 Vibrational            120.991             37.671             53.686
 Vibration     1          0.593              1.987              7.455
 Vibration     2          0.593              1.985              6.193
 Vibration     3          0.593              1.985              6.139
 Vibration     4          0.594              1.981              5.205
 Vibration     5          0.596              1.976              4.664
 Vibration     6          0.598              1.970              4.258
 Vibration     7          0.604              1.948              3.439
 Vibration     8          0.621              1.895              2.584
 Vibration     9          0.630              1.866              2.319
 Vibration    10          0.632              1.857              2.251
 Vibration    11          0.650              1.801              1.909
 Vibration    12          0.690              1.680              1.435
 Vibration    13          0.722              1.588              1.195
 Vibration    14          0.864              1.231              0.637
 Vibration    15          0.873              1.211              0.616
 Vibration    16          0.885              1.185              0.588
 Vibration    17          0.897              1.157              0.561

                           ! Non-Optimized Parameters !

 1\1\GINC-NODE372\Freq\RB3LYP\6-31G(d)\C8H12O2\VSC10255\08-Dec-2020\0\\
 #N Geom=AllCheck Guess=TCheck SCRF=Check GenChk RB3LYP/6-31G(d) Freq\\
 CID_87124475_JID_528_neutraal\\0,1\C,0.3270508414,-0.3761104905,-0.097
 231688\O,0.2156767264,-0.5734773112,1.3211188284\C,1.1316569592,-1.409
 3351418,1.8570456945\O,1.9962076953,-1.9657890475,1.2079962941\C,0.974
 3415537,-1.579244831,3.3217956221\C,0.0343447738,-0.9802117001,4.05618
 22158\C,0.6206633803,-0.394797098,-3.6554538737\C,0.1103801704,0.78568
 69442,-3.2769528855\C,-1.3049583705,1.0201590005,-3.0231119626\C,-1.81

 Normal termination of Gaussian 16 at Tue Dec  8 12:43:41 2020.

 ----------------------------------------------------------------------
 # B3LYP/6-311++G(d,p) empiricaldispersion=gd3bj scf=xqc pop=npa geom=c
 heck
 ----------------------------------------------------------------------

 -------------------------------------
 CID_87124475_JID_528_Energie_neutraal
 -------------------------------------
 Structure from the checkpoint file:  "JID_528.chk"
 Charge =  0 Multiplicity = 1

 SCF Done:  E(RB3LYP) =  -462.631572216     A.U. after   14 cycles
 Normal termination of Gaussian 16 at Tue Dec  8 12:51:26 2020.

 ----------------------------------------------------------------------
 # B3LYP/6-311++G(d,p) empiricaldispersion=gd3bj scf=xqc pop=npa geom=c
 heck
 ----------------------------------------------------------------------

 -----------------------------------
 CID_87124475_JID_528_Energie_kation
 -----------------------------------
 Structure from the checkpoint file:  "JID_528.chk"
 Charge =  1 Multiplicity = 2

 SCF Done:  E(UB3LYP) =  -462.308310352     A.U. after   30 cycles
 Normal termination of Gaussian 16 at Tue Dec  8 13:04:05 2020.
 Gaussian 16:  ES64L-G16RevA.03 25-Dec-2016

 ----------------------------------
 CID_87124475_JID_528_Energie_anion
 ----------------------------------
 Structure from the checkpoint file:  "JID_528.chk"
 Charge = -1 Multiplicity = 2

                         Standard orientation:
 ---------------------------------------------------------------------
 Center     Atomic      Atomic             Coordinates (Angstroms)
 Number     Number       Type             X           Y           Z
 ---------------------------------------------------------------------
      1          6           0       -0.052914   -0.108371    0.028666
      2          8           0       -1.386405    0.423486   -0.016136
      3          6           0       -2.372924   -0.497711    0.039295
      4          8           0       -2.172682   -1.694196    0.121029
      5          6           0       -3.728622    0.101262   -0.009943
      6          6           0       -3.974524    1.410169   -0.099691
      7          6           0        3.108207   -1.747992   -0.229131
      8          6           0        3.294384   -0.554114    0.351546
      9          6           0        3.463112    0.693470   -0.381708
     10          6           0        3.616104    1.892719    0.197576
     11          1           0        0.613599    0.751270   -0.022860
     12          1           0        0.122940   -0.780355   -0.814693
     13          1           0        0.108958   -0.664540    0.954991
     14          1           0       -4.527853   -0.632517    0.034152
     15          1           0       -4.990972    1.791775   -0.132087
     16          1           0       -3.167281    2.133972   -0.143085
     17          1           0        3.079865   -1.854042   -1.311303
     18          1           0        2.979054   -2.654756    0.353164
     19          1           0        3.317951   -0.482526    1.439089
     20          1           0        3.453927    0.618661   -1.469330
     21          1           0        3.735492    2.799824   -0.386510
     22          1           0        3.630080    2.002324    1.279660
 ---------------------------------------------------------------------

 SCF Done:  E(UB3LYP) =  -462.633677260     A.U. after   26 cycles

 The electronic state is 2-A.
 Alpha  occ. eigenvalues --  -19.01771 -18.95039 -10.13641 -10.08158 -10.04418
 Alpha  occ. eigenvalues --  -10.04233 -10.03193 -10.03017 -10.02992 -10.02564
 Alpha  occ. eigenvalues --   -0.95628  -0.86609  -0.67608  -0.64698  -0.60481
 Alpha  occ. eigenvalues --   -0.57760  -0.48078  -0.47770  -0.42620  -0.41786
 Alpha  occ. eigenvalues --   -0.36061  -0.34039  -0.33925  -0.33463  -0.32981
 Alpha  occ. eigenvalues --   -0.30034  -0.28101  -0.26716  -0.25998  -0.25847
 Alpha  occ. eigenvalues --   -0.23275  -0.22025  -0.21674  -0.20059  -0.16512
 Alpha  occ. eigenvalues --   -0.14485  -0.13066  -0.11465   0.05100
 Alpha virt. eigenvalues --    0.06722   0.08901   0.09480   0.09941   0.10303
 Alpha virt. eigenvalues --    0.11856   0.12268   0.12438   0.12920   0.13835
 Alpha virt. eigenvalues --    0.14450   0.15110   0.15994   0.16974   0.17276

  Beta  occ. eigenvalues --  -19.01743 -18.94789 -10.13481 -10.08160 -10.04333
  Beta  occ. eigenvalues --  -10.04161 -10.02979 -10.02920 -10.02760 -10.02245
  Beta  occ. eigenvalues --   -0.95439  -0.86262  -0.67218  -0.64202  -0.60068
  Beta  occ. eigenvalues --   -0.57589  -0.47363  -0.47134  -0.42387  -0.41623
  Beta  occ. eigenvalues --   -0.35922  -0.33774  -0.33684  -0.33307  -0.32631
  Beta  occ. eigenvalues --   -0.29887  -0.27945  -0.26570  -0.25833  -0.25038
  Beta  occ. eigenvalues --   -0.23076  -0.21889  -0.21564  -0.19017  -0.15860
  Beta  occ. eigenvalues --   -0.12853  -0.12821  -0.10046
  Beta virt. eigenvalues --    0.08793   0.09189   0.09495   0.09926   0.10086
  Beta virt. eigenvalues --    0.10215   0.11801   0.12193   0.12426   0.12823
  Beta virt. eigenvalues --    0.14024   0.14480   0.14995   0.16066   0.17102

 Mulliken charges and spin densities:
               1          2
     1  C   -0.340699  -0.022664
     2  O   -0.121304   0.003896
     3  C   -0.037552   0.101677
     4  O   -0.351996   0.075981
     5  C    0.160252   0.027595
     6  C   -0.705171   0.346298
     7  C   -0.624445   0.239579
     8  C    0.164277   0.022840
     9  C    0.086513   0.010493
    10  C   -0.662609   0.248220
    11  H    0.211864  -0.013116
    12  H    0.162354   0.018048
    13  H    0.149112   0.017064
    14  H    0.147675  -0.007081
    15  H    0.078189  -0.016464
    16  H    0.125741  -0.012786
    17  H    0.082712  -0.008894
    18  H    0.094769  -0.005954
    19  H    0.103287  -0.000056
    20  H    0.101945  -0.002702
    21  H    0.092668  -0.010519
    22  H    0.082419  -0.011454
 Sum of Mulliken charges =  -1.00000   1.00000

 Dipole moment (field-independent basis, Debye):
    X=              0.8402    Y=              0.9855    Z=             -0.1162  Tot=              1.3002
 Quadrupole moment (field-independent basis, Debye-Ang):
   XX=           -123.9115   YY=            -83.3646   ZZ=            -66.6258
   XY=             -1.2854   XZ=              0.2444   YZ=             -0.6232

 Summary of Natural Population Analysis:

                                       Natural Population
                Natural  -----------------------------------------------
    Atom  No    Charge         Core      Valence    Rydberg      Total
 -----------------------------------------------------------------------
      C    1   -0.10573      0.99961     2.09716    0.00895     3.10573
      O    2   -0.28580      0.99986     3.27714    0.00880     4.28580
      C    3    0.40217      0.99967     1.57468    0.02348     2.59783
      O    4   -0.29962      0.99987     3.29357    0.00618     4.29962
      C    5   -0.14058      0.99953     2.13047    0.01058     3.14058
      C    6   -0.10606      0.99960     2.09839    0.00807     3.10606
      C    7   -0.14473      0.99959     2.13699    0.00815     3.14473
      C    8   -0.10550      0.99956     2.09552    0.01042     3.10550
      C    9   -0.09865      0.99956     2.08888    0.01021     3.09865
      C   10   -0.15699      0.99959     2.14902    0.00838     3.15699
      H   11    0.09467      0.00000     0.40448    0.00086     0.40533
      H   12    0.08929      0.00000     0.40961    0.00110     0.41071
      H   13    0.08785      0.00000     0.41099    0.00115     0.41215
      H   14    0.09166      0.00000     0.40725    0.00109     0.40834
      H   15    0.07915      0.00000     0.41971    0.00114     0.42085
      H   16    0.09184      0.00000     0.40706    0.00110     0.40816
      H   17    0.08198      0.00000     0.41690    0.00112     0.41802
      H   18    0.08625      0.00000     0.41277    0.00098     0.41375
      H   19    0.08600      0.00000     0.41226    0.00174     0.41400
      H   20    0.08577      0.00000     0.41254    0.00170     0.41423
      H   21    0.08488      0.00000     0.41415    0.00098     0.41512
      H   22    0.08218      0.00000     0.41673    0.00109     0.41782
 =======================================================================
   * Total *    0.00000      9.99646    27.88628    0.11727    38.00000

 Normal termination of Gaussian 16 at Tue Dec  8 13:08:40 2020.
