 Gaussian 16, Revision A.03,

 -----------------------------------------------------------
 # opt freq B3LYP/6-31G(d) empiricaldispersion=gd3bj scf=xqc
 -----------------------------------------------------------

 ------------------------------
 CID_23239584_JID_4801_neutraal
 ------------------------------
 Symbolic Z-matrix:
 Charge =  0 Multiplicity = 1

 SCF Done:  E(RB3LYP) =  -632.218243933     A.U. after   15 cycles
 SCF Done:  E(RB3LYP) =  -632.222829884     A.U. after   12 cycles
 SCF Done:  E(RB3LYP) =  -632.223433170     A.U. after   11 cycles
 SCF Done:  E(RB3LYP) =  -632.223658980     A.U. after   11 cycles
 SCF Done:  E(RB3LYP) =  -632.223923826     A.U. after   12 cycles
 SCF Done:  E(RB3LYP) =  -632.224011523     A.U. after   11 cycles
 SCF Done:  E(RB3LYP) =  -632.224054722     A.U. after   10 cycles
 SCF Done:  E(RB3LYP) =  -632.224168964     A.U. after   11 cycles
 SCF Done:  E(RB3LYP) =  -632.224288541     A.U. after   12 cycles
 SCF Done:  E(RB3LYP) =  -632.224329791     A.U. after   11 cycles
 SCF Done:  E(RB3LYP) =  -632.224361670     A.U. after   10 cycles
 SCF Done:  E(RB3LYP) =  -632.224365077     A.U. after    9 cycles
 SCF Done:  E(RB3LYP) =  -632.224365857     A.U. after    8 cycles
 SCF Done:  E(RB3LYP) =  -632.224366250     A.U. after    8 cycles
 SCF Done:  E(RB3LYP) =  -632.224366362     A.U. after    7 cycles
 Optimization completed.
    -- Stationary point found.
 Normal termination of Gaussian 16 at Thu Dec 10 10:46:58 2020.

 --------------------------------------------------------------------
 #N Geom=AllCheck Guess=TCheck SCRF=Check GenChk RB3LYP/6-31G(d) Freq
 --------------------------------------------------------------------

 Structure from the checkpoint file:  "JID_4801.chk"
 ------------------------------
 CID_23239584_JID_4801_neutraal
 ------------------------------
 Charge =  0 Multiplicity = 1

 SCF Done:  E(RB3LYP) =  -632.224366362     A.U. after    1 cycles

  Exact polarizability: 161.187  -0.846 143.097   4.295   0.100  71.713
 Approx polarizability: 230.199   0.402 214.965  12.445   4.924 116.196

                      1                      2                      3
                      A                      A                      A
 Frequencies --     44.8081                73.5727                82.8360
 Red. masses --      3.6320                 3.1498                 3.6588
 Frc consts  --      0.0043                 0.0100                 0.0148
 IR Inten    --      0.4344                 0.7599                 6.0464

                      4                      5                      6
                      A                      A                      A
 Frequencies --     89.1443               123.4642               133.8138
 Red. masses --      3.4252                 2.5572                 1.0748
 Frc consts  --      0.0160                 0.0230                 0.0113
 IR Inten    --      1.5062                 0.7182                 0.4465

                      7                      8                      9
                      A                      A                      A
 Frequencies --    193.5749               211.1434               221.7811
 Red. masses --      4.2549                 1.9920                 3.5528
 Frc consts  --      0.0939                 0.0523                 0.1030
 IR Inten    --      1.5489                 0.2595                 0.9709

                     10                     11                     12
                      A                      A                      A
 Frequencies --    280.6632               287.2980               340.4678
 Red. masses --      1.6043                 2.9749                 4.1792
 Frc consts  --      0.0745                 0.1447                 0.2854
 IR Inten    --      1.1144                 4.6426                 3.3888

                     13                     14                     15
                      A                      A                      A
 Frequencies --    371.6612               380.1313               501.0834
 Red. masses --      3.6926                 4.4207                 4.2794
 Frc consts  --      0.3005                 0.3764                 0.6331
 IR Inten    --      1.0707                 1.5665                 1.6474

                     16                     17                     18
                      A                      A                      A
 Frequencies --    537.5227               553.4683               581.1823
 Red. masses --      5.0509                 4.4680                 3.7513
 Frc consts  --      0.8598                 0.8064                 0.7465
 IR Inten    --      0.2659                 2.3680                 0.5537

                     19                     20                     21
                      A                      A                      A
 Frequencies --    638.9051               706.5517               741.2619
 Red. masses --      4.9780                 4.3457                 4.4065
 Frc consts  --      1.1972                 1.2782                 1.4266
 IR Inten    --      9.7861                 8.9607                 5.8163

                     22                     23                     24
                      A                      A                      A
 Frequencies --    763.4308               767.5744               789.6374
 Red. masses --      2.3704                 4.2713                 2.0486
 Frc consts  --      0.8140                 1.4827                 0.7526
 IR Inten    --      7.4613                 4.0055                31.5075

                     25                     26                     27
                      A                      A                      A
 Frequencies --    855.0293               870.4252               911.9457
 Red. masses --      1.4775                 1.3732                 8.2969
 Frc consts  --      0.6364                 0.6130                 4.0654
 IR Inten    --      3.4614                 0.5413                 9.6934

                     28                     29                     30
                      A                      A                      A
 Frequencies --    941.7451               963.3331               969.5832
 Red. masses --      3.6392                 1.2645                 3.3132
 Frc consts  --      1.9016                 0.6914                 1.8351
 IR Inten    --      6.3728                 0.7127                14.8039

                     31                     32                     33
                      A                      A                      A
 Frequencies --    995.3217              1024.1967              1042.9107
 Red. masses --      6.3938                 4.4341                 1.8686
 Frc consts  --      3.7319                 2.7405                 1.1975
 IR Inten    --     35.1256                 5.4048                13.0016

                     34                     35                     36
                      A                      A                      A
 Frequencies --   1076.5762              1082.7603              1127.9429
 Red. masses --      2.2226                 2.7879                 1.7227
 Frc consts  --      1.5177                 1.9257                 1.2914
 IR Inten    --     46.2335                91.3910                 9.4562

                     37                     38                     39
                      A                      A                      A
 Frequencies --   1132.3196              1145.7651              1185.9154
 Red. masses --      3.2974                 1.9309                 1.2701
 Frc consts  --      2.4909                 1.4935                 1.0524
 IR Inten    --     75.1333                29.3552                 0.8257

                     40                     41                     42
                      A                      A                      A
 Frequencies --   1208.4503              1222.0095              1225.2079
 Red. masses --      1.2644                 1.1497                 1.3287
 Frc consts  --      1.0879                 1.0115                 1.1751
 IR Inten    --      0.0396                 3.7168                 0.8580

                     43                     44                     45
                      A                      A                      A
 Frequencies --   1256.4717              1273.4506              1296.1241
 Red. masses --      1.1850                 2.2192                 1.8482
 Frc consts  --      1.1022                 2.1203                 1.8293
 IR Inten    --     10.6846                17.6124                25.3005

                     46                     47                     48
                      A                      A                      A
 Frequencies --   1321.2521              1353.7949              1363.1381
 Red. masses --      4.0381                 5.0404                 1.7220
 Frc consts  --      4.1533                 5.4428                 1.8852
 IR Inten    --    169.3409                39.7184                51.8820

                     49                     50                     51
                      A                      A                      A
 Frequencies --   1394.5294              1445.2010              1488.9296
 Red. masses --      1.6777                 1.2384                 1.4822
 Frc consts  --      1.9223                 1.5240                 1.9360
 IR Inten    --     38.6079                 0.4071                39.8950

                     52                     53                     54
                      A                      A                      A
 Frequencies --   1505.5928              1511.0475              1521.7258
 Red. masses --      1.3054                 1.1467                 1.0483
 Frc consts  --      1.7435                 1.5426                 1.4303
 IR Inten    --     17.4727                 4.5536                 5.1379

                     55                     56                     57
                      A                      A                      A
 Frequencies --   1524.2412              1529.4908              1531.6444
 Red. masses --      2.2132                 1.0986                 1.2054
 Frc consts  --      3.0296                 1.5142                 1.6661
 IR Inten    --     15.7054                 2.1760                89.3124

                     58                     59                     60
                      A                      A                      A
 Frequencies --   1541.1622              1552.3420              1644.8324
 Red. masses --      1.2910                 1.1189                 6.3643
 Frc consts  --      1.8067                 1.5887                10.1448
 IR Inten    --      3.1403                 1.2980                76.8323

                     61                     62                     63
                      A                      A                      A
 Frequencies --   1656.1141              1729.4201              3027.3305
 Red. masses --      6.0613                 9.8045                 1.0347
 Frc consts  --      9.7948                17.2773                 5.5871
 IR Inten    --     23.3107               183.6177                60.4991

                     64                     65                     66
                      A                      A                      A
 Frequencies --   3048.5524              3058.2078              3068.1812
 Red. masses --      1.0666                 1.0383                 1.0655
 Frc consts  --      5.8404                 5.7216                 5.9098
 IR Inten    --     50.8604                22.2319                43.6510

                     67                     68                     69
                      A                      A                      A
 Frequencies --   3087.0829              3095.0643              3119.1541
 Red. masses --      1.1067                 1.0959                 1.0983
 Frc consts  --      6.2140                 6.1851                 6.2955
 IR Inten    --     40.7744                32.6029                18.2758

                     70                     71                     72
                      A                      A                      A
 Frequencies --   3128.2837              3143.6701              3160.5783
 Red. masses --      1.1077                 1.1026                 1.0998
 Frc consts  --      6.3867                 6.4204                 6.4727
 IR Inten    --     40.6409                12.5153                23.1112

                     73                     74                     75
                      A                      A                      A
 Frequencies --   3186.6392              3203.8444              3235.2239
 Red. masses --      1.0866                 1.0940                 1.0917
 Frc consts  --      6.5011                 6.6160                 6.7320
 IR Inten    --      5.6272                28.4039                11.4252

 - Thermochemistry -
 -------------------
 Temperature   298.150 Kelvin.  Pressure   1.00000 Atm.
 Atom     1 has atomic number  6 and mass  12.00000

 Molecular mass:   191.09463 amu.
 Principal axes and moments of inertia in atomic units:
                           1         2         3
     Eigenvalues --  1844.762102878.227614426.19243
           X            0.99975   0.02217  -0.00077
           Y           -0.02217   0.99974  -0.00533
           Z            0.00065   0.00535   0.99999
 This molecule is an asymmetric top.
 Rotational symmetry number  1.
 Warning -- assumption of classical behavior for rotation
           may cause significant error
 Rotational temperatures (Kelvin)      0.04695     0.03009     0.01957
 Rotational constants (GHZ):           0.97831     0.62703     0.40774
 Zero-point vibrational energy     588555.1 (Joules/Mol)
                                  140.66805 (Kcal/Mol)
 Warning -- explicit consideration of  18 degrees of freedom as
           vibrations may cause significant error
 Vibrational temperatures:     64.47   105.85   119.18   128.26   177.64
          (Kelvin)            192.53   278.51   303.79   319.09   403.81
                              413.36   489.86   534.74   546.92   720.95
                              773.38   796.32   836.19   919.24  1016.57
                             1066.51  1098.41  1104.37  1136.11  1230.20
                             1252.35  1312.09  1354.96  1386.02  1395.01
                             1432.05  1473.59  1500.52  1548.95  1557.85
                             1622.86  1629.16  1648.50  1706.27  1738.69
                             1758.20  1762.80  1807.78  1832.21  1864.83
                             1900.99  1947.81  1961.25  2006.42  2079.32
                             2142.24  2166.21  2174.06  2189.42  2193.04
                             2200.60  2203.69  2217.39  2233.47  2366.55
                             2382.78  2488.25  4355.65  4386.19  4400.08
                             4414.43  4441.62  4453.11  4487.77  4500.90
                             4523.04  4547.37  4584.86  4609.62  4654.77

 Zero-point correction=                           0.224169 (Hartree/Particle)
 Thermal correction to Energy=                    0.237185
 Thermal correction to Enthalpy=                  0.238129
 Thermal correction to Gibbs Free Energy=         0.184007
 Sum of electronic and zero-point Energies=           -632.000198
 Sum of electronic and thermal Energies=              -631.987181
 Sum of electronic and thermal Enthalpies=            -631.986237
 Sum of electronic and thermal Free Energies=         -632.040360

                     E (Thermal)             CV                S
                      KCal/Mol        Cal/Mol-Kelvin    Cal/Mol-Kelvin
 Total                  148.836             48.307            113.911
 Electronic               0.000              0.000              0.000
 Translational            0.889              2.981             41.648
 Rotational               0.889              2.981             31.530
 Vibrational            147.059             42.346             40.732
 Vibration     1          0.595              1.979              5.034
 Vibration     2          0.599              1.966              4.055
 Vibration     3          0.600              1.961              3.823
 Vibration     4          0.602              1.957              3.679
 Vibration     5          0.610              1.929              3.045
 Vibration     6          0.613              1.920              2.890
 Vibration     7          0.635              1.849              2.193
 Vibration     8          0.643              1.824              2.034
 Vibration     9          0.648              1.808              1.945
 Vibration    10          0.680              1.709              1.530
 Vibration    11          0.684              1.697              1.490
 Vibration    12          0.720              1.595              1.210
 Vibration    13          0.743              1.530              1.073
 Vibration    14          0.750              1.513              1.039
 Vibration    15          0.856              1.248              0.655
 Vibration    16          0.893              1.167              0.571
 Vibration    17          0.909              1.132              0.537
 Vibration    18          0.938              1.072              0.483

 Optimization completed.
    -- Stationary point found.
 Normal termination of Gaussian 16 at Thu Dec 10 10:55:17 2020.

 ----------------------------------------------------------------------
 # B3LYP/6-311++G(d,p) empiricaldispersion=gd3bj scf=xqc pop=npa geom=c
 heck
 ----------------------------------------------------------------------

 --------------------------------------
 CID_23239584_JID_4801_Energie_neutraal
 --------------------------------------
 Structure from the checkpoint file:  "JID_4801.chk"
 Charge =  0 Multiplicity = 1

 SCF Done:  E(RB3LYP) =  -632.394442598     A.U. after   15 cycles
 Normal termination of Gaussian 16 at Thu Dec 10 10:59:02 2020.

 ----------------------------------------------------------------------
 # B3LYP/6-311++G(d,p) empiricaldispersion=gd3bj scf=xqc pop=npa geom=c
 heck
 ----------------------------------------------------------------------

 ------------------------------------
 CID_23239584_JID_4801_Energie_kation
 ------------------------------------
 Structure from the checkpoint file:  "JID_4801.chk"
 Charge =  1 Multiplicity = 2

 SCF Done:  E(UB3LYP) =  -632.101949384     A.U. after   24 cycles
 Normal termination of Gaussian 16 at Thu Dec 10 11:07:25 2020.
 Gaussian 16:  ES64L-G16RevA.03 25-Dec-2016

 ----------------------------------------------------------------------
 # B3LYP/6-311++G(d,p) empiricaldispersion=gd3bj scf=xqc pop=npa geom=c
 heck
 ----------------------------------------------------------------------

 -----------------------------------
 CID_23239584_JID_4801_Energie_anion
 -----------------------------------
 Structure from the checkpoint file:  "JID_4801.chk"
 Charge = -1 Multiplicity = 2

                         Standard orientation:
 ---------------------------------------------------------------------
 Center     Atomic      Atomic             Coordinates (Angstroms)
 Number     Number       Type             X           Y           Z
 ---------------------------------------------------------------------
      1          6           0       -0.090264   -2.884282    0.078926
      2          6           0        0.817915   -1.678903    0.052260
      3          6           0        0.299497   -0.374129   -0.021149
      4          6           0        1.173181    0.732799   -0.055985
      5          6           0        2.556564    0.542004    0.004782
      6          6           0        3.060898   -0.754592    0.091941
      7          6           0        2.206017   -1.851425    0.111876
      8          8           0        0.582691    1.953589   -0.181625
      9          6           0        1.412921    3.101291   -0.209680
     10          6           0       -1.161041   -0.146507   -0.068398
     11          7           0       -1.972269   -0.669589   -0.903471
     12          6           0       -3.317574   -0.211050   -0.523984
     13          6           0       -3.074488    0.821148    0.604436
     14          8           0       -1.669156    0.669896    0.907398
     15          1           0       -0.813782   -2.821468    0.899862
     16          1           0       -0.671388   -2.957489   -0.844228
     17          1           0        0.493099   -3.800574    0.207853
     18          1           0        3.235604    1.385077   -0.021249
     19          1           0        4.136014   -0.904100    0.140548
     20          1           0        2.612332   -2.856362    0.177684
     21          1           0        1.997840    3.197260    0.714192
     22          1           0        2.095680    3.084397   -1.069293
     23          1           0        0.738073    3.953902   -0.300374
     24          1           0       -3.914619   -1.069025   -0.189325
     25          1           0       -3.826443    0.224431   -1.389977
     26          1           0       -3.244653    1.854534    0.283599
     27          1           0       -3.641914    0.630531    1.518661
 ---------------------------------------------------------------------

 SCF Done:  E(UB3LYP) =  -632.379539264     A.U. after   33 cycles
 SCF Done:  E(UB3LYP) =  -632.379539264     a.u. after    1 cycles

 The electronic state is 2-A.
 Alpha  occ. eigenvalues --  -19.04737 -19.04490 -14.18453 -10.15081 -10.13234
 Alpha  occ. eigenvalues --  -10.12181 -10.11482 -10.09696 -10.08203 -10.07356
 Alpha  occ. eigenvalues --  -10.06951 -10.06365 -10.06216 -10.06189  -0.97837
 Alpha  occ. eigenvalues --   -0.96424  -0.79591  -0.75550  -0.68187  -0.66783
 Alpha  occ. eigenvalues --   -0.63921  -0.59226  -0.58578  -0.53176  -0.52020
 Alpha  occ. eigenvalues --   -0.47884  -0.45500  -0.42077  -0.40126  -0.39619
 Alpha  occ. eigenvalues --   -0.38169  -0.36578  -0.36203  -0.34201  -0.32733
 Alpha  occ. eigenvalues --   -0.32415  -0.31505  -0.30066  -0.29737  -0.28390
 Alpha  occ. eigenvalues --   -0.27338  -0.26563  -0.25984  -0.25036  -0.24402
 Alpha  occ. eigenvalues --   -0.22384  -0.21491  -0.17256  -0.15198  -0.13675
 Alpha  occ. eigenvalues --   -0.12092   0.04652
 Alpha virt. eigenvalues --    0.06371   0.06849   0.07306   0.08449   0.08738
 Alpha virt. eigenvalues --    0.09039   0.10229   0.10364   0.10543   0.10871
 Alpha virt. eigenvalues --    0.11745   0.12748   0.12867   0.13358   0.13816

  Beta  occ. eigenvalues --  -19.04729 -19.04466 -14.18418 -10.15050 -10.13224
  Beta  occ. eigenvalues --  -10.12157 -10.11432 -10.09678 -10.08152 -10.07307
  Beta  occ. eigenvalues --  -10.06863 -10.06341 -10.06231 -10.06185  -0.97788
  Beta  occ. eigenvalues --   -0.96397  -0.79518  -0.75455  -0.68076  -0.66708
  Beta  occ. eigenvalues --   -0.63847  -0.59149  -0.58519  -0.53113  -0.51874
  Beta  occ. eigenvalues --   -0.47822  -0.45415  -0.42024  -0.40055  -0.39562
  Beta  occ. eigenvalues --   -0.38119  -0.36522  -0.36143  -0.34117  -0.32677
  Beta  occ. eigenvalues --   -0.32338  -0.31423  -0.29998  -0.29676  -0.28357
  Beta  occ. eigenvalues --   -0.27226  -0.26462  -0.25926  -0.24989  -0.24329
  Beta  occ. eigenvalues --   -0.22327  -0.21346  -0.17195  -0.14935  -0.13436
  Beta  occ. eigenvalues --   -0.11931
  Beta virt. eigenvalues --    0.06893   0.07350   0.07617   0.07733   0.08856
  Beta virt. eigenvalues --    0.09313   0.09379   0.10288   0.10987   0.11164
  Beta virt. eigenvalues --    0.11297   0.11835   0.12625   0.13206   0.13676

 Mulliken charges and spin densities:
               1          2
     1  C    0.044631  -0.659957
     2  C    0.473031   0.370890
     3  C    0.065230   0.134166
     4  C   -0.763314   0.411049
     5  C    0.312703  -0.245378
     6  C    0.550847  -0.826880
     7  C   -0.599159  -0.172515
     8  O   -0.149574   0.071355
     9  C    0.997734  -1.256244
    10  C   -0.435204   0.015440
    11  N   -0.113221   0.111099
    12  C    0.293125  -0.472709
    13  C    0.285160  -0.431191
    14  O   -0.026765   0.039202
    15  H    0.035861   0.132869
    16  H    0.150912   0.026001
    17  H    0.047939   0.082032
    18  H   -0.272155   0.442598
    19  H   -0.324336   0.483142
    20  H    0.067869   0.013919
    21  H   -0.204635   0.355916
    22  H   -0.370926   0.523976
    23  H   -0.550934   0.727566
    24  H   -0.182375   0.323896
    25  H   -0.068338   0.224629
    26  H    0.032748   0.112965
    27  H   -0.296854   0.462164
 Sum of Mulliken charges =  -1.00000   1.00000

 Dipole moment (field-independent basis, Debye):
    X=             -0.9753    Y=             -4.1683    Z=              0.0348  Tot=              4.2810
 Quadrupole moment (field-independent basis, Debye-Ang):
   XX=           -141.9773   YY=           -130.9957   ZZ=           -111.2548
   XY=            -13.0326   XZ=              3.9260   YZ=              1.8801

 Summary of Natural Population Analysis:

                                       Natural Population
                Natural  -----------------------------------------------
    Atom  No    Charge         Core      Valence    Rydberg      Total
 -----------------------------------------------------------------------
      C    1   -0.29583      0.99964     2.29129    0.00490     3.29583
      C    2    0.01931      0.99950     1.97330    0.00789     2.98069
      C    3   -0.06906      0.99939     2.05878    0.01089     3.06906
      C    4    0.18563      0.99937     1.80191    0.01309     2.81437
      C    5   -0.14799      0.99952     2.13963    0.00883     3.14799
      C    6   -0.07226      0.99958     2.06154    0.01115     3.07226
      C    7   -0.12539      0.99951     2.11702    0.00886     3.12539
      O    8   -0.26811      0.99985     3.25830    0.00996     4.26811
      C    9   -0.09963      0.99960     2.09094    0.00910     3.09963
      C   10    0.29543      0.99954     1.68237    0.02267     2.70457
      N   11   -0.26079      0.99967     2.75165    0.00948     3.76079
      C   12   -0.11461      0.99964     2.10428    0.01070     3.11461
      C   13   -0.02212      0.99960     2.01237    0.01016     3.02212
      O   14   -0.27179      0.99987     3.26396    0.00796     4.27179
      H   15    0.10584      0.00000     0.39287    0.00129     0.39416
      H   16    0.11465      0.00000     0.38395    0.00140     0.38535
      H   17    0.09532      0.00000     0.40381    0.00087     0.40468
      H   18    0.10751      0.00000     0.39075    0.00173     0.39249
      H   19    0.09747      0.00000     0.40161    0.00092     0.40253
      H   20    0.09615      0.00000     0.40298    0.00087     0.40385
      H   21    0.08416      0.00000     0.41415    0.00169     0.41584
      H   22    0.08647      0.00000     0.41115    0.00239     0.41353
      H   23    0.09498      0.00000     0.40356    0.00146     0.40502
      H   24    0.09435      0.00000     0.40373    0.00192     0.40565
      H   25    0.09439      0.00000     0.40438    0.00123     0.40561
      H   26    0.08537      0.00000     0.41341    0.00122     0.41463
      H   27    0.09055      0.00000     0.40750    0.00194     0.40945
 =======================================================================
   * Total *    0.00000     13.99427    36.84119    0.16454    51.00000

 Normal termination of Gaussian 16 at Thu Dec 10 11:18:40 2020.
