 Gaussian 16, Revision A.03,

 -----------------------------------------------------------
 # opt freq B3LYP/6-31G(d) empiricaldispersion=gd3bj scf=xqc
 -----------------------------------------------------------

 -------------------------------
 CID_112636484_JID_9837_neutraal
 -------------------------------
 Symbolic Z-matrix:
 Charge =  0 Multiplicity = 1

 SCF Done:  E(RB3LYP) =  -825.012098308     A.U. after   14 cycles
 SCF Done:  E(RB3LYP) =  -825.023117586     A.U. after   12 cycles
 SCF Done:  E(RB3LYP) =  -825.024913185     A.U. after   12 cycles
 SCF Done:  E(RB3LYP) =  -825.025837268     A.U. after   12 cycles
 SCF Done:  E(RB3LYP) =  -825.026574254     A.U. after   11 cycles
 SCF Done:  E(RB3LYP) =  -825.026897352     A.U. after   12 cycles
 SCF Done:  E(RB3LYP) =  -825.027059585     A.U. after   12 cycles
 SCF Done:  E(RB3LYP) =  -825.027163752     A.U. after   11 cycles
 SCF Done:  E(RB3LYP) =  -825.027243197     A.U. after   11 cycles
 SCF Done:  E(RB3LYP) =  -825.027283184     A.U. after   10 cycles
 SCF Done:  E(RB3LYP) =  -825.027311346     A.U. after    8 cycles
 SCF Done:  E(RB3LYP) =  -825.027311469     A.U. after    7 cycles
 SCF Done:  E(RB3LYP) =  -825.027311378     A.U. after    7 cycles
 SCF Done:  E(RB3LYP) =  -825.027311339     A.U. after    7 cycles
 SCF Done:  E(RB3LYP) =  -825.027311310     A.U. after    6 cycles
 Optimization completed.
    -- Stationary point found.
 Normal termination of Gaussian 16 at Sun Dec 13 16:27:17 2020.

 --------------------------------------------------------------------
 #N Geom=AllCheck Guess=TCheck SCRF=Check GenChk RB3LYP/6-31G(d) Freq
 --------------------------------------------------------------------

 Structure from the checkpoint file:  "JID_9837.chk"
 -------------------------------
 CID_112636484_JID_9837_neutraal
 -------------------------------
 Charge =  0 Multiplicity = 1

 SCF Done:  E(RB3LYP) =  -825.027311310     A.U. after    1 cycles

  Exact polarizability: 206.328  -2.878 179.251  18.020   8.030 140.385
 Approx polarizability: 282.886 -18.400 269.126  30.875  18.549 206.810

                      1                      2                      3
                      A                      A                      A
 Frequencies --     19.7526                24.1234                42.8526
 Red. masses --      4.1981                 4.0025                 3.4401
 Frc consts  --      0.0010                 0.0014                 0.0037
 IR Inten    --      0.1748                 0.0854                 0.0520

                      4                      5                      6
                      A                      A                      A
 Frequencies --     66.3945                87.1364               100.7879
 Red. masses --      2.9269                 3.4073                 2.3219
 Frc consts  --      0.0076                 0.0152                 0.0139
 IR Inten    --      0.8454                 0.2653                 0.6631

                      7                      8                      9
                      A                      A                      A
 Frequencies --    101.7589               158.7898               178.7430
 Red. masses --      2.4962                 4.0287                 3.5847
 Frc consts  --      0.0152                 0.0598                 0.0675
 IR Inten    --      1.4322                 6.5305                 2.3960

                     10                     11                     12
                      A                      A                      A
 Frequencies --    188.9998               224.7615               243.7924
 Red. masses --      3.8482                 3.8143                 1.0503
 Frc consts  --      0.0810                 0.1135                 0.0368
 IR Inten    --      0.4758                 0.4264                 0.0253

                     13                     14                     15
                      A                      A                      A
 Frequencies --    266.1127               269.3846               306.5055
 Red. masses --      2.3792                 1.4263                 3.4297
 Frc consts  --      0.0993                 0.0610                 0.1898
 IR Inten    --      0.0813                 0.7742                 0.2372

                     16                     17                     18
                      A                      A                      A
 Frequencies --    319.1544               344.4801               382.7385
 Red. masses --      3.2469                 3.0921                 2.1044
 Frc consts  --      0.1949                 0.2162                 0.1816
 IR Inten    --      0.0475                 3.4547                 2.6695

                     19                     20                     21
                      A                      A                      A
 Frequencies --    412.8118               452.3321               462.9860
 Red. masses --      3.0867                 2.5234                 3.2978
 Frc consts  --      0.3099                 0.3042                 0.4165
 IR Inten    --      0.9478                 1.4190                 0.1862

                     22                     23                     24
                      A                      A                      A
 Frequencies --    473.0330               500.1663               524.3994
 Red. masses --      2.6063                 1.3896                 2.2015
 Frc consts  --      0.3436                 0.2048                 0.3567
 IR Inten    --      1.9732                46.9007                54.9868

                     25                     26                     27
                      A                      A                      A
 Frequencies --    548.8520               565.8049               637.9462
 Red. masses --      3.2452                 3.7702                 6.8986
 Frc consts  --      0.5760                 0.7111                 1.6542
 IR Inten    --      6.1555                 3.1855                 2.2683

                     28                     29                     30
                      A                      A                      A
 Frequencies --    663.9817               710.0908               763.2140
 Red. masses --      5.9912                 4.1975                 3.6185
 Frc consts  --      1.5562                 1.2470                 1.2418
 IR Inten    --      1.6079                 1.0689                 0.8625

                     31                     32                     33
                      A                      A                      A
 Frequencies --    776.2371               791.4087               796.1835
 Red. masses --      3.5496                 4.2725                 1.6684
 Frc consts  --      1.2601                 1.5766                 0.6231
 IR Inten    --      0.6811                 8.4119                 3.7870

                     34                     35                     36
                      A                      A                      A
 Frequencies --    802.6357               822.6176               825.3148
 Red. masses --      5.1484                 1.9140                 1.0981
 Frc consts  --      1.9541                 0.7631                 0.4407
 IR Inten    --     47.8224                 1.5236                 0.1560

                     37                     38                     39
                      A                      A                      A
 Frequencies --    827.2708               847.1721               897.0810
 Red. masses --      1.6515                 2.2814                 2.4654
 Frc consts  --      0.6659                 0.9647                 1.1690
 IR Inten    --      0.6614                 1.4711                 0.3579

                     40                     41                     42
                      A                      A                      A
 Frequencies --    918.1827               936.3807               943.3561
 Red. masses --      2.0893                 2.4431                 2.5150
 Frc consts  --      1.0378                 1.2621                 1.3187
 IR Inten    --      9.6820                 1.6484                 3.1392

                     43                     44                     45
                      A                      A                      A
 Frequencies --    957.0066               966.1610               975.3665
 Red. masses --      1.8871                 1.6538                 2.2531
 Frc consts  --      1.0183                 0.9096                 1.2629
 IR Inten    --      0.3952                 4.6313                 0.0207

                     46                     47                     48
                      A                      A                      A
 Frequencies --    978.2808               990.7580               997.1135
 Red. masses --      1.6925                 1.3681                 9.2159
 Frc consts  --      0.9544                 0.7912                 5.3986
 IR Inten    --      0.2805                 0.8166                12.3868

                     49                     50                     51
                      A                      A                      A
 Frequencies --   1016.7868              1024.1512              1056.2813
 Red. masses --      1.8437                 2.0135                 2.1098
 Frc consts  --      1.1231                 1.2443                 1.3869
 IR Inten    --      4.5110                 1.3517                 4.3710

                     52                     53                     54
                      A                      A                      A
 Frequencies --   1061.4702              1075.6034              1103.5363
 Red. masses --      2.1351                 2.2819                 1.9648
 Frc consts  --      1.4173                 1.5554                 1.4097
 IR Inten    --     13.4977                47.4954                15.1142

                     55                     56                     57
                      A                      A                      A
 Frequencies --   1108.8394              1124.1736              1140.4056
 Red. masses --      1.6673                 2.0211                 1.6738
 Frc consts  --      1.2078                 1.5049                 1.2825
 IR Inten    --     19.6981                 9.6635                 3.9108

                     58                     59                     60
                      A                      A                      A
 Frequencies --   1149.4396              1155.2887              1159.7512
 Red. masses --      1.0926                 2.3048                 1.2390
 Frc consts  --      0.8506                 1.8124                 0.9818
 IR Inten    --      0.0447                12.7420                11.1176

                     61                     62                     63
                      A                      A                      A
 Frequencies --   1183.8633              1192.9457              1212.0490
 Red. masses --      2.2080                 1.5247                 2.1192
 Frc consts  --      1.8232                 1.2784                 1.8343
 IR Inten    --     83.6838                 3.2288                 5.5533

                     64                     65                     66
                      A                      A                      A
 Frequencies --   1214.8556              1253.3520              1276.6061
 Red. masses --      1.4662                 1.4472                 1.7973
 Frc consts  --      1.2750                 1.3394                 1.7257
 IR Inten    --      7.7556                 5.9293                20.7410

                     67                     68                     69
                      A                      A                      A
 Frequencies --   1285.4265              1295.2770              1301.1894
 Red. masses --      1.4717                 1.5192                 1.5097
 Frc consts  --      1.4327                 1.5017                 1.5060
 IR Inten    --     14.3423                 4.5716                15.6839

                     70                     71                     72
                      A                      A                      A
 Frequencies --   1304.7460              1321.4958              1324.8777
 Red. masses --      1.1095                 2.0520                 1.4363
 Frc consts  --      1.1128                 2.1113                 1.4854
 IR Inten    --      0.3743                53.8560                 5.4547

                     73                     74                     75
                      A                      A                      A
 Frequencies --   1334.0116              1342.9981              1349.3698
 Red. masses --      1.7636                 1.7266                 1.8442
 Frc consts  --      1.8492                 1.8348                 1.9784
 IR Inten    --      9.1268                75.6030               100.7784

                     76                     77                     78
                      A                      A                      A
 Frequencies --   1363.4762              1366.8764              1374.8101
 Red. masses --      1.5529                 1.5130                 1.4547
 Frc consts  --      1.7009                 1.6655                 1.6200
 IR Inten    --      7.8806                 1.7832                 5.6725

                     79                     80                     81
                      A                      A                      A
 Frequencies --   1384.1872              1410.4222              1415.8307
 Red. masses --      1.4502                 1.4234                 1.4446
 Frc consts  --      1.6370                 1.6683                 1.7062
 IR Inten    --     58.0207                 9.8534                 1.7937

                     82                     83                     84
                      A                      A                      A
 Frequencies --   1435.8040              1447.1631              1464.2026
 Red. masses --      1.2494                 1.3609                 1.8314
 Frc consts  --      1.5176                 1.6792                 2.3133
 IR Inten    --      5.9200                45.0851               119.2249

                     85                     86                     87
                      A                      A                      A
 Frequencies --   1515.8727              1516.2984              1519.5847
 Red. masses --      1.0407                 2.4495                 1.0879
 Frc consts  --      1.4090                 3.3181                 1.4801
 IR Inten    --      4.6989                96.6260                 3.3019

                     88                     89                     90
                      A                      A                      A
 Frequencies --   1524.2488              1525.2965              1525.5042
 Red. masses --      1.0731                 1.0814                 1.1107
 Frc consts  --      1.4689                 1.4824                 1.5229
 IR Inten    --      9.4479                 3.2264                 5.7128

                     91                     92                     93
                      A                      A                      A
 Frequencies --   1527.9413              1535.7728              1549.5794
 Red. masses --      1.0680                 1.0917                 1.2044
 Frc consts  --      1.4690                 1.5171                 1.7039
 IR Inten    --      2.1313                 0.4759                12.0038

                     94                     95                     96
                      A                      A                      A
 Frequencies --   1557.2010              1578.4355              1635.9814
 Red. masses --      1.0989                 4.2347                 4.3819
 Frc consts  --      1.5699                 6.2162                 6.9099
 IR Inten    --      5.1372               313.6885               336.4840

                     97                     98                     99
                      A                      A                      A
 Frequencies --   1648.3371              3006.5197              3045.4263
 Red. masses --      7.1988                 1.0840                 1.0390
 Frc consts  --     11.5239                 5.7733                 5.6777
 IR Inten    --    686.2441                27.6798                20.7078

                    100                    101                    102
                      A                      A                      A
 Frequencies --   3051.8296              3054.2096              3058.3004
 Red. masses --      1.0605                 1.0599                 1.0594
 Frc consts  --      5.8194                 5.8250                 5.8383
 IR Inten    --     35.8564                51.0224                30.8679

                    103                    104                    105
                      A                      A                      A
 Frequencies --   3061.8191              3065.3165              3067.6937
 Red. masses --      1.0352                 1.0577                 1.0721
 Frc consts  --      5.7180                 5.8556                 5.9443
 IR Inten    --     21.3635                18.6694                17.5438

                    106                    107                    108
                      A                      A                      A
 Frequencies --   3091.4522              3094.0078              3103.5971
 Red. masses --      1.1035                 1.1018                 1.1080
 Frc consts  --      6.2138                 6.2144                 6.2881
 IR Inten    --     27.4014                23.7181                 8.0226

                    109                    110                    111
                      A                      A                      A
 Frequencies --   3104.2753              3105.4919              3108.1219
 Red. masses --      1.1073                 1.0892                 1.0950
 Frc consts  --      6.2869                 6.1889                 6.2324
 IR Inten    --     50.6225                95.9830                19.0483

                    112                    113                    114
                      A                      A                      A
 Frequencies --   3118.5373              3130.5147              3133.0206
 Red. masses --      1.0883                 1.0934                 1.1019
 Frc consts  --      6.2360                 6.3132                 6.3728
 IR Inten    --     25.3370                29.6346                 6.1739

                    115                    116                    117
                      A                      A                      A
 Frequencies --   3133.1800              3139.3890              3141.0622
 Red. masses --      1.1017                 1.0929                 1.1045
 Frc consts  --      6.3721                 6.3463                 6.4208
 IR Inten    --     34.0205                21.1126                31.6888

                    118                    119                    120
                      A                      A                      A
 Frequencies --   3171.4099              3250.0802              3618.3738
 Red. masses --      1.0907                 1.0942                 1.0758
 Frc consts  --      6.4632                 6.8100                 8.2988
 IR Inten    --     38.9302                 2.6196                36.6707

 - Thermochemistry -
 -------------------
 Temperature   298.150 Kelvin.  Pressure   1.00000 Atm.
 Atom     1 has atomic number  6 and mass  12.00000

 Molecular mass:   261.18411 amu.
 Principal axes and moments of inertia in atomic units:
                           1         2         3
     Eigenvalues --  3439.395267134.218628622.27875
           X            0.99981  -0.01968  -0.00084
           Y            0.01968   0.99979  -0.00494
           Z            0.00093   0.00492   0.99999
 This molecule is an asymmetric top.
 Rotational symmetry number  1.
 Warning -- assumption of classical behavior for rotation
           may cause significant error
 Rotational temperatures (Kelvin)      0.02518     0.01214     0.01005
 Rotational constants (GHZ):           0.52473     0.25297     0.20931
 Zero-point vibrational energy     975767.9 (Joules/Mol)
                                  233.21413 (Kcal/Mol)
 Warning -- explicit consideration of  26 degrees of freedom as
           vibrations may cause significant error
 Vibrational temperatures:     28.42    34.71    61.66    95.53   125.37
          (Kelvin)            145.01   146.41   228.46   257.17   271.93
                              323.38   350.76   382.88   387.58   440.99
                              459.19   495.63   550.68   593.94   650.81
                              666.13   680.59   719.63   754.49   789.68
                              814.07   917.86   955.32  1021.66  1098.09
                             1116.83  1138.66  1145.53  1154.81  1183.56
                             1187.44  1190.26  1218.89  1290.70  1321.06
                             1347.24  1357.28  1376.92  1390.09  1403.33
                             1407.53  1425.48  1434.62  1462.93  1473.53
                             1519.75  1527.22  1547.55  1587.74  1595.37
                             1617.44  1640.79  1653.79  1662.20  1668.62
                             1703.32  1716.38  1743.87  1747.91  1803.29
                             1836.75  1849.44  1863.61  1872.12  1877.24
                             1901.34  1906.20  1919.35  1932.27  1941.44
                             1961.74  1966.63  1978.05  1991.54  2029.28
                             2037.06  2065.80  2082.14  2106.66  2181.00
                             2181.62  2186.34  2193.05  2194.56  2194.86
                             2198.37  2209.63  2229.50  2240.46  2271.02
                             2353.81  2371.59  4325.71  4381.69  4390.90
                             4394.33  4400.21  4405.27  4410.31  4413.73
                             4447.91  4451.59  4465.38  4466.36  4468.11
                             4471.89  4486.88  4504.11  4507.72  4507.95
                             4516.88  4519.29  4562.95  4676.14  5206.03

 Zero-point correction=                           0.371650 (Hartree/Particle)
 Thermal correction to Energy=                    0.389373
 Thermal correction to Enthalpy=                  0.390318
 Thermal correction to Gibbs Free Energy=         0.324196
 Sum of electronic and zero-point Energies=           -824.655661
 Sum of electronic and thermal Energies=              -824.637938
 Sum of electronic and thermal Enthalpies=            -824.636994
 Sum of electronic and thermal Free Energies=         -824.703115

                     E (Thermal)             CV                S
                      KCal/Mol        Cal/Mol-Kelvin    Cal/Mol-Kelvin
 Total                  244.336             69.236            139.164
 Electronic               0.000              0.000              0.000
 Translational            0.889              2.981             42.580
 Rotational               0.889              2.981             33.714
 Vibrational            242.558             63.275             62.870
 Vibration     1          0.593              1.986              6.659
 Vibration     2          0.593              1.985              6.262
 Vibration     3          0.595              1.980              5.123
 Vibration     4          0.598              1.970              4.257
 Vibration     5          0.601              1.958              3.723
 Vibration     6          0.604              1.948              3.439
 Vibration     7          0.604              1.948              3.420
 Vibration     8          0.621              1.893              2.564
 Vibration     9          0.629              1.868              2.342
 Vibration    10          0.633              1.855              2.238
 Vibration    11          0.649              1.803              1.920
 Vibration    12          0.659              1.773              1.775
 Vibration    13          0.672              1.735              1.621
 Vibration    14          0.674              1.730              1.600
 Vibration    15          0.697              1.661              1.381
 Vibration    16          0.705              1.637              1.314
 Vibration    17          0.723              1.586              1.191
 Vibration    18          0.752              1.507              1.028
 Vibration    19          0.777              1.442              0.917
 Vibration    20          0.811              1.356              0.789
 Vibration    21          0.821              1.332              0.757
 Vibration    22          0.830              1.310              0.729
 Vibration    23          0.856              1.250              0.658
 Vibration    24          0.879              1.196              0.600
 Vibration    25          0.904              1.142              0.547
 Vibration    26          0.922              1.105              0.512

 Optimization completed.
    -- Stationary point found.
 Normal termination of Gaussian 16 at Sun Dec 13 16:52:40 2020.

 ----------------------------------------------------------------------
 # B3LYP/6-311++G(d,p) empiricaldispersion=gd3bj scf=xqc pop=npa geom=c
 heck
 ----------------------------------------------------------------------

 ---------------------------------------
 CID_112636484_JID_9837_Energie_neutraal
 ---------------------------------------
 Structure from the checkpoint file:  "JID_9837.chk"
 Charge =  0 Multiplicity = 1

 SCF Done:  E(RB3LYP) =  -825.248606044     A.U. after   14 cycles
 Normal termination of Gaussian 16 at Sun Dec 13 17:04:03 2020.

 ----------------------------------------------------------------------
 # B3LYP/6-311++G(d,p) empiricaldispersion=gd3bj scf=xqc pop=npa geom=c
 heck
 ----------------------------------------------------------------------

 -------------------------------------
 CID_112636484_JID_9837_Energie_kation
 -------------------------------------
 Structure from the checkpoint file:  "JID_9837.chk"
 Charge =  1 Multiplicity = 2

 SCF Done:  E(UB3LYP) =  -824.969471044     A.U. after   21 cycles
 Normal termination of Gaussian 16 at Sun Dec 13 17:28:12 2020.
 Gaussian 16:  ES64L-G16RevA.03 25-Dec-2016

 ----------------------------------------------------------------------
 # B3LYP/6-311++G(d,p) empiricaldispersion=gd3bj scf=xqc pop=npa geom=c
 heck
 ----------------------------------------------------------------------

 ------------------------------------
 CID_112636484_JID_9837_Energie_anion
 ------------------------------------
 Structure from the checkpoint file:  "JID_9837.chk"
 Charge = -1 Multiplicity = 2

                         Standard orientation:
 ---------------------------------------------------------------------
 Center     Atomic      Atomic             Coordinates (Angstroms)
 Number     Number       Type             X           Y           Z
 ---------------------------------------------------------------------
      1          6           0       -3.325652    3.393399    0.707771
      2          6           0       -2.484943    2.135223    0.608411
      3          8           0       -3.295931    1.138288   -0.040854
      4          6           0       -2.758690   -0.080254   -0.223737
      5          7           0       -1.525568   -0.317189    0.206027
      6          6           0       -1.040736   -1.558833   -0.017759
      7          7           0       -1.693436   -2.570827   -0.624581
      8          6           0       -2.934575   -2.284498   -1.034910
      9          6           0       -3.543228   -1.049286   -0.869234
     10          7           0        0.225799   -1.828921    0.393007
     11          6           0        1.108236   -0.924912    1.119098
     12          6           0        1.341995   -1.444655    2.543305
     13          6           0        2.428261   -0.721148    0.361509
     14          6           0        3.313516    0.431790    0.943983
     15          6           0        3.633181    1.297105   -0.295106
     16          6           0        2.348508    2.057740   -0.698379
     17          6           0        1.444966    0.935514   -1.302042
     18          6           0        2.307999   -0.335098   -1.135598
     19          6           0        3.720595    0.226158   -1.403019
     20          1           0       -3.624001    3.740837   -0.286352
     21          1           0       -2.750995    4.188384    1.195040
     22          1           0       -4.231207    3.210320    1.294694
     23          1           0       -1.574658    2.297629    0.021117
     24          1           0       -2.179478    1.766564    1.593159
     25          1           0       -3.468684   -3.096682   -1.525810
     26          1           0       -4.547312   -0.830184   -1.207651
     27          1           0        0.525634   -2.779375    0.223223
     28          1           0        0.574158    0.025131    1.175605
     29          1           0        1.824980   -2.429876    2.522035
     30          1           0        1.989977   -0.767671    3.109842
     31          1           0        0.390928   -1.542650    3.075834
     32          1           0        2.988457   -1.666472    0.416359
     33          1           0        2.785365    1.009883    1.711776
     34          1           0        4.226270    0.039553    1.404951
     35          1           0        4.508578    1.940723   -0.170151
     36          1           0        1.885525    2.555077    0.161685
     37          1           0        2.570109    2.832168   -1.441004
     38          1           0        0.470179    0.856781   -0.816232
     39          1           0        1.258667    1.115555   -2.366600
     40          1           0        1.988455   -1.165982   -1.768808
     41          1           0        3.833119    0.648994   -2.407944
     42          1           0        4.519218   -0.505923   -1.234878
 ---------------------------------------------------------------------

 SCF Done:  E(UB3LYP) =  -825.236151907     A.U. after   33 cycles
 SCF Done:  E(UB3LYP) =  -825.236151906     a.u. after    1 cycles

 The electronic state is 2-A.
 Alpha  occ. eigenvalues --  -19.07356 -14.23918 -14.21528 -14.21119 -10.18700
 Alpha  occ. eigenvalues --  -10.18566 -10.13496 -10.12910 -10.11470 -10.08223
 Alpha  occ. eigenvalues --  -10.07715 -10.07664 -10.07290 -10.07256 -10.07023
 Alpha  occ. eigenvalues --  -10.06666 -10.06517 -10.06334 -10.06096  -0.99846
 Alpha  occ. eigenvalues --   -0.91038  -0.83109  -0.79542  -0.77553  -0.70935
 Alpha  occ. eigenvalues --   -0.68482  -0.65937  -0.63378  -0.62392  -0.59501
 Alpha  occ. eigenvalues --   -0.57782  -0.56185  -0.53855  -0.52173  -0.49630
 Alpha  occ. eigenvalues --   -0.47042  -0.46014  -0.43999  -0.43182  -0.41251
 Alpha  occ. eigenvalues --   -0.40356  -0.40087  -0.38803  -0.38130  -0.37356
 Alpha  occ. eigenvalues --   -0.35785  -0.34436  -0.34176  -0.32451  -0.31314
 Alpha  occ. eigenvalues --   -0.30959  -0.30250  -0.30020  -0.29851  -0.29442
 Alpha  occ. eigenvalues --   -0.26971  -0.26569  -0.26390  -0.25808  -0.25482
 Alpha  occ. eigenvalues --   -0.24868  -0.23861  -0.23495  -0.22628  -0.22443
 Alpha  occ. eigenvalues --   -0.21611  -0.20560  -0.19484  -0.18496  -0.16906
 Alpha  occ. eigenvalues --   -0.12904   0.04054
 Alpha virt. eigenvalues --    0.05846   0.06031   0.06579   0.06795   0.07550
 Alpha virt. eigenvalues --    0.08023   0.08473   0.08627   0.08833   0.09202
 Alpha virt. eigenvalues --    0.09767   0.10045   0.10256   0.10382   0.11229

  Beta  occ. eigenvalues --  -19.07347 -14.23913 -14.21510 -14.21114 -10.18688
  Beta  occ. eigenvalues --  -10.18563 -10.13479 -10.12881 -10.11465 -10.08224
  Beta  occ. eigenvalues --  -10.07683 -10.07654 -10.07282 -10.07254 -10.06999
  Beta  occ. eigenvalues --  -10.06648 -10.06501 -10.06317 -10.06089  -0.99828
  Beta  occ. eigenvalues --   -0.91018  -0.83092  -0.79511  -0.77528  -0.70908
  Beta  occ. eigenvalues --   -0.68455  -0.65910  -0.63351  -0.62363  -0.59466
  Beta  occ. eigenvalues --   -0.57729  -0.56164  -0.53810  -0.52125  -0.49587
  Beta  occ. eigenvalues --   -0.47013  -0.45978  -0.43972  -0.43152  -0.41209
  Beta  occ. eigenvalues --   -0.40326  -0.40057  -0.38783  -0.38111  -0.37332
  Beta  occ. eigenvalues --   -0.35750  -0.34394  -0.34149  -0.32421  -0.31287
  Beta  occ. eigenvalues --   -0.30923  -0.30207  -0.29983  -0.29822  -0.29413
  Beta  occ. eigenvalues --   -0.26935  -0.26543  -0.26358  -0.25774  -0.25449
  Beta  occ. eigenvalues --   -0.24834  -0.23829  -0.23459  -0.22604  -0.22386
  Beta  occ. eigenvalues --   -0.21578  -0.20530  -0.19458  -0.18448  -0.16889
  Beta  occ. eigenvalues --   -0.12879
  Beta virt. eigenvalues --    0.05965   0.06278   0.06576   0.06777   0.07286
  Beta virt. eigenvalues --    0.07977   0.08480   0.08588   0.08954   0.09127
  Beta virt. eigenvalues --    0.09553   0.09965   0.10298   0.10521   0.10697

 Mulliken charges and spin densities:
               1          2
     1  C    0.533678  -1.191160
     2  C   -0.475116   0.410580
     3  O   -0.113344   0.019681
     4  C   -0.066911   0.093631
     5  N   -0.123156   0.036128
     6  C   -0.757212   0.191806
     7  N   -0.056383   0.030730
     8  C    0.032676  -0.020274
     9  C    0.246220  -0.223531
    10  N   -0.136419   0.106778
    11  C   -0.561108  -0.007458
    12  C    0.490317  -1.126189
    13  C    0.299166  -0.106583
    14  C    0.594964  -1.302328
    15  C   -1.013755   1.432657
    16  C    1.122709  -1.704185
    17  C   -0.599343   0.192989
    18  C   -0.049408   0.551552
    19  C    0.198800  -0.979046
    20  H   -0.103393   0.254074
    21  H   -0.287048   0.441809
    22  H   -0.133104   0.277183
    23  H    0.346959  -0.129582
    24  H   -0.109083   0.300051
    25  H    0.091624   0.079505
    26  H    0.071108   0.105627
    27  H    0.245169   0.091062
    28  H    0.669572  -0.376421
    29  H   -0.124241   0.268292
    30  H   -0.147303   0.294448
    31  H   -0.027074   0.180785
    32  H    0.045691   0.168016
    33  H   -0.049666   0.197586
    34  H   -0.185909   0.361377
    35  H   -0.347690   0.578805
    36  H   -0.130329   0.263956
    37  H   -0.147480   0.309840
    38  H    0.064062  -0.102012
    39  H   -0.111605   0.295656
    40  H    0.142825   0.102891
    41  H   -0.041982   0.191889
    42  H   -0.297478   0.439386
 Sum of Mulliken charges =  -1.00000   1.00000

 Dipole moment (field-independent basis, Debye):
    X=             -3.8189    Y=             -3.6617    Z=             -1.5338  Tot=              5.5085
 Quadrupole moment (field-independent basis, Debye-Ang):
   XX=           -195.7950   YY=           -175.8304   ZZ=           -156.9114
   XY=              5.6912   XZ=              2.1589   YZ=             -0.5385

 Summary of Natural Population Analysis:

                                       Natural Population
                Natural  -----------------------------------------------
    Atom  No    Charge         Core      Valence    Rydberg      Total
 -----------------------------------------------------------------------
      C    1   -0.29099      0.99966     2.28682    0.00451     3.29099
      C    2   -0.01577      0.99958     2.00389    0.01230     3.01577
      O    3   -0.27214      0.99985     3.26318    0.00911     4.27214
      C    4    0.29875      0.99947     1.68629    0.01548     2.70125
      N    5   -0.30291      0.99962     2.79527    0.00802     3.80291
      C    6    0.31204      0.99960     1.67140    0.01696     2.68796
      N    7   -0.28480      0.99968     2.77538    0.00973     3.78480
      C    8    0.05437      0.99961     1.93168    0.01435     2.94563
      C    9   -0.19250      0.99952     2.18403    0.00896     3.19250
      N   10   -0.30062      0.99965     2.79009    0.01088     3.80062
      C   11   -0.01683      0.99955     2.00531    0.01196     3.01683
      C   12   -0.28489      0.99964     2.27975    0.00550     3.28489
      C   13   -0.10881      0.99956     2.09716    0.01208     3.10881
      C   14   -0.18961      0.99962     2.18068    0.00931     3.18961
      C   15   -0.11111      0.99960     2.09973    0.01178     3.11111
      C   16   -0.19144      0.99963     2.18297    0.00884     3.19144
      C   17   -0.20126      0.99962     2.19262    0.00902     3.20126
      C   18   -0.10676      0.99959     2.09615    0.01101     3.10676
      C   19   -0.18987      0.99962     2.18118    0.00908     3.18987
      H   20    0.09981      0.00000     0.39887    0.00132     0.40019
      H   21    0.10448      0.00000     0.39411    0.00140     0.39552
      H   22    0.09916      0.00000     0.39946    0.00138     0.40084
      H   23    0.09184      0.00000     0.40614    0.00203     0.40816
      H   24    0.09104      0.00000     0.40741    0.00156     0.40896
      H   25    0.08854      0.00000     0.41053    0.00093     0.41146
      H   26    0.10988      0.00000     0.38918    0.00094     0.39012
      H   27    0.19488      0.00000     0.30228    0.00284     0.30512
      H   28    0.11130      0.00000     0.38494    0.00376     0.38870
      H   29    0.09618      0.00000     0.40275    0.00106     0.40382
      H   30    0.10321      0.00000     0.39588    0.00091     0.39679
      H   31    0.10207      0.00000     0.39707    0.00086     0.39793
      H   32    0.09765      0.00000     0.40064    0.00171     0.40235
      H   33    0.09795      0.00000     0.40063    0.00142     0.40205
      H   34    0.10253      0.00000     0.39613    0.00134     0.39747
      H   35    0.10101      0.00000     0.39776    0.00123     0.39899
      H   36    0.09762      0.00000     0.40098    0.00140     0.40238
      H   37    0.09887      0.00000     0.39989    0.00124     0.40113
      H   38    0.10676      0.00000     0.39108    0.00216     0.39324
      H   39    0.09774      0.00000     0.40115    0.00111     0.40226
      H   40    0.10388      0.00000     0.39508    0.00104     0.39612
      H   41    0.09904      0.00000     0.39993    0.00103     0.40096
      H   42    0.09971      0.00000     0.39914    0.00115     0.40029
 =======================================================================
   * Total *    0.00000     18.99267    51.77461    0.23272    71.00000

 Normal termination of Gaussian 16 at Sun Dec 13 18:06:31 2020.
