 Gaussian 16, Revision A.03,

 -----------------------------------------------------------
 # opt freq B3LYP/6-31G(d) empiricaldispersion=gd3bj scf=xqc
 -----------------------------------------------------------

 -------------------------------
 CID_79850120_JID_10250_neutraal
 -------------------------------
 Symbolic Z-matrix:
 Charge =  0 Multiplicity = 1

 SCF Done:  E(RB3LYP) =  -1632.73215959     A.U. after   15 cycles
 SCF Done:  E(RB3LYP) =  -1632.74313504     A.U. after   13 cycles
 SCF Done:  E(RB3LYP) =  -1632.74538286     A.U. after   14 cycles
 SCF Done:  E(RB3LYP) =  -1632.74610024     A.U. after   12 cycles
 SCF Done:  E(RB3LYP) =  -1632.74656175     A.U. after   12 cycles
 SCF Done:  E(RB3LYP) =  -1632.74668237     A.U. after   13 cycles
 SCF Done:  E(RB3LYP) =  -1632.74748119     A.U. after   12 cycles
 SCF Done:  E(RB3LYP) =  -1632.74786487     A.U. after   12 cycles
 SCF Done:  E(RB3LYP) =  -1632.74818758     A.U. after   13 cycles
 SCF Done:  E(RB3LYP) =  -1632.74848587     A.U. after   12 cycles
 SCF Done:  E(RB3LYP) =  -1632.74878431     A.U. after   10 cycles
 SCF Done:  E(RB3LYP) =  -1632.74878682     A.U. after    9 cycles
 SCF Done:  E(RB3LYP) =  -1632.74878880     A.U. after    9 cycles
 SCF Done:  E(RB3LYP) =  -1632.74878927     A.U. after    8 cycles
 SCF Done:  E(RB3LYP) =  -1632.74878932     A.U. after    7 cycles
 Optimization completed.
    -- Stationary point found.
 Normal termination of Gaussian 16 at Mon Dec 14 17:47:05 2020.

 --------------------------------------------------------------------
 #N Geom=AllCheck Guess=TCheck SCRF=Check GenChk RB3LYP/6-31G(d) Freq
 --------------------------------------------------------------------

 Structure from the checkpoint file:  "JID_10250.chk"
 -------------------------------
 CID_79850120_JID_10250_neutraal
 -------------------------------
 Charge =  0 Multiplicity = 1

 SCF Done:  E(RB3LYP) =  -1632.74878932     A.U. after    1 cycles

  Exact polarizability: 165.771  18.798 190.649 -16.857   7.730 192.576
 Approx polarizability: 248.019  43.538 306.167 -36.103  -0.024 322.871

                      1                      2                      3
                      A                      A                      A
 Frequencies --     27.7282                38.3289                49.0302
 Red. masses --      7.2174                 6.2066                 8.2261
 Frc consts  --      0.0033                 0.0054                 0.0117
 IR Inten    --      1.4908                 2.5210                 1.3132

                      4                      5                      6
                      A                      A                      A
 Frequencies --     56.5002                69.4939                73.9575
 Red. masses --      3.3555                 4.3110                 4.5218
 Frc consts  --      0.0063                 0.0123                 0.0146
 IR Inten    --      0.5264                 0.5984                 2.0667

                      7                      8                      9
                      A                      A                      A
 Frequencies --     94.7454               121.8637               153.7670
 Red. masses --      6.3703                 4.0906                 4.5944
 Frc consts  --      0.0337                 0.0358                 0.0640
 IR Inten    --      0.3177                 2.0352                 1.5416

                     10                     11                     12
                      A                      A                      A
 Frequencies --    174.1034               200.2456               226.2750
 Red. masses --      4.1612                 2.9567                 1.2818
 Frc consts  --      0.0743                 0.0699                 0.0387
 IR Inten    --      2.7501                 0.8321                 0.0809

                     13                     14                     15
                      A                      A                      A
 Frequencies --    239.0141               251.8535               256.1767
 Red. masses --      5.8854                 3.5582                 1.2478
 Frc consts  --      0.1981                 0.1330                 0.0482
 IR Inten    --      2.6729                 3.9890                 0.4190

                     16                     17                     18
                      A                      A                      A
 Frequencies --    275.8446               296.1323               307.7042
 Red. masses --      3.0107                 2.5369                 3.5097
 Frc consts  --      0.1350                 0.1311                 0.1958
 IR Inten    --      0.1617                 5.7971                 3.1462

                     19                     20                     21
                      A                      A                      A
 Frequencies --    336.3994               367.6897               378.3724
 Red. masses --      3.3757                 5.1097                 5.9913
 Frc consts  --      0.2251                 0.4070                 0.5054
 IR Inten    --      2.0057                 0.8324                 2.0561

                     22                     23                     24
                      A                      A                      A
 Frequencies --    419.8194               431.5535               446.4573
 Red. masses --      2.9710                 4.1456                 4.1477
 Frc consts  --      0.3085                 0.4549                 0.4871
 IR Inten    --      0.4187                23.7367                 1.7665

                     25                     26                     27
                      A                      A                      A
 Frequencies --    469.5603               491.3852               517.0528
 Red. masses --      5.7074                 6.2455                 2.6615
 Frc consts  --      0.7414                 0.8885                 0.4192
 IR Inten    --      8.4646                51.2685                23.2009

                     28                     29                     30
                      A                      A                      A
 Frequencies --    519.6579               539.6837               619.2114
 Red. masses --      4.1464                 1.7031                 4.0838
 Frc consts  --      0.6597                 0.2923                 0.9226
 IR Inten    --     10.7281                40.7064                17.2975

                     31                     32                     33
                      A                      A                      A
 Frequencies --    631.7478               646.8389               675.9135
 Red. masses --      6.0655                 4.4099                 4.5664
 Frc consts  --      1.4263                 1.0871                 1.2292
 IR Inten    --      0.7117                 5.8566                11.7523

                     34                     35                     36
                      A                      A                      A
 Frequencies --    686.8836               707.7015               717.8173
 Red. masses --      5.3702                 1.9714                 6.1239
 Frc consts  --      1.4928                 0.5817                 1.8591
 IR Inten    --      9.1175                47.9946                 3.3200

                     37                     38                     39
                      A                      A                      A
 Frequencies --    741.3237               760.1185               780.1551
 Red. masses --      4.4070                 4.8945                 2.0802
 Frc consts  --      1.4270                 1.6662                 0.7460
 IR Inten    --     17.7128                28.9668                17.7888

                     40                     41                     42
                      A                      A                      A
 Frequencies --    840.9813               861.1702               922.3450
 Red. masses --      1.2552                 2.2765                 1.3838
 Frc consts  --      0.5230                 0.9947                 0.6936
 IR Inten    --      0.2044                 4.4841                 2.8987

                     43                     44                     45
                      A                      A                      A
 Frequencies --    964.8193               967.8136               992.1161
 Red. masses --      1.4471                 2.2144                 1.4992
 Frc consts  --      0.7937                 1.2221                 0.8694
 IR Inten    --      3.8613                18.3808                 4.8522

                     46                     47                     48
                      A                      A                      A
 Frequencies --    997.9042               998.6891              1020.0577
 Red. masses --      1.4823                 1.3737                 2.0414
 Frc consts  --      0.8697                 0.8072                 1.2515
 IR Inten    --      9.1786                 3.1656                 9.2620

                     49                     50                     51
                      A                      A                      A
 Frequencies --   1024.7217              1032.4955              1038.5324
 Red. masses --      6.2762                 4.8266                 4.1689
 Frc consts  --      3.8829                 3.0316                 2.6492
 IR Inten    --      1.1248                 3.5795                14.2668

                     52                     53                     54
                      A                      A                      A
 Frequencies --   1066.8903              1076.5742              1115.4620
 Red. masses --      2.0230                 2.9143                 1.8585
 Frc consts  --      1.3567                 1.9901                 1.3625
 IR Inten    --      0.7563                13.9963                 4.4503

                     55                     56                     57
                      A                      A                      A
 Frequencies --   1118.0839              1127.4315              1151.5262
 Red. masses --      5.7302                 2.7599                 3.4985
 Frc consts  --      4.2205                 2.0669                 2.7333
 IR Inten    --    220.6275                30.5073                22.4417

                     58                     59                     60
                      A                      A                      A
 Frequencies --   1169.5907              1196.9513              1202.7186
 Red. masses --      1.4850                 1.0969                 1.2527
 Frc consts  --      1.1969                 0.9259                 1.0677
 IR Inten    --      6.0179                 0.0413                14.8027

                     61                     62                     63
                      A                      A                      A
 Frequencies --   1212.7765              1236.1860              1249.3831
 Red. masses --      1.1414                 4.4021                 2.2306
 Frc consts  --      0.9891                 3.9634                 2.0514
 IR Inten    --      0.5476                61.3601                11.0458

                     64                     65                     66
                      A                      A                      A
 Frequencies --   1267.2619              1299.4422              1312.1783
 Red. masses --      2.2569                 1.4015                 3.6208
 Frc consts  --      2.1355                 1.3943                 3.6731
 IR Inten    --     66.1518                37.0592                83.3139

                     67                     68                     69
                      A                      A                      A
 Frequencies --   1337.2630              1354.3598              1360.1567
 Red. masses --      2.3958                 1.8688                 3.4649
 Frc consts  --      2.5243                 2.0197                 3.7768
 IR Inten    --    175.8686                 6.9485                61.3469

                     70                     71                     72
                      A                      A                      A
 Frequencies --   1369.2946              1379.5844              1402.8040
 Red. masses --      1.8939                 1.2312                 2.5520
 Frc consts  --      2.0922                 1.3806                 2.9588
 IR Inten    --      9.3167                18.4684                61.0721

                     73                     74                     75
                      A                      A                      A
 Frequencies --   1448.6003              1481.8068              1487.0310
 Red. masses --      1.7893                 1.0939                 1.3848
 Frc consts  --      2.2122                 1.4152                 1.8042
 IR Inten    --    107.2124                 5.1800                58.4989

                     76                     77                     78
                      A                      A                      A
 Frequencies --   1490.6062              1495.7359              1499.2056
 Red. masses --      1.1145                 1.1065                 1.7377
 Frc consts  --      1.4590                 1.4586                 2.3012
 IR Inten    --     23.2342                16.9198                73.2388

                     79                     80                     81
                      A                      A                      A
 Frequencies --   1510.7081              1514.3591              1533.0024
 Red. masses --      2.3684                 1.0699                 1.0611
 Frc consts  --      3.1847                 1.4457                 1.4692
 IR Inten    --     71.2333                13.0493                 6.1042

                     82                     83                     84
                      A                      A                      A
 Frequencies --   1543.9448              1551.0037              1621.4897
 Red. masses --      1.1442                 2.3891                 5.9243
 Frc consts  --      1.6070                 3.3861                 9.1774
 IR Inten    --      7.5027                52.1513               105.3215

                     85                     86                     87
                      A                      A                      A
 Frequencies --   1653.7011              1661.8973              3022.1420
 Red. masses --      6.1136                 5.5977                 1.0705
 Frc consts  --      9.8506                 9.1089                 5.7606
 IR Inten    --     15.1477                 6.4744                14.7530

                     88                     89                     90
                      A                      A                      A
 Frequencies --   3031.6143              3094.1708              3100.6856
 Red. masses --      1.0447                 1.0297                 1.0792
 Frc consts  --      5.6572                 5.8084                 6.1134
 IR Inten    --     55.1345                 0.2815                 8.7836

                     91                     92                     93
                      A                      A                      A
 Frequencies --   3109.6668              3113.6599              3154.6931
 Red. masses --      1.0924                 1.0805                 1.1035
 Frc consts  --      6.2241                 6.1717                 6.4705
 IR Inten    --     20.6549                13.7933                18.0634

                     94                     95                     96
                      A                      A                      A
 Frequencies --   3180.2318              3189.3710              3196.4493
 Red. masses --      1.0980                 1.1048                 1.0863
 Frc consts  --      6.5429                 6.6213                 6.5391
 IR Inten    --     12.3494                 0.6715                 0.7949

                     97                     98                     99
                      A                      A                      A
 Frequencies --   3208.3679              3208.6321              3218.8790
 Red. masses --      1.1018                 1.0968                 1.0949
 Frc consts  --      6.6821                 6.6532                 6.6841
 IR Inten    --      3.4508                 8.3142                21.6740

                    100                    101                    102
                      A                      A                      A
 Frequencies --   3236.1842              3243.2071              3671.7431
 Red. masses --      1.0939                 1.0937                 1.0822
 Frc consts  --      6.7497                 6.7778                 8.5959
 IR Inten    --      4.1838                 1.0241               108.3692

 - Thermochemistry -
 -------------------
 Temperature   298.150 Kelvin.  Pressure   1.00000 Atm.
 Atom     1 has atomic number  6 and mass  12.00000

 Molecular mass:   312.07147 amu.
 Principal axes and moments of inertia in atomic units:
                           1         2         3
     Eigenvalues --  5382.107237123.039467805.10029
           X            0.99812   0.06123  -0.00373
           Y           -0.06129   0.99790  -0.02110
           Z            0.00243   0.02129   0.99977
 This molecule is an asymmetric top.
 Rotational symmetry number  1.
 Warning -- assumption of classical behavior for rotation
           may cause significant error
 Rotational temperatures (Kelvin)      0.01609     0.01216     0.01110
 Rotational constants (GHZ):           0.33532     0.25337     0.23123
 Zero-point vibrational energy     747298.0 (Joules/Mol)
                                  178.60850 (Kcal/Mol)
 Warning -- explicit consideration of  30 degrees of freedom as
           vibrations may cause significant error
 Vibrational temperatures:     39.89    55.15    70.54    81.29    99.99
          (Kelvin)            106.41   136.32   175.33   221.24   250.50
                              288.11   325.56   343.89   362.36   368.58
                              396.88   426.07   442.72   484.00   529.02
                              544.39   604.03   620.91   642.35   675.59
                              706.99   743.92   747.67   776.48   890.91
                              908.94   930.66   972.49   988.27  1018.22
                             1032.78  1066.60  1093.64  1122.47  1209.98
                             1239.03  1327.05  1388.16  1392.47  1427.43
                             1435.76  1436.89  1467.64  1474.35  1485.53
                             1494.22  1535.02  1548.95  1604.90  1608.67
                             1622.12  1656.79  1682.78  1722.15  1730.44
                             1744.91  1778.60  1797.58  1823.31  1869.61
                             1887.93  1924.02  1948.62  1956.96  1970.11
                             1984.91  2018.32  2084.21  2131.99  2139.51
                             2144.65  2152.03  2157.02  2173.57  2178.82
                             2205.65  2221.39  2231.55  2332.96  2379.31
                             2391.10  4348.19  4361.82  4451.82  4461.20
                             4474.12  4479.86  4538.90  4575.64  4588.79
                             4598.98  4616.13  4616.51  4631.25  4656.15
                             4666.25  5282.82

 Zero-point correction=                           0.284631 (Hartree/Particle)
 Thermal correction to Energy=                    0.303990
 Thermal correction to Enthalpy=                  0.304934
 Thermal correction to Gibbs Free Energy=         0.235584
 Sum of electronic and zero-point Energies=          -1632.464159
 Sum of electronic and thermal Energies=             -1632.444799
 Sum of electronic and thermal Enthalpies=           -1632.443855
 Sum of electronic and thermal Free Energies=        -1632.513206

                     E (Thermal)             CV                S
                      KCal/Mol        Cal/Mol-Kelvin    Cal/Mol-Kelvin
 Total                  190.757             72.788            145.960
 Electronic               0.000              0.000              0.000
 Translational            0.889              2.981             43.110
 Rotational               0.889              2.981             34.058
 Vibrational            188.979             66.827             68.792
 Vibration     1          0.593              1.984              5.986
 Vibration     2          0.594              1.982              5.344
 Vibration     3          0.595              1.978              4.856
 Vibration     4          0.596              1.975              4.576
 Vibration     5          0.598              1.969              4.168
 Vibration     6          0.599              1.966              4.045
 Vibration     7          0.603              1.953              3.560
 Vibration     8          0.609              1.931              3.071
 Vibration     9          0.619              1.898              2.625
 Vibration    10          0.627              1.874              2.391
 Vibration    11          0.638              1.840              2.131
 Vibration    12          0.650              1.801              1.908
 Vibration    13          0.657              1.781              1.810
 Vibration    14          0.664              1.760              1.718
 Vibration    15          0.666              1.752              1.688
 Vibration    16          0.677              1.718              1.559
 Vibration    17          0.690              1.681              1.439
 Vibration    18          0.698              1.659              1.375
 Vibration    19          0.717              1.603              1.229
 Vibration    20          0.740              1.539              1.089
 Vibration    21          0.749              1.516              1.046
 Vibration    22          0.782              1.427              0.893
 Vibration    23          0.793              1.402              0.854
 Vibration    24          0.806              1.369              0.807
 Vibration    25          0.827              1.318              0.739
 Vibration    26          0.847              1.269              0.680
 Vibration    27          0.872              1.212              0.617
 Vibration    28          0.875              1.206              0.611
 Vibration    29          0.895              1.162              0.566
 Vibration    30          0.979              0.991              0.418

                           ! Non-Optimized Parameters !
 Normal termination of Gaussian 16 at Mon Dec 14 18:08:52 2020.

 ----------------------------------------------------------------------
 # B3LYP/6-311++G(d,p) empiricaldispersion=gd3bj scf=xqc pop=npa geom=c
 heck
 ----------------------------------------------------------------------

 ---------------------------------------
 CID_79850120_JID_10250_Energie_neutraal
 ---------------------------------------
 Structure from the checkpoint file:  "JID_10250.chk"
 Charge =  0 Multiplicity = 1

 SCF Done:  E(RB3LYP) =  -1633.03089470     A.U. after   16 cycles
 Normal termination of Gaussian 16 at Mon Dec 14 18:18:54 2020.

 ----------------------------------------------------------------------
 # B3LYP/6-311++G(d,p) empiricaldispersion=gd3bj scf=xqc pop=npa geom=c
 heck
 ----------------------------------------------------------------------

 -------------------------------------
 CID_79850120_JID_10250_Energie_kation
 -------------------------------------
 Structure from the checkpoint file:  "JID_10250.chk"
 Charge =  1 Multiplicity = 2

 SCF Done:  E(UB3LYP) =  -1632.73860310     A.U. after   27 cycles
 Normal termination of Gaussian 16 at Mon Dec 14 18:43:41 2020.
 Gaussian 16:  ES64L-G16RevA.03 25-Dec-2016

 ----------------------------------------------------------------------
 # B3LYP/6-311++G(d,p) empiricaldispersion=gd3bj scf=xqc pop=npa geom=c
 heck
 ----------------------------------------------------------------------

 ------------------------------------
 CID_79850120_JID_10250_Energie_anion
 ------------------------------------
 Structure from the checkpoint file:  "JID_10250.chk"
 Charge = -1 Multiplicity = 2

                         Standard orientation:
 ---------------------------------------------------------------------
 Center     Atomic      Atomic             Coordinates (Angstroms)
 Number     Number       Type             X           Y           Z
 ---------------------------------------------------------------------
      1          6           0       -0.615389   -1.291305    3.313071
      2          7           0       -0.500416   -0.531288    2.060237
      3          6           0       -1.755806    0.190883    1.760364
      4          6           0       -1.652265    1.204175    0.613983
      5         16           0       -2.629133    0.813586   -0.872254
      6          8           0       -3.959193    0.374620   -0.416940
      7          8           0       -2.480258    1.968510   -1.770453
      8          6           0       -1.837821   -0.603501   -1.658168
      9          6           0        0.026499   -1.290021    1.016409
     10          7           0       -0.275029   -2.530871    0.745891
     11          7           0        0.511973   -2.837525   -0.332903
     12          6           0        1.305518   -1.821530   -0.770983
     13         16           0        2.359354   -1.835303   -2.057537
     14          7           0        0.990082   -0.801416    0.131382
     15          6           0        1.623305    0.478250    0.185272
     16          6           0        1.657321    1.281510   -0.956079
     17          6           0        2.250052    2.541133   -0.884700
     18          6           0        2.800014    2.993071    0.315385
     19          6           0        2.764423    2.179074    1.448930
     20          6           0        2.180667    0.915453    1.387770
     21          1           0       -0.820996   -0.587740    4.125318
     22          1           0        0.331380   -1.796252    3.516146
     23          1           0       -1.414795   -2.044990    3.281994
     24          1           0       -2.583444   -0.510376    1.573367
     25          1           0       -2.008028    0.732514    2.675767
     26          1           0       -2.094510    2.161829    0.903604
     27          1           0       -0.627788    1.407578    0.302974
     28          1           0       -0.824891   -0.342741   -1.965472
     29          1           0       -1.845330   -1.454375   -0.976443
     30          1           0       -2.449433   -0.821974   -2.536462
     31          1           0        0.491550   -3.760747   -0.739849
     32          1           0        1.235941    0.920498   -1.885921
     33          1           0        2.276265    3.168164   -1.770148
     34          1           0        3.257270    3.976532    0.367070
     35          1           0        3.196448    2.524102    2.383339
     36          1           0        2.147065    0.274948    2.260739
 ---------------------------------------------------------------------

 SCF Done:  E(UB3LYP) =  -1633.03173789     A.U. after   33 cycles
 SCF Done:  E(UB3LYP) =  -1633.03173789     a.u. after    1 cycles

 The electronic state is 2-A.
 Alpha  occ. eigenvalues --  -88.95832 -88.68674 -19.02620 -19.02514 -14.29550
 Alpha  occ. eigenvalues --  -14.28121 -14.25216 -14.24463 -10.17504 -10.17285
 Alpha  occ. eigenvalues --  -10.13405 -10.12417 -10.11948 -10.10709 -10.09822
 Alpha  occ. eigenvalues --  -10.06724 -10.06620 -10.06540 -10.06420 -10.05664
 Alpha  occ. eigenvalues --   -8.02316  -7.77429  -5.98570  -5.98471  -5.98427
 Alpha  occ. eigenvalues --   -5.73870  -5.73218  -5.72975  -1.01896  -0.99497
 Alpha  occ. eigenvalues --   -0.91568  -0.87095  -0.84765  -0.75542  -0.74578
 Alpha  occ. eigenvalues --   -0.71697  -0.67779  -0.65529  -0.64319  -0.61751
 Alpha  occ. eigenvalues --   -0.60952  -0.59565  -0.55411  -0.51815  -0.50796
 Alpha  occ. eigenvalues --   -0.49164  -0.48299  -0.45619  -0.42638  -0.42187
 Alpha  occ. eigenvalues --   -0.41902  -0.41513  -0.39772  -0.38273  -0.37977
 Alpha  occ. eigenvalues --   -0.37125  -0.35929  -0.34746  -0.34264  -0.33867
 Alpha  occ. eigenvalues --   -0.33643  -0.33216  -0.31849  -0.31189  -0.30788
 Alpha  occ. eigenvalues --   -0.29462  -0.28490  -0.27012  -0.25815  -0.24977
 Alpha  occ. eigenvalues --   -0.24538  -0.23489  -0.23456  -0.22715  -0.21901
 Alpha  occ. eigenvalues --   -0.21549  -0.20402  -0.16578  -0.15367  -0.14393
 Alpha  occ. eigenvalues --   -0.11265  -0.10759   0.04052
 Alpha virt. eigenvalues --    0.05866   0.07111   0.07431   0.07780   0.08674
 Alpha virt. eigenvalues --    0.08813   0.09103   0.09150   0.09738   0.10044
 Alpha virt. eigenvalues --    0.10668   0.10854   0.11666   0.11986   0.12026

  Beta  occ. eigenvalues --  -88.95831 -88.68668 -19.02619 -19.02512 -14.29574
  Beta  occ. eigenvalues --  -14.28083 -14.25198 -14.24471 -10.17308 -10.17113
  Beta  occ. eigenvalues --  -10.13389 -10.12416 -10.11945 -10.10658 -10.09589
  Beta  occ. eigenvalues --  -10.06750 -10.06580 -10.06524 -10.06323 -10.05426
  Beta  occ. eigenvalues --   -8.02315  -7.77424  -5.98570  -5.98470  -5.98426
  Beta  occ. eigenvalues --   -5.73874  -5.73193  -5.72973  -1.01893  -0.99380
  Beta  occ. eigenvalues --   -0.91566  -0.86990  -0.84564  -0.75414  -0.74331
  Beta  occ. eigenvalues --   -0.71675  -0.67760  -0.65162  -0.64115  -0.61612
  Beta  occ. eigenvalues --   -0.60838  -0.59492  -0.55141  -0.51741  -0.50742
  Beta  occ. eigenvalues --   -0.49007  -0.48094  -0.45498  -0.42579  -0.42066
  Beta  occ. eigenvalues --   -0.41840  -0.41442  -0.39665  -0.38236  -0.37813
  Beta  occ. eigenvalues --   -0.36944  -0.35881  -0.34665  -0.34192  -0.33814
  Beta  occ. eigenvalues --   -0.33569  -0.33096  -0.31797  -0.31113  -0.30733
  Beta  occ. eigenvalues --   -0.29394  -0.28248  -0.26497  -0.25682  -0.24819
  Beta  occ. eigenvalues --   -0.24477  -0.23458  -0.23286  -0.22462  -0.21761
  Beta  occ. eigenvalues --   -0.21135  -0.20389  -0.16288  -0.14774  -0.13525
  Beta  occ. eigenvalues --   -0.11214  -0.10549
  Beta virt. eigenvalues --    0.06359   0.07204   0.07568   0.07818   0.08403
  Beta virt. eigenvalues --    0.08881   0.09084   0.09181   0.09512   0.09865
  Beta virt. eigenvalues --    0.10573   0.10887   0.11448   0.11872   0.12034

 Mulliken charges and spin densities:
               1          2
     1  C    0.738976  -1.077211
     2  N    0.331593   0.041498
     3  C   -0.333579  -0.111367
     4  C   -0.750607   0.057311
     5  S    0.443852  -0.027347
     6  O   -0.123318   0.001462
     7  O   -0.125829  -0.000586
     8  C   -0.762898  -0.061332
     9  C   -0.735189   0.216431
    10  N   -0.079484   0.053276
    11  N   -0.067729   0.026456
    12  C    0.080474   0.133807
    13  S   -0.803479   0.025361
    14  N    0.476036  -0.025846
    15  C   -0.207941   0.021775
    16  C    0.144349   0.060953
    17  C   -0.600737   0.079686
    18  C   -0.190808  -0.052754
    19  C    0.011529  -0.288820
    20  C    0.103720   0.205802
    21  H   -0.395709   0.537031
    22  H   -0.216005   0.378087
    23  H   -0.015621   0.181543
    24  H    0.217424  -0.005991
    25  H    0.149786   0.037702
    26  H    0.223821   0.025608
    27  H    0.371787  -0.034834
    28  H    0.226820   0.017760
    29  H    0.112388   0.102667
    30  H    0.224425   0.011760
    31  H    0.293873   0.069148
    32  H    0.090366   0.001222
    33  H    0.141086   0.015798
    34  H    0.122725  -0.010872
    35  H   -0.071469   0.240466
    36  H   -0.024629   0.154349
 Sum of Mulliken charges =  -1.00000   1.00000

 Dipole moment (field-independent basis, Debye):
    X=             -2.4101    Y=             -0.1201    Z=             -0.8377  Tot=              2.5543
 Quadrupole moment (field-independent basis, Debye-Ang):
   XX=           -194.9982   YY=           -163.3602   ZZ=           -182.2476
   XY=              7.4152   XZ=              2.3697   YZ=              5.8938

 Summary of Natural Population Analysis:

                                       Natural Population
                Natural  -----------------------------------------------
    Atom  No    Charge         Core      Valence    Rydberg      Total
 -----------------------------------------------------------------------
      C    1   -0.17142      0.99964     2.16322    0.00857     3.17142
      N    2   -0.28237      0.99967     2.77084    0.01186     3.78237
      C    3   -0.08733      0.99959     2.07617    0.01158     3.08733
      C    4   -0.30330      0.99956     2.29248    0.01126     3.30330
      S    5    1.01788      4.99931     1.88663    0.09618     6.98212
      O    6   -0.47436      0.99991     3.46899    0.00547     4.47436
      O    7   -0.46889      0.99991     3.46348    0.00550     4.46889
      C    8   -0.39702      0.99960     2.39016    0.00726     3.39702
      C    9    0.31564      0.99957     1.66573    0.01907     2.68436
      N   10   -0.17127      0.99966     2.66064    0.01097     3.67127
      N   11   -0.20606      0.99963     2.69280    0.01363     3.70606
      C   12    0.14687      0.99963     1.83291    0.02059     2.85313
      S   13   -0.13754      4.99958     3.12398    0.01398     8.13754
      N   14   -0.22996      0.99956     2.71604    0.01437     3.72996
      C   15    0.09355      0.99945     1.89427    0.01273     2.90645
      C   16   -0.09202      0.99952     2.08451    0.00799     3.09202
      C   17   -0.10290      0.99957     2.09483    0.00849     3.10290
      C   18   -0.06275      0.99957     2.05402    0.00916     3.06275
      C   19   -0.11224      0.99957     2.10213    0.01055     3.11224
      C   20   -0.08090      0.99951     2.07166    0.00973     3.08090
      H   21    0.09699      0.00000     0.40134    0.00167     0.40301
      H   22    0.10324      0.00000     0.39558    0.00118     0.39676
      H   23    0.08956      0.00000     0.40914    0.00130     0.41044
      H   24    0.09895      0.00000     0.39962    0.00143     0.40105
      H   25    0.10216      0.00000     0.39671    0.00112     0.39784
      H   26    0.12059      0.00000     0.37831    0.00109     0.37941
      H   27    0.13389      0.00000     0.36435    0.00176     0.36611
      H   28    0.12148      0.00000     0.37719    0.00132     0.37852
      H   29    0.12077      0.00000     0.37761    0.00162     0.37923
      H   30    0.11783      0.00000     0.38096    0.00121     0.38217
      H   31    0.20311      0.00000     0.29481    0.00208     0.29689
      H   32    0.10671      0.00000     0.39176    0.00153     0.39329
      H   33    0.09616      0.00000     0.40265    0.00119     0.40384
      H   34    0.09315      0.00000     0.40608    0.00077     0.40685
      H   35    0.09780      0.00000     0.40139    0.00081     0.40220
      H   36    0.10400      0.00000     0.39437    0.00163     0.39600
 =======================================================================
   * Total *   -0.00000     27.99201    53.67732    0.33067    82.00000

 Normal termination of Gaussian 16 at Mon Dec 14 19:15:57 2020.
