 Gaussian 16, Revision A.03,

 -----------------------------------------------------------
 # opt freq B3LYP/6-31G(d) empiricaldispersion=gd3bj scf=xqc
 -----------------------------------------------------------

 ------------------------------
 CID_53764435_JID_1036_neutraal
 ------------------------------
 Symbolic Z-matrix:
 Charge =  0 Multiplicity = 1

 SCF Done:  E(RB3LYP) =  -515.413551470     A.U. after   17 cycles
 SCF Done:  E(RB3LYP) =  -515.416328595     A.U. after   14 cycles
 SCF Done:  E(RB3LYP) =  -515.416783415     A.U. after   14 cycles
 SCF Done:  E(RB3LYP) =  -515.416856071     A.U. after   13 cycles
 SCF Done:  E(RB3LYP) =  -515.416873067     A.U. after   13 cycles
 SCF Done:  E(RB3LYP) =  -515.416877210     A.U. after   12 cycles
 SCF Done:  E(RB3LYP) =  -515.416878182     A.U. after   11 cycles
 SCF Done:  E(RB3LYP) =  -515.416878411     A.U. after    9 cycles
 Optimization completed.
    -- Stationary point found.
 Normal termination of Gaussian 16 at Tue Dec  8 19:09:26 2020.

 --------------------------------------------------------------------
 #N Geom=AllCheck Guess=TCheck SCRF=Check GenChk RB3LYP/6-31G(d) Freq
 --------------------------------------------------------------------

 Structure from the checkpoint file:  "JID_1036.chk"
 ------------------------------
 CID_53764435_JID_1036_neutraal
 ------------------------------
 Charge =  0 Multiplicity = 1

 SCF Done:  E(RB3LYP) =  -515.416878411     A.U. after    1 cycles

  Exact polarizability: 135.236  -6.333 101.087  -5.841  -3.046  52.292
 Approx polarizability: 211.126 -10.203 168.310  -9.817  -8.895  81.785

                      1                      2                      3
                      A                      A                      A
 Frequencies --     52.2334                85.4749               121.7616
 Red. masses --      7.3451                 5.4366                 7.4380
 Frc consts  --      0.0118                 0.0234                 0.0650
 IR Inten    --      1.1612                 1.0282                 0.1260

                      4                      5                      6
                      A                      A                      A
 Frequencies --    148.9579               212.0729               236.8620
 Red. masses --      1.1291                 2.7034                 6.5374
 Frc consts  --      0.0148                 0.0716                 0.2161
 IR Inten    --      1.0716                 3.9376                 1.5205

                      7                      8                      9
                      A                      A                      A
 Frequencies --    303.3241               316.9155               374.8011
 Red. masses --      3.1419                 3.5998                 1.1211
 Frc consts  --      0.1703                 0.2130                 0.0928
 IR Inten    --      0.2844                 3.6767               105.0327

                     10                     11                     12
                      A                      A                      A
 Frequencies --    383.3003               451.7321               483.1629
 Red. masses --      5.6680                 3.4544                 3.2968
 Frc consts  --      0.4906                 0.4153                 0.4535
 IR Inten    --     18.5711                 2.7876                 4.6081

                     13                     14                     15
                      A                      A                      A
 Frequencies --    504.6604               555.0454               568.2567
 Red. masses --      4.1065                 4.6145                 3.2740
 Frc consts  --      0.6162                 0.8376                 0.6229
 IR Inten    --      4.1369                 1.3484                 3.8202

                     16                     17                     18
                      A                      A                      A
 Frequencies --    600.1912               724.6236               746.9192
 Red. masses --      2.9504                 4.0289                 6.1277
 Frc consts  --      0.6262                 1.2464                 2.0142
 IR Inten    --      8.1803                 1.9821                 2.9496

                     19                     20                     21
                      A                      A                      A
 Frequencies --    778.8566               797.8659               827.8829
 Red. masses --      3.7567                 1.8451                 2.5770
 Frc consts  --      1.3427                 0.6920                 1.0407
 IR Inten    --      9.5788                12.1594                25.0688

                     22                     23                     24
                      A                      A                      A
 Frequencies --    882.1173               930.5950               977.8306
 Red. masses --      1.3926                 1.3136                 3.4531
 Frc consts  --      0.6385                 0.6702                 1.9453
 IR Inten    --     14.0634                 0.1909                16.0799

                     25                     26                     27
                      A                      A                      A
 Frequencies --   1031.2055              1043.0549              1075.3833
 Red. masses --      1.8949                 1.5363                 1.5156
 Frc consts  --      1.1872                 0.9848                 1.0327
 IR Inten    --      9.8650                12.0034                 3.1545

                     28                     29                     30
                      A                      A                      A
 Frequencies --   1134.4224              1194.2143              1201.5164
 Red. masses --      2.2562                 1.2611                 1.4082
 Frc consts  --      1.7107                 1.0597                 1.1978
 IR Inten    --      9.4068                13.2179                82.0995

                     31                     32                     33
                      A                      A                      A
 Frequencies --   1225.2029              1235.3267              1303.5006
 Red. masses --      1.4793                 1.8527                 1.4167
 Frc consts  --      1.3083                 1.6658                 1.4182
 IR Inten    --    113.0871                 1.1864                 6.8100

                     34                     35                     36
                      A                      A                      A
 Frequencies --   1313.3345              1344.0175              1378.4577
 Red. masses --      2.0520                 2.3081                 4.6838
 Frc consts  --      2.0854                 2.4565                 5.2436
 IR Inten    --      9.7334               114.2161                30.2874

                     37                     38                     39
                      A                      A                      A
 Frequencies --   1448.0847              1493.5501              1504.4975
 Red. masses --      1.2301                 1.2757                 1.6703
 Frc consts  --      1.5198                 1.6766                 2.2275
 IR Inten    --      1.4091                13.1006                 1.3815

                     40                     41                     42
                      A                      A                      A
 Frequencies --   1517.1716              1527.4911              1553.8753
 Red. masses --      1.0698                 1.4650                 2.1917
 Frc consts  --      1.4508                 2.0140                 3.1180
 IR Inten    --     11.1877                10.4066                58.4425

                     43                     44                     45
                      A                      A                      A
 Frequencies --   1640.0254              1660.6075              1680.6286
 Red. masses --      6.3564                11.2813                 6.0237
 Frc consts  --     10.0730                18.3292                10.0243
 IR Inten    --    116.1704                95.5780                99.4487

                     46                     47                     48
                      A                      A                      A
 Frequencies --   3048.2205              3066.9839              3109.0421
 Red. masses --      1.0425                 1.0558                 1.0933
 Frc consts  --      5.7071                 5.8511                 6.2267
 IR Inten    --     18.3983                21.0309                12.3163

                     49                     50                     51
                      A                      A                      A
 Frequencies --   3132.9278              3141.5293              3173.6664
 Red. masses --      1.1092                 1.1031                 1.0880
 Frc consts  --      6.4144                 6.4140                 6.4565
 IR Inten    --     14.2230                11.8679                16.3961

                     52                     53                     54
                      A                      A                      A
 Frequencies --   3194.9980              3208.5215              3750.5233
 Red. masses --      1.0939                 1.0908                 1.0659
 Frc consts  --      6.5790                 6.6161                 8.8341
 IR Inten    --     16.5118                 6.0665                51.8929

 - Thermochemistry -
 -------------------
 Temperature   298.150 Kelvin.  Pressure   1.00000 Atm.
 Atom     1 has atomic number  6 and mass  12.00000

 Molecular mass:   151.06333 amu.
 Principal axes and moments of inertia in atomic units:
                           1         2         3
     Eigenvalues --   771.995562624.067743121.00988
           X            0.99978  -0.01561  -0.01407
           Y            0.01561   0.99988  -0.00042
           Z            0.01408   0.00021   0.99990
 This molecule is an asymmetric top.
 Rotational symmetry number  1.
 Warning -- assumption of classical behavior for rotation
           may cause significant error
 Rotational temperatures (Kelvin)      0.11219     0.03301     0.02775
 Rotational constants (GHZ):           2.33776     0.68776     0.57826
 Zero-point vibrational energy     415088.8 (Joules/Mol)
                                   99.20860 (Kcal/Mol)
 Warning -- explicit consideration of  16 degrees of freedom as
           vibrations may cause significant error
 Vibrational temperatures:     75.15   122.98   175.19   214.32   305.13
          (Kelvin)            340.79   436.42   455.97   539.26   551.48
                              649.94   695.16   726.09   798.59   817.59
                              863.54  1042.57  1074.65  1120.60  1147.95
                             1191.14  1269.17  1338.92  1406.88  1483.67
                             1500.72  1547.24  1632.18  1718.21  1728.71
                             1762.79  1777.36  1875.45  1889.60  1933.74
                             1983.29  2083.47  2148.89  2164.64  2182.87
                             2197.72  2235.68  2359.63  2389.24  2418.05
                             4385.71  4412.71  4473.22  4507.58  4519.96
                             4566.20  4596.89  4616.35  5396.17

 Zero-point correction=                           0.158099 (Hartree/Particle)
 Thermal correction to Energy=                    0.168462
 Thermal correction to Enthalpy=                  0.169406
 Thermal correction to Gibbs Free Energy=         0.121956
 Sum of electronic and zero-point Energies=           -515.258779
 Sum of electronic and thermal Energies=              -515.248416
 Sum of electronic and thermal Enthalpies=            -515.247472
 Sum of electronic and thermal Free Energies=         -515.294922

                     E (Thermal)             CV                S
                      KCal/Mol        Cal/Mol-Kelvin    Cal/Mol-Kelvin
 Total                  105.712             38.792             99.867
 Electronic               0.000              0.000              0.000
 Translational            0.889              2.981             40.948
 Rotational               0.889              2.981             30.226
 Vibrational            103.934             32.831             28.694
 Vibration     1          0.596              1.977              4.731
 Vibration     2          0.601              1.959              3.761
 Vibration     3          0.609              1.931              3.072
 Vibration     4          0.618              1.904              2.685
 Vibration     5          0.643              1.822              2.026
 Vibration     6          0.656              1.784              1.826
 Vibration     7          0.695              1.667              1.398
 Vibration     8          0.704              1.641              1.326
 Vibration     9          0.746              1.524              1.060
 Vibration    10          0.752              1.506              1.026
 Vibration    11          0.810              1.357              0.791
 Vibration    12          0.839              1.287              0.702
 Vibration    13          0.860              1.240              0.647
 Vibration    14          0.910              1.129              0.534
 Vibration    15          0.924              1.100              0.508
 Vibration    16          0.958              1.031              0.449

                           ! Non-Optimized Parameters !
 Normal termination of Gaussian 16 at Tue Dec  8 19:12:58 2020.

 ----------------------------------------------------------------------
 # B3LYP/6-311++G(d,p) empiricaldispersion=gd3bj scf=xqc pop=npa geom=c
 heck
 ----------------------------------------------------------------------

 --------------------------------------
 CID_53764435_JID_1036_Energie_neutraal
 --------------------------------------
 Structure from the checkpoint file:  "JID_1036.chk"
 Charge =  0 Multiplicity = 1

 SCF Done:  E(RB3LYP) =  -515.568750444     A.U. after   17 cycles
 Normal termination of Gaussian 16 at Tue Dec  8 19:14:18 2020.

 ----------------------------------------------------------------------
 # B3LYP/6-311++G(d,p) empiricaldispersion=gd3bj scf=xqc pop=npa geom=c
 heck
 ----------------------------------------------------------------------

 ------------------------------------
 CID_53764435_JID_1036_Energie_kation
 ------------------------------------
 Structure from the checkpoint file:  "JID_1036.chk"
 Charge =  1 Multiplicity = 2

 SCF Done:  E(UB3LYP) =  -515.273369427     A.U. after   28 cycles
 Normal termination of Gaussian 16 at Tue Dec  8 19:17:14 2020.
 Gaussian 16:  ES64L-G16RevA.03 25-Dec-2016

 ----------------------------------------------------------------------
 # B3LYP/6-311++G(d,p) empiricaldispersion=gd3bj scf=xqc pop=npa geom=c
 heck
 ----------------------------------------------------------------------

 -----------------------------------
 CID_53764435_JID_1036_Energie_anion
 -----------------------------------
 Structure from the checkpoint file:  "JID_1036.chk"
 Charge = -1 Multiplicity = 2

                         Standard orientation:
 ---------------------------------------------------------------------
 Center     Atomic      Atomic             Coordinates (Angstroms)
 Number     Number       Type             X           Y           Z
 ---------------------------------------------------------------------
      1          6           0       -0.885081    2.072724    0.366253
      2          6           0        0.029956    0.877463    0.250304
      3          6           0       -0.448357   -0.437907    0.446190
      4          6           0        0.437564   -1.511383    0.319396
      5          6           0        1.783283   -1.315256    0.023852
      6          6           0        2.255703   -0.013512   -0.156265
      7          6           0        1.379390    1.069609   -0.040516
      8          8           0        3.560496    0.266663   -0.444239
      9          6           0       -1.908681   -0.703544    0.710310
     10          7           0       -2.589588   -0.806475   -0.636474
     11          8           0       -3.343126    0.114719   -0.861878
     12          1           0       -0.351832    2.995352    0.121951
     13          1           0       -1.750131    1.989064   -0.299201
     14          1           0       -1.279309    2.174768    1.385563
     15          1           0        0.067325   -2.523684    0.458009
     16          1           0        2.457964   -2.164090   -0.063863
     17          1           0        1.773572    2.070277   -0.187323
     18          1           0        4.054217   -0.565618   -0.507723
     19          1           0       -2.044129   -1.684248    1.178486
     20          1           0       -2.402183    0.073283    1.301210
 ---------------------------------------------------------------------

 SCF Done:  E(UB3LYP) =  -515.588715000     A.U. after   33 cycles
 SCF Done:  E(UB3LYP) =  -515.588715000     a.u. after    1 cycles

 The electronic state is 2-A.
 Alpha  occ. eigenvalues --  -19.04249 -18.93263 -14.16983 -10.11041 -10.05899
 Alpha  occ. eigenvalues --  -10.05090 -10.04565 -10.04521 -10.04183 -10.04175
 Alpha  occ. eigenvalues --  -10.02875  -0.95305  -0.92851  -0.73416  -0.65168
 Alpha  occ. eigenvalues --   -0.64182  -0.58592  -0.55453  -0.49102  -0.48065
 Alpha  occ. eigenvalues --   -0.42328  -0.41034  -0.36956  -0.34735  -0.31620
 Alpha  occ. eigenvalues --   -0.30789  -0.29758  -0.29118  -0.28677  -0.27471
 Alpha  occ. eigenvalues --   -0.27104  -0.25632  -0.24831  -0.21923  -0.20756
 Alpha  occ. eigenvalues --   -0.20327  -0.18277  -0.12839  -0.10175  -0.01437
 Alpha  occ. eigenvalues --    0.04433
 Alpha virt. eigenvalues --    0.06234   0.09393   0.09565   0.10720   0.11392
 Alpha virt. eigenvalues --    0.11600   0.12441   0.13272   0.14094   0.15193
 Alpha virt. eigenvalues --    0.15736   0.16706   0.16923   0.17711   0.18202

  Beta  occ. eigenvalues --  -19.04220 -18.92356 -14.15969 -10.10998 -10.05892
  Beta  occ. eigenvalues --  -10.05094 -10.04520 -10.04516 -10.04174 -10.04144
  Beta  occ. eigenvalues --  -10.02925  -0.95239  -0.91057  -0.73355  -0.65088
  Beta  occ. eigenvalues --   -0.63974  -0.58294  -0.55151  -0.48947  -0.47757
  Beta  occ. eigenvalues --   -0.41041  -0.40746  -0.36899  -0.34457  -0.31559
  Beta  occ. eigenvalues --   -0.30533  -0.29679  -0.28878  -0.28537  -0.26791
  Beta  occ. eigenvalues --   -0.26483  -0.25478  -0.23496  -0.21742  -0.20527
  Beta  occ. eigenvalues --   -0.17461  -0.16974  -0.12735  -0.09921  -0.00396
  Beta virt. eigenvalues --    0.06926   0.09356   0.09569   0.10688   0.11397
  Beta virt. eigenvalues --    0.11525   0.12326   0.13222   0.14096   0.15149
  Beta virt. eigenvalues --    0.15717   0.15968   0.16691   0.17335   0.17894

 Mulliken charges and spin densities:
               1          2
     1  C   -0.476878  -0.051155
     2  C   -0.136056   0.326033
     3  C    0.599650   0.467378
     4  C   -0.209767  -0.240803
     5  C    0.116221   0.128078
     6  C    0.038309  -0.498012
     7  C   -0.340845  -0.410620
     8  O   -0.261756   0.018454
     9  C   -0.217839  -0.221954
    10  N   -0.233550   0.472543
    11  O   -0.286002   0.291943
    12  H    0.116327  -0.001401
    13  H    0.187908  -0.002842
    14  H    0.137423   0.001869
    15  H    0.104975  -0.018130
    16  H   -0.280290   0.394968
    17  H    0.119593   0.003243
    18  H    0.016582   0.238368
    19  H    0.007277   0.102370
    20  H   -0.001280  -0.000330
 Sum of Mulliken charges =  -1.00000   1.00000

 Dipole moment (field-independent basis, Debye):
    X=              5.4092    Y=              1.4696    Z=              2.6949  Tot=              6.2194
 Quadrupole moment (field-independent basis, Debye-Ang):
   XX=           -117.7584   YY=            -75.5975   ZZ=            -79.1496
   XY=             -3.2681   XZ=             -8.2928   YZ=             -1.0185

 Summary of Natural Population Analysis:

                                       Natural Population
                Natural  -----------------------------------------------
    Atom  No    Charge         Core      Valence    Rydberg      Total
 -----------------------------------------------------------------------
      C    1   -0.29932      0.99963     2.29446    0.00522     3.29932
      C    2   -0.00034      0.99948     1.99126    0.00960     3.00034
      C    3   -0.02450      0.99946     2.01168    0.01337     3.02450
      C    4   -0.08067      0.99952     2.06840    0.01274     3.08067
      C    5   -0.15233      0.99952     2.14316    0.00966     3.15233
      C    6    0.15706      0.99939     1.83075    0.01281     2.84294
      C    7   -0.13339      0.99948     2.12408    0.00983     3.13339
      O    8   -0.34637      0.99988     3.34003    0.00646     4.34637
      C    9   -0.15340      0.99960     2.13831    0.01549     3.15340
      N   10    0.13813      0.99983     2.32966    0.03238     3.36187
      O   11   -0.11273      0.99989     3.10052    0.01231     4.11273
      H   12    0.09225      0.00000     0.40693    0.00082     0.40775
      H   13    0.12289      0.00000     0.37552    0.00159     0.37711
      H   14    0.09976      0.00000     0.39849    0.00176     0.40024
      H   15    0.09672      0.00000     0.40067    0.00261     0.40328
      H   16    0.09403      0.00000     0.40466    0.00131     0.40597
      H   17    0.09725      0.00000     0.40142    0.00132     0.40275
      H   18    0.23151      0.00000     0.26531    0.00318     0.26849
      H   19    0.09141      0.00000     0.40434    0.00425     0.40859
      H   20    0.08206      0.00000     0.41013    0.00782     0.41794
 =======================================================================
   * Total *    0.00000     10.99568    28.83979    0.16453    40.00000

 Normal termination of Gaussian 16 at Tue Dec  8 19:20:36 2020.
