 Gaussian 16, Revision A.03,

 -----------------------------------------------------------
 # opt freq B3LYP/6-31G(d) empiricaldispersion=gd3bj scf=xqc
 -----------------------------------------------------------

 -------------------------------
 CID_115238483_JID_7796_neutraal
 -------------------------------
 Symbolic Z-matrix:
 Charge =  0 Multiplicity = 1

 SCF Done:  E(RB3LYP) =  -1071.70738189     A.U. after   14 cycles
 SCF Done:  E(RB3LYP) =  -1071.71348475     A.U. after   12 cycles
 SCF Done:  E(RB3LYP) =  -1071.71380261     A.U. after   12 cycles
 SCF Done:  E(RB3LYP) =  -1071.71431526     A.U. after   12 cycles
 SCF Done:  E(RB3LYP) =  -1071.71535494     A.U. after   12 cycles
 SCF Done:  E(RB3LYP) =  -1071.71566449     A.U. after   11 cycles
 SCF Done:  E(RB3LYP) =  -1071.71618121     A.U. after   13 cycles
 SCF Done:  E(RB3LYP) =  -1071.71485038     A.U. after   15 cycles
 SCF Done:  E(RB3LYP) =  -1071.71686555     A.U. after   11 cycles
 SCF Done:  E(RB3LYP) =  -1071.71758932     A.U. after   14 cycles
 SCF Done:  E(RB3LYP) =  -1071.72204255     A.U. after    9 cycles
 SCF Done:  E(RB3LYP) =  -1071.72204398     A.U. after    8 cycles
 SCF Done:  E(RB3LYP) =  -1071.72204861     A.U. after    9 cycles
 SCF Done:  E(RB3LYP) =  -1071.72204884     A.U. after    7 cycles
 SCF Done:  E(RB3LYP) =  -1071.72204895     A.U. after    7 cycles
 Optimization completed.
    -- Stationary point found.
 Normal termination of Gaussian 16 at Fri Dec 11 13:47:33 2020.

 --------------------------------------------------------------------
 #N Geom=AllCheck Guess=TCheck SCRF=Check GenChk RB3LYP/6-31G(d) Freq
 --------------------------------------------------------------------

 Structure from the checkpoint file:  "JID_7796.chk"
 -------------------------------
 CID_115238483_JID_7796_neutraal
 -------------------------------
 Charge =  0 Multiplicity = 1

 SCF Done:  E(RB3LYP) =  -1071.72204895     A.U. after    1 cycles

  Exact polarizability: 150.412   0.490 174.821   6.689   2.995 165.322
 Approx polarizability: 204.832   0.269 270.306   9.749  -0.249 274.825

                      1                      2                      3
                      A                      A                      A
 Frequencies --     23.3781                48.5712                55.6376
 Red. masses --      4.1962                 4.3437                 5.1208
 Frc consts  --      0.0014                 0.0060                 0.0093
 IR Inten    --      0.2593                 0.4296                 0.4572

                      4                      5                      6
                      A                      A                      A
 Frequencies --     71.2012                77.2186               112.2824
 Red. masses --      3.9140                 3.8352                 1.1750
 Frc consts  --      0.0117                 0.0135                 0.0087
 IR Inten    --      0.1160                 0.3112                 0.2337

                      7                      8                      9
                      A                      A                      A
 Frequencies --    122.6725               166.1189               177.9304
 Red. masses --      2.4789                 2.5958                 3.1321
 Frc consts  --      0.0220                 0.0422                 0.0584
 IR Inten    --      0.0053                 0.8334                 0.6787

                     10                     11                     12
                      A                      A                      A
 Frequencies --    201.1709               227.7940               254.2126
 Red. masses --      3.8251                 1.4448                 2.3437
 Frc consts  --      0.0912                 0.0442                 0.0892
 IR Inten    --      0.8979                 0.3075                 2.0228

                     13                     14                     15
                      A                      A                      A
 Frequencies --    264.9838               288.0115               325.9009
 Red. masses --      2.6863                 2.2360                 2.6063
 Frc consts  --      0.1111                 0.1093                 0.1631
 IR Inten    --      1.3960                 1.0771                 0.3091

                     16                     17                     18
                      A                      A                      A
 Frequencies --    334.9890               356.9131               373.4011
 Red. masses --      2.4213                 2.9232                 2.0761
 Frc consts  --      0.1601                 0.2194                 0.1705
 IR Inten    --     20.3030                 1.6268                 3.2163

                     19                     20                     21
                      A                      A                      A
 Frequencies --    383.0369               410.6673               443.0670
 Red. masses --      2.1707                 2.2360                 4.0109
 Frc consts  --      0.1876                 0.2222                 0.4639
 IR Inten    --      6.0450                 2.0363                 0.7017

                     22                     23                     24
                      A                      A                      A
 Frequencies --    470.7671               484.9504               511.1546
 Red. masses --      3.4965                 2.9139                 4.4853
 Frc consts  --      0.4566                 0.4038                 0.6905
 IR Inten    --      1.7337                 1.7750                 3.3594

                     25                     26                     27
                      A                      A                      A
 Frequencies --    548.2119               590.3682               612.3240
 Red. masses --      4.0134                 1.9785                 3.3640
 Frc consts  --      0.7107                 0.4063                 0.7431
 IR Inten    --      3.3221                 3.2431                 7.8897

                     28                     29                     30
                      A                      A                      A
 Frequencies --    644.5247               655.0750               705.3391
 Red. masses --      2.6098                 2.7469                 2.5229
 Frc consts  --      0.6388                 0.6945                 0.7395
 IR Inten    --      7.1875                14.6975                19.3748

                     31                     32                     33
                      A                      A                      A
 Frequencies --    723.6778               781.9835               789.7607
 Red. masses --      1.8917                 2.6061                 2.0937
 Frc consts  --      0.5837                 0.9389                 0.7694
 IR Inten    --     23.6164                16.3347                 3.9917

                     34                     35                     36
                      A                      A                      A
 Frequencies --    834.3094               836.3820               856.8326
 Red. masses --      2.1690                 3.1145                 2.1017
 Frc consts  --      0.8895                 1.2837                 0.9091
 IR Inten    --     89.0512                53.8295                 5.0739

                     37                     38                     39
                      A                      A                      A
 Frequencies --    877.3075               885.3670               915.9085
 Red. masses --      1.8811                 1.2713                 2.0517
 Frc consts  --      0.8530                 0.5871                 1.0141
 IR Inten    --     15.7810                 1.1933                 1.8000

                     40                     41                     42
                      A                      A                      A
 Frequencies --    926.6243               945.8785               959.5616
 Red. masses --      1.8668                 2.0914                 2.0855
 Frc consts  --      0.9444                 1.1025                 1.1314
 IR Inten    --     14.5656                 7.8084                 8.0498

                     43                     44                     45
                      A                      A                      A
 Frequencies --    991.2533              1015.9530              1017.5676
 Red. masses --      2.0626                 1.8088                 1.6632
 Frc consts  --      1.1941                 1.1000                 1.0147
 IR Inten    --      5.2907                12.3224                 0.5333

                     46                     47                     48
                      A                      A                      A
 Frequencies --   1065.2757              1074.0341              1077.9198
 Red. masses --      1.7868                 1.4860                 1.9860
 Frc consts  --      1.1947                 1.0099                 1.3596
 IR Inten    --      8.2201                 2.7132                 4.1326

                     49                     50                     51
                      A                      A                      A
 Frequencies --   1092.7160              1103.5933              1122.9970
 Red. masses --      1.7640                 1.4777                 2.3578
 Frc consts  --      1.2409                 1.0604                 1.7519
 IR Inten    --     17.5147                 9.2692                 1.2945

                     52                     53                     54
                      A                      A                      A
 Frequencies --   1134.2289              1140.9773              1159.6648
 Red. masses --      1.6261                 2.2562                 3.2613
 Frc consts  --      1.2325                 1.7306                 2.5840
 IR Inten    --     17.8294                12.4112                12.8413

                     55                     56                     57
                      A                      A                      A
 Frequencies --   1173.0449              1189.2574              1194.6576
 Red. masses --      2.4860                 2.2308                 2.5623
 Frc consts  --      2.0155                 1.8589                 2.1546
 IR Inten    --     40.2319                35.5050                 7.0038

                     58                     59                     60
                      A                      A                      A
 Frequencies --   1199.4663              1227.7870              1245.8303
 Red. masses --      2.0529                 1.4219                 1.3055
 Frc consts  --      1.7401                 1.2629                 1.1939
 IR Inten    --      5.1916                 6.1436                 5.1698

                     61                     62                     63
                      A                      A                      A
 Frequencies --   1254.8438              1268.2029              1290.9972
 Red. masses --      1.3101                 1.4883                 1.5916
 Frc consts  --      1.2154                 1.4103                 1.5629
 IR Inten    --      2.9038                 8.4710                 2.2487

                     64                     65                     66
                      A                      A                      A
 Frequencies --   1308.2198              1325.1200              1345.6622
 Red. masses --      1.4045                 1.5699                 1.3775
 Frc consts  --      1.4162                 1.6242                 1.4697
 IR Inten    --      8.4311                 6.1560                 4.7556

                     67                     68                     69
                      A                      A                      A
 Frequencies --   1370.9512              1374.0461              1377.0924
 Red. masses --      1.3378                 1.3317                 1.3809
 Frc consts  --      1.4814                 1.4814                 1.5429
 IR Inten    --     14.5565                 2.3581                 0.7568

                     70                     71                     72
                      A                      A                      A
 Frequencies --   1388.1460              1403.5798              1415.7333
 Red. masses --      1.2490                 1.3464                 1.5494
 Frc consts  --      1.4181                 1.5628                 1.8297
 IR Inten    --     13.3458                 8.7296                 7.1544

                     73                     74                     75
                      A                      A                      A
 Frequencies --   1419.6654              1423.5316              1432.9335
 Red. masses --      2.0742                 1.3730                 1.3932
 Frc consts  --      2.4631                 1.6393                 1.6854
 IR Inten    --      6.3321                 1.7781                 0.8732

                     76                     77                     78
                      A                      A                      A
 Frequencies --   1446.9775              1486.8879              1493.0775
 Red. masses --      1.3449                 1.1872                 3.6681
 Frc consts  --      1.6590                 1.5465                 4.8178
 IR Inten    --      1.7375                 0.5079                 3.6873

                     79                     80                     81
                      A                      A                      A
 Frequencies --   1503.7904              1506.2458              1508.0074
 Red. masses --      1.1293                 1.1496                 1.1540
 Frc consts  --      1.5046                 1.5367                 1.5462
 IR Inten    --      2.1260                 4.6814                 8.9924

                     82                     83                     84
                      A                      A                      A
 Frequencies --   1516.3523              1517.8047              1520.9721
 Red. masses --      1.0528                 1.1022                 1.0689
 Frc consts  --      1.4263                 1.4960                 1.4569
 IR Inten    --      7.5041                 3.5013                 6.1069

                     85                     86                     87
                      A                      A                      A
 Frequencies --   1527.3493              1529.5342              1531.8397
 Red. masses --      1.0867                 1.1692                 1.0660
 Frc consts  --      1.4937                 1.6116                 1.4737
 IR Inten    --      5.9501                10.7428                 7.3805

                     88                     89                     90
                      A                      A                      A
 Frequencies --   1549.2773              1552.0683              1558.7658
 Red. masses --      1.0647                 1.1741                 1.0866
 Frc consts  --      1.5057                 1.6663                 1.5556
 IR Inten    --     56.1056                53.6111                 2.7316

                     91                     92                     93
                      A                      A                      A
 Frequencies --   1619.5368              2880.6776              2896.5092
 Red. masses --      5.4222                 1.0800                 1.0735
 Frc consts  --      8.3793                 5.2803                 5.3062
 IR Inten    --      0.4499                39.4362               129.5604

                     94                     95                     96
                      A                      A                      A
 Frequencies --   2947.2444              2957.8728              3031.4410
 Red. masses --      1.0614                 1.0716                 1.0725
 Frc consts  --      5.4321                 5.5238                 5.8068
 IR Inten    --    116.8867                47.3754                34.1739

                     97                     98                     99
                      A                      A                      A
 Frequencies --   3035.4030              3044.3137              3055.8597
 Red. masses --      1.0760                 1.0391                 1.0659
 Frc consts  --      5.8409                 5.6738                 5.8644
 IR Inten    --    101.0908                23.8830                38.4155

                    100                    101                    102
                      A                      A                      A
 Frequencies --   3056.1034              3058.0555              3064.7841
 Red. masses --      1.0650                 1.0891                 1.0761
 Frc consts  --      5.8608                 6.0005                 5.9553
 IR Inten    --     35.7549                 4.9776                93.2594

                    103                    104                    105
                      A                      A                      A
 Frequencies --   3068.5768              3094.3986              3096.5075
 Red. masses --      1.0787                 1.0733                 1.0997
 Frc consts  --      5.9842                 6.0550                 6.2126
 IR Inten    --     26.3148                31.0165                26.7777

                    106                    107                    108
                      A                      A                      A
 Frequencies --   3098.1506              3106.6219              3118.2558
 Red. masses --      1.1021                 1.1067                 1.1019
 Frc consts  --      6.2328                 6.2929                 6.3129
 IR Inten    --     14.9576                20.1120                18.3739

                    109                    110                    111
                      A                      A                      A
 Frequencies --   3131.3077              3142.8707              3210.4101
 Red. masses --      1.0998                 1.1012                 1.0910
 Frc consts  --      6.3538                 6.4089                 6.6252
 IR Inten    --     16.0729                18.4198                 7.0741

                    112                    113                    114
                      A                      A                      A
 Frequencies --   3269.7778              3449.8491              3481.1033
 Red. masses --      1.0964                 1.0733                 1.0731
 Frc consts  --      6.9064                 7.5261                 7.6618
 IR Inten    --      0.9134                 5.2911                24.4857

 - Thermochemistry -
 -------------------
 Temperature   298.150 Kelvin.  Pressure   1.00000 Atm.
 Atom     1 has atomic number  6 and mass  12.00000

 Molecular mass:   253.16127 amu.
 Principal axes and moments of inertia in atomic units:
                           1         2         3
     Eigenvalues --  3307.948315025.448755525.37541
           X            0.99909   0.00882   0.04182
           Y           -0.00983   0.99967   0.02387
           Z           -0.04159  -0.02426   0.99884
 This molecule is an asymmetric top.
 Rotational symmetry number  1.
 Warning -- assumption of classical behavior for rotation
           may cause significant error
 Rotational temperatures (Kelvin)      0.02618     0.01724     0.01568
 Rotational constants (GHZ):           0.54558     0.35912     0.32663
 Zero-point vibrational energy     936466.7 (Joules/Mol)
                                  223.82090 (Kcal/Mol)
 Warning -- explicit consideration of  27 degrees of freedom as
           vibrations may cause significant error
 Vibrational temperatures:     33.64    69.88    80.05   102.44   111.10
          (Kelvin)            161.55   176.50   239.01   256.00   289.44
                              327.74   365.76   381.25   414.38   468.90
                              481.97   513.52   537.24   551.10   590.86
                              637.47   677.33   697.74   735.44   788.75
                              849.41   881.00   927.33   942.51  1014.83
                             1041.21  1125.10  1136.29  1200.39  1203.37
                             1232.79  1262.25  1273.85  1317.79  1333.21
                             1360.91  1380.60  1426.19  1461.73  1464.05
                             1532.69  1545.30  1550.89  1572.17  1587.82
                             1615.74  1631.90  1641.61  1668.50  1687.75
                             1711.08  1718.85  1725.76  1766.51  1792.47
                             1805.44  1824.66  1857.46  1882.24  1906.55
                             1936.11  1972.49  1976.95  1981.33  1997.23
                             2019.44  2036.92  2042.58  2048.14  2061.67
                             2081.88  2139.30  2148.21  2163.62  2167.15
                             2169.69  2181.69  2183.78  2188.34  2197.52
                             2200.66  2203.98  2229.06  2233.08  2242.72
                             2330.15  4144.65  4167.43  4240.43  4255.72
                             4361.57  4367.27  4380.09  4396.70  4397.05
                             4399.86  4409.54  4415.00  4452.15  4455.18
                             4457.55  4469.74  4486.47  4505.25  4521.89
                             4619.06  4704.48  4963.56  5008.53

 Zero-point correction=                           0.356681 (Hartree/Particle)
 Thermal correction to Energy=                    0.374057
 Thermal correction to Enthalpy=                  0.375001
 Thermal correction to Gibbs Free Energy=         0.310937
 Sum of electronic and zero-point Energies=          -1071.365368
 Sum of electronic and thermal Energies=             -1071.347992
 Sum of electronic and thermal Enthalpies=           -1071.347048
 Sum of electronic and thermal Free Energies=        -1071.411112

                     E (Thermal)             CV                S
                      KCal/Mol        Cal/Mol-Kelvin    Cal/Mol-Kelvin
 Total                  234.724             67.125            134.835
 Electronic               0.000              0.000              0.000
 Translational            0.889              2.981             42.487
 Rotational               0.889              2.981             32.885
 Vibrational            232.947             61.163             59.463
 Vibration     1          0.593              1.985              6.324
 Vibration     2          0.595              1.978              4.875
 Vibration     3          0.596              1.975              4.606
 Vibration     4          0.598              1.968              4.120
 Vibration     5          0.599              1.964              3.960
 Vibration     6          0.607              1.939              3.229
 Vibration     7          0.610              1.930              3.058
 Vibration     8          0.624              1.884              2.479
 Vibration     9          0.628              1.869              2.350
 Vibration    10          0.638              1.838              2.122
 Vibration    11          0.651              1.799              1.896
 Vibration    12          0.665              1.756              1.701
 Vibration    13          0.671              1.737              1.629
 Vibration    14          0.685              1.696              1.486
 Vibration    15          0.710              1.624              1.280
 Vibration    16          0.716              1.606              1.236
 Vibration    17          0.732              1.561              1.136
 Vibration    18          0.745              1.527              1.066
 Vibration    19          0.752              1.506              1.027
 Vibration    20          0.775              1.447              0.924
 Vibration    21          0.803              1.376              0.817
 Vibration    22          0.828              1.315              0.735
 Vibration    23          0.841              1.283              0.697
 Vibration    24          0.866              1.225              0.631
 Vibration    25          0.903              1.144              0.548
 Vibration    26          0.948              1.052              0.467
 Vibration    27          0.972              1.006              0.429

 Optimization completed.
    -- Stationary point found.
 Normal termination of Gaussian 16 at Fri Dec 11 14:10:52 2020.

 ----------------------------------------------------------------------
 # B3LYP/6-311++G(d,p) empiricaldispersion=gd3bj scf=xqc pop=npa geom=c
 heck
 ----------------------------------------------------------------------

 ---------------------------------------
 CID_115238483_JID_7796_Energie_neutraal
 ---------------------------------------
 Structure from the checkpoint file:  "JID_7796.chk"
 Charge =  0 Multiplicity = 1

 SCF Done:  E(RB3LYP) =  -1071.93637614     A.U. after   15 cycles
 Normal termination of Gaussian 16 at Fri Dec 11 14:21:51 2020.

 ----------------------------------------------------------------------
 # B3LYP/6-311++G(d,p) empiricaldispersion=gd3bj scf=xqc pop=npa geom=c
 heck
 ----------------------------------------------------------------------

 -------------------------------------
 CID_115238483_JID_7796_Energie_kation
 -------------------------------------
 Structure from the checkpoint file:  "JID_7796.chk"
 Charge =  1 Multiplicity = 2

 SCF Done:  E(UB3LYP) =  -1071.66449401     A.U. after   28 cycles
 Normal termination of Gaussian 16 at Fri Dec 11 14:50:54 2020.
 Gaussian 16:  ES64L-G16RevA.03 25-Dec-2016

 ----------------------------------------------------------------------
 # B3LYP/6-311++G(d,p) empiricaldispersion=gd3bj scf=xqc pop=npa geom=c
 heck
 ----------------------------------------------------------------------

 ------------------------------------
 CID_115238483_JID_7796_Energie_anion
 ------------------------------------
 Structure from the checkpoint file:  "JID_7796.chk"
 Charge = -1 Multiplicity = 2

                         Standard orientation:
 ---------------------------------------------------------------------
 Center     Atomic      Atomic             Coordinates (Angstroms)
 Number     Number       Type             X           Y           Z
 ---------------------------------------------------------------------
      1          6           0       -2.500518    0.359997   -2.171891
      2          6           0       -2.279655    0.581571   -0.699812
      3          6           0       -2.136650   -0.418042    0.235544
      4         16           0       -1.868168    0.249802    1.829484
      5          6           0       -1.955196    1.872458    1.229088
      6          6           0       -2.177504    1.889252   -0.118558
      7          6           0       -2.110649   -1.908479    0.023141
      8          6           0       -0.796839   -2.390447   -0.613859
      9          7           0        0.329630   -2.112147    0.266374
     10          6           0        1.644526   -2.090683   -0.376568
     11          6           0        2.201939   -0.658560   -0.520127
     12          6           0        1.449168    0.101373   -1.629095
     13          7           0        1.811688    1.510009   -1.774625
     14          6           0        1.694878    2.181647   -0.478295
     15          6           0        2.474149    1.471994    0.627543
     16          7           0        2.064760    0.073307    0.747897
     17          6           0        2.746792   -0.573324    1.861714
     18          1           0       -3.277473    1.030472   -2.556827
     19          1           0       -1.586254    0.560146   -2.745100
     20          1           0       -2.807389   -0.667333   -2.387459
     21          1           0       -1.851678    2.712295    1.902359
     22          1           0       -2.271655    2.802496   -0.697393
     23          1           0       -2.251443   -2.426850    0.977959
     24          1           0       -2.945759   -2.202503   -0.624390
     25          1           0       -0.862812   -3.472858   -0.792286
     26          1           0       -0.697664   -1.913533   -1.605580
     27          1           0        0.202152   -1.203376    0.709664
     28          1           0        2.354429   -2.709342    0.187775
     29          1           0        1.583781   -2.537841   -1.377440
     30          1           0        3.272613   -0.730663   -0.810447
     31          1           0        0.378495    0.065935   -1.404175
     32          1           0        1.608928   -0.408127   -2.586314
     33          1           0        2.783309    1.567726   -2.083709
     34          1           0        0.632757    2.206039   -0.208182
     35          1           0        2.042210    3.216433   -0.578085
     36          1           0        2.293825    1.963854    1.591380
     37          1           0        3.562396    1.553865    0.418360
     38          1           0        2.301543   -1.549523    2.067931
     39          1           0        3.830806   -0.709505    1.682666
     40          1           0        2.626375    0.044649    2.757088
 ---------------------------------------------------------------------

 SCF Done:  E(UB3LYP) =  -1071.92142353     A.U. after   33 cycles
 SCF Done:  E(UB3LYP) =  -1071.92142353     a.u. after    1 cycles

 The electronic state is 2-A.
 Alpha  occ. eigenvalues --  -88.77662 -14.21246 -14.19804 -14.19045 -10.10329
 Alpha  occ. eigenvalues --  -10.10059 -10.09994 -10.09638 -10.09411 -10.09285
 Alpha  occ. eigenvalues --  -10.09271 -10.08872 -10.08747 -10.08715 -10.08528
 Alpha  occ. eigenvalues --  -10.07900 -10.07537  -7.86293  -5.82575  -5.82211
 Alpha  occ. eigenvalues --   -5.81901  -0.84942  -0.80753  -0.79318  -0.78448
 Alpha  occ. eigenvalues --   -0.69140  -0.67282  -0.66235  -0.62467  -0.61334
 Alpha  occ. eigenvalues --   -0.58329  -0.56809  -0.54199  -0.52052  -0.51385
 Alpha  occ. eigenvalues --   -0.47081  -0.46500  -0.42131  -0.40155  -0.39637
 Alpha  occ. eigenvalues --   -0.39088  -0.37874  -0.37667  -0.36185  -0.35659
 Alpha  occ. eigenvalues --   -0.34502  -0.33080  -0.32837  -0.32523  -0.31675
 Alpha  occ. eigenvalues --   -0.30332  -0.29862  -0.29136  -0.28453  -0.28031
 Alpha  occ. eigenvalues --   -0.27532  -0.27275  -0.26370  -0.25898  -0.25729
 Alpha  occ. eigenvalues --   -0.24747  -0.24208  -0.24026  -0.23518  -0.15364
 Alpha  occ. eigenvalues --   -0.13816  -0.13517  -0.12731  -0.11715   0.04302
 Alpha virt. eigenvalues --    0.05942   0.06489   0.07057   0.07565   0.07910
 Alpha virt. eigenvalues --    0.08064   0.08710   0.08975   0.09502   0.10454
 Alpha virt. eigenvalues --    0.10616   0.10889   0.11056   0.11705   0.12127

  Beta  occ. eigenvalues --  -88.77658 -14.21239 -14.19791 -14.19045 -10.10296
  Beta  occ. eigenvalues --  -10.10049 -10.09951 -10.09620 -10.09400 -10.09274
  Beta  occ. eigenvalues --  -10.09251 -10.08861 -10.08735 -10.08706 -10.08525
  Beta  occ. eigenvalues --  -10.07893 -10.07514  -7.86289  -5.82574  -5.82208
  Beta  occ. eigenvalues --   -5.81885  -0.84924  -0.80737  -0.79291  -0.78413
  Beta  occ. eigenvalues --   -0.69100  -0.67249  -0.66201  -0.62437  -0.61297
  Beta  occ. eigenvalues --   -0.58288  -0.56766  -0.54161  -0.52008  -0.51344
  Beta  occ. eigenvalues --   -0.47026  -0.46456  -0.42086  -0.40114  -0.39592
  Beta  occ. eigenvalues --   -0.39056  -0.37843  -0.37641  -0.36159  -0.35628
  Beta  occ. eigenvalues --   -0.34455  -0.33055  -0.32808  -0.32488  -0.31650
  Beta  occ. eigenvalues --   -0.30302  -0.29830  -0.29109  -0.28418  -0.27994
  Beta  occ. eigenvalues --   -0.27488  -0.27248  -0.26316  -0.25867  -0.25698
  Beta  occ. eigenvalues --   -0.24712  -0.24177  -0.23997  -0.23481  -0.15284
  Beta  occ. eigenvalues --   -0.13782  -0.13368  -0.12679  -0.11691
  Beta virt. eigenvalues --    0.06354   0.06749   0.07090   0.07472   0.07893
  Beta virt. eigenvalues --    0.08358   0.08551   0.09010   0.09373   0.09782
  Beta virt. eigenvalues --    0.10766   0.10892   0.11232   0.11334   0.12023

 Mulliken charges and spin densities:
               1          2
     1  C    0.852128  -1.467994
     2  C   -0.902624   0.798909
     3  C   -0.889744   1.356881
     4  S    0.766182  -0.458863
     5  C   -0.438330   0.041113
     6  C    0.078404  -0.349210
     7  C    0.270148  -1.328964
     8  C   -0.062206   0.008478
     9  N   -0.093450   0.025733
    10  C    0.162775  -0.933099
    11  C   -0.948534   1.360363
    12  C   -0.120116  -0.904815
    13  N    0.080416  -0.056108
    14  C   -0.407650  -0.048833
    15  C    0.546855  -0.774335
    16  N    0.122596   0.000953
    17  C   -0.272994  -0.123665
    18  H   -0.100040   0.238124
    19  H   -0.137804   0.339800
    20  H   -0.161864   0.306042
    21  H   -0.263107   0.507746
    22  H   -0.093213   0.268102
    23  H    0.166829   0.005876
    24  H   -0.159685   0.350466
    25  H   -0.453719   0.631987
    26  H    0.201563  -0.079754
    27  H    0.236999  -0.052927
    28  H    0.182973  -0.008567
    29  H   -0.152193   0.305658
    30  H   -0.372368   0.535013
    31  H    1.939132  -1.508916
    32  H   -0.365541   0.525709
    33  H    0.058780   0.195500
    34  H    0.504853  -0.336672
    35  H   -0.632298   0.822003
    36  H   -0.157430   0.292984
    37  H   -0.063478   0.187299
    38  H    0.060006   0.092649
    39  H    0.004295   0.123829
    40  H    0.013455   0.111506
 Sum of Mulliken charges =  -1.00000   1.00000

 Dipole moment (field-independent basis, Debye):
    X=             -1.5608    Y=             -0.6736    Z=              3.1268  Tot=              3.5591
 Quadrupole moment (field-independent basis, Debye-Ang):
   XX=           -175.2283   YY=           -171.9233   ZZ=           -158.6758
   XY=             -9.1055   XZ=              0.2585   YZ=             -3.8438

 Summary of Natural Population Analysis:

                                       Natural Population
                Natural  -----------------------------------------------
    Atom  No    Charge         Core      Valence    Rydberg      Total
 -----------------------------------------------------------------------
      C    1   -0.29248      0.99963     2.28719    0.00566     3.29248
      C    2   -0.04919      0.99941     2.03903    0.01075     3.04919
      C    3   -0.09622      0.99942     2.08248    0.01433     3.09622
      S    4    0.20772      4.99939     2.77355    0.01933     7.79228
      C    5   -0.19060      0.99954     2.17926    0.01181     3.19060
      C    6   -0.12204      0.99949     2.11243    0.01012     3.12204
      C    7   -0.21116      0.99957     2.20005    0.01154     3.21116
      C    8   -0.07794      0.99962     2.06663    0.01169     3.07794
      N    9   -0.36169      0.99974     2.85033    0.01162     3.86169
      C   10   -0.08875      0.99960     2.07687    0.01228     3.08875
      C   11   -0.01496      0.99957     2.00225    0.01313     3.01496
      C   12   -0.09813      0.99958     2.08552    0.01303     3.09813
      N   13   -0.33139      0.99976     2.81906    0.01257     3.83139
      C   14   -0.09713      0.99961     2.08559    0.01192     3.09713
      C   15   -0.08817      0.99961     2.07707    0.01148     3.08817
      N   16   -0.28978      0.99970     2.77896    0.01112     3.78978
      C   17   -0.17792      0.99964     2.17035    0.00793     3.17792
      H   18    0.10290      0.00000     0.39625    0.00085     0.39710
      H   19    0.10900      0.00000     0.38987    0.00113     0.39100
      H   20    0.10437      0.00000     0.39459    0.00104     0.39563
      H   21    0.10954      0.00000     0.38949    0.00098     0.39046
      H   22    0.10644      0.00000     0.39254    0.00101     0.39356
      H   23    0.10559      0.00000     0.39325    0.00116     0.39441
      H   24    0.10998      0.00000     0.38873    0.00129     0.39002
      H   25    0.09050      0.00000     0.40784    0.00165     0.40950
      H   26    0.08079      0.00000     0.41723    0.00197     0.41921
      H   27    0.18624      0.00000     0.30813    0.00564     0.31376
      H   28    0.09047      0.00000     0.40822    0.00131     0.40953
      H   29    0.09622      0.00000     0.40257    0.00120     0.40378
      H   30    0.08256      0.00000     0.41508    0.00236     0.41744
      H   31    0.09638      0.00000     0.39948    0.00415     0.40362
      H   32    0.09587      0.00000     0.40292    0.00121     0.40413
      H   33    0.16867      0.00000     0.32875    0.00257     0.33133
      H   34    0.09848      0.00000     0.39832    0.00320     0.40152
      H   35    0.09471      0.00000     0.40410    0.00118     0.40529
      H   36    0.09716      0.00000     0.40138    0.00147     0.40284
      H   37    0.07759      0.00000     0.42022    0.00219     0.42241
      H   38    0.09924      0.00000     0.39976    0.00101     0.40076
      H   39    0.08152      0.00000     0.41745    0.00103     0.41848
      H   40    0.09559      0.00000     0.40353    0.00088     0.40441
 =======================================================================
   * Total *    0.00000     20.99288    47.76634    0.24078    69.00000

 Normal termination of Gaussian 16 at Fri Dec 11 15:24:39 2020.
