 Gaussian 16, Revision A.03,

 -----------------------------------------------------------
 # opt freq B3LYP/6-31G(d) empiricaldispersion=gd3bj scf=xqc
 -----------------------------------------------------------

 ------------------------------
 CID_59169025_JID_2530_neutraal
 ------------------------------
 Symbolic Z-matrix:
 Charge =  0 Multiplicity = 1

 SCF Done:  E(RB3LYP) =  -594.330164274     A.U. after   14 cycles
 SCF Done:  E(RB3LYP) =  -594.334888290     A.U. after   12 cycles
 SCF Done:  E(RB3LYP) =  -594.335653245     A.U. after   12 cycles
 SCF Done:  E(RB3LYP) =  -594.335812674     A.U. after   12 cycles
 SCF Done:  E(RB3LYP) =  -594.336283310     A.U. after   11 cycles
 SCF Done:  E(RB3LYP) =  -594.336647437     A.U. after   12 cycles
 SCF Done:  E(RB3LYP) =  -594.337125402     A.U. after   12 cycles
 SCF Done:  E(RB3LYP) =  -594.337474550     A.U. after   14 cycles
 SCF Done:  E(RB3LYP) =  -594.338520282     A.U. after   12 cycles
 SCF Done:  E(RB3LYP) =  -594.338868419     A.U. after   12 cycles
 SCF Done:  E(RB3LYP) =  -594.345874459     A.U. after    9 cycles
 SCF Done:  E(RB3LYP) =  -594.345877810     A.U. after    9 cycles
 SCF Done:  E(RB3LYP) =  -594.345881146     A.U. after    9 cycles
 SCF Done:  E(RB3LYP) =  -594.345884037     A.U. after    9 cycles
 SCF Done:  E(RB3LYP) =  -594.345884410     A.U. after    7 cycles
 SCF Done:  E(RB3LYP) =  -594.345884486     A.U. after    7 cycles
 Optimization completed.
    -- Stationary point found.
 Normal termination of Gaussian 16 at Wed Dec  9 17:47:07 2020.

 --------------------------------------------------------------------
 #N Geom=AllCheck Guess=TCheck SCRF=Check GenChk RB3LYP/6-31G(d) Freq
 --------------------------------------------------------------------

 Structure from the checkpoint file:  "JID_2530.chk"
 ------------------------------
 CID_59169025_JID_2530_neutraal
 ------------------------------
 Charge =  0 Multiplicity = 1

 SCF Done:  E(RB3LYP) =  -594.345884486     A.U. after    1 cycles

  Exact polarizability: 106.735   3.376  91.940  -0.285   3.252  92.915
 Approx polarizability: 128.973   4.465 128.362   1.333   6.388 146.318

                      1                      2                      3
                      A                      A                      A
 Frequencies --     44.7864                52.1655                80.7639
 Red. masses --      3.2229                 2.6837                 1.3086
 Frc consts  --      0.0038                 0.0043                 0.0050
 IR Inten    --      1.7912                 1.0112                 0.0998

                      4                      5                      6
                      A                      A                      A
 Frequencies --    109.1979               117.8500               196.6551
 Red. masses --      3.3621                 5.0631                 3.5556
 Frc consts  --      0.0236                 0.0414                 0.0810
 IR Inten    --      1.1028                 0.5090                 8.5025

                      7                      8                      9
                      A                      A                      A
 Frequencies --    220.1997               243.4635               252.1415
 Red. masses --      2.6542                 1.9804                 1.5549
 Frc consts  --      0.0758                 0.0692                 0.0582
 IR Inten    --      0.7664                 7.2515                 7.8762

                     10                     11                     12
                      A                      A                      A
 Frequencies --    279.5266               316.2236               332.7240
 Red. masses --      1.9935                 3.6613                 2.9714
 Frc consts  --      0.0918                 0.2157                 0.1938
 IR Inten    --      1.4815                 3.9535                 1.9347

                     13                     14                     15
                      A                      A                      A
 Frequencies --    417.1273               445.9204               494.1921
 Red. masses --      1.8890                 3.5179                 2.7395
 Frc consts  --      0.1936                 0.4121                 0.3942
 IR Inten    --      1.2235                21.1881                 1.2241

                     16                     17                     18
                      A                      A                      A
 Frequencies --    499.0888               544.4632               602.4742
 Red. masses --      3.3292                 3.4006                 2.6119
 Frc consts  --      0.4886                 0.5939                 0.5586
 IR Inten    --      8.4556                 3.2476                13.8063

                     19                     20                     21
                      A                      A                      A
 Frequencies --    632.3442               699.1804               746.3275
 Red. masses --      2.6473                 3.2154                 3.8469
 Frc consts  --      0.6237                 0.9261                 1.2625
 IR Inten    --      3.3991                72.3172                 9.7905

                     22                     23                     24
                      A                      A                      A
 Frequencies --    778.7188               872.0478               876.1922
 Red. masses --      3.3669                 1.6364                 3.1021
 Frc consts  --      1.2029                 0.7332                 1.4032
 IR Inten    --     73.8667                 0.5833                16.6896

                     25                     26                     27
                      A                      A                      A
 Frequencies --    915.4048               933.3874               980.0796
 Red. masses --      3.8142                 2.2206                 2.4643
 Frc consts  --      1.8831                 1.1399                 1.3947
 IR Inten    --     34.9672                12.9508                61.7484

                     28                     29                     30
                      A                      A                      A
 Frequencies --   1032.2290              1046.4145              1072.4841
 Red. masses --      1.6744                 2.1219                 2.3572
 Frc consts  --      1.0511                 1.3689                 1.5975
 IR Inten    --     60.8931                 0.6864                61.5468

                     31                     32                     33
                      A                      A                      A
 Frequencies --   1074.8149              1090.6722              1107.2330
 Red. masses --      1.7709                 1.6958                 1.7454
 Frc consts  --      1.2054                 1.1886                 1.2608
 IR Inten    --      4.9080                45.0963                 5.0526

                     34                     35                     36
                      A                      A                      A
 Frequencies --   1135.7664              1151.5040              1157.6952
 Red. masses --      2.3775                 2.3597                 5.4152
 Frc consts  --      1.8070                 1.8435                 4.2761
 IR Inten    --      6.1439                25.7475                99.7305

                     37                     38                     39
                      A                      A                      A
 Frequencies --   1213.5346              1239.7892              1250.0682
 Red. masses --      2.0895                 2.8310                 1.0868
 Frc consts  --      1.8130                 2.5638                 1.0006
 IR Inten    --    157.1918                94.4698                 8.6167

                     40                     41                     42
                      A                      A                      A
 Frequencies --   1284.7744              1308.7239              1344.4587
 Red. masses --      1.9678                 1.4515                 1.2436
 Frc consts  --      1.9138                 1.4648                 1.3244
 IR Inten    --    129.7168                48.8543                12.5551

                     43                     44                     45
                      A                      A                      A
 Frequencies --   1377.1129              1384.4521              1406.7773
 Red. masses --      1.3226                 1.4858                 1.3934
 Frc consts  --      1.4778                 1.6779                 1.6247
 IR Inten    --      8.8346                26.9482                34.1385

                     46                     47                     48
                      A                      A                      A
 Frequencies --   1413.9000              1417.7718              1427.7716
 Red. masses --      1.2750                 1.3136                 1.4682
 Frc consts  --      1.5018                 1.5557                 1.7634
 IR Inten    --      4.7103                30.0642                41.4499

                     49                     50                     51
                      A                      A                      A
 Frequencies --   1435.9632              1444.9694              1461.6837
 Red. masses --      1.3804                 1.3701                 1.3596
 Frc consts  --      1.6771                 1.6854                 1.7114
 IR Inten    --     27.0779                 8.1802                19.5583

                     52                     53                     54
                      A                      A                      A
 Frequencies --   1500.0247              1505.8442              1507.0655
 Red. masses --      1.0536                 1.0475                 1.0811
 Frc consts  --      1.3968                 1.3994                 1.4467
 IR Inten    --     14.5041                 8.7915                 2.4797

                     55                     56                     57
                      A                      A                      A
 Frequencies --   1511.8976              1515.1979              1522.9093
 Red. masses --      1.0840                 1.0661                 1.1071
 Frc consts  --      1.4599                 1.4420                 1.5128
 IR Inten    --      0.2218                 4.2236                10.6730

                     58                     59                     60
                      A                      A                      A
 Frequencies --   1529.0018              1545.9917              1813.2311
 Red. masses --      1.1080                 1.0529                10.3879
 Frc consts  --      1.5261                 1.4827                20.1226
 IR Inten    --      1.6429                 6.9183               197.3247

                     61                     62                     63
                      A                      A                      A
 Frequencies --   2983.0810              2992.9360              2998.7189
 Red. masses --      1.0713                 1.0698                 1.0698
 Frc consts  --      5.6167                 5.6458                 5.6679
 IR Inten    --     36.3272                10.6899               114.8514

                     64                     65                     66
                      A                      A                      A
 Frequencies --   3044.8757              3070.8000              3077.4208
 Red. masses --      1.0684                 1.0366                 1.0418
 Frc consts  --      5.8363                 5.7593                 5.8130
 IR Inten    --     29.0753                 3.5464                11.2773

                     67                     68                     69
                      A                      A                      A
 Frequencies --   3082.5246              3092.2033              3111.9687
 Red. masses --      1.0912                 1.0854                 1.0942
 Frc consts  --      6.1088                 6.1145                 6.2431
 IR Inten    --     17.0408                46.1576                45.8951

                     70                     71                     72
                      A                      A                      A
 Frequencies --   3116.7279              3133.6115              3137.4738
 Red. masses --      1.0951                 1.1005                 1.0945
 Frc consts  --      6.2675                 6.3671                 6.3480
 IR Inten    --     36.5055                 6.7186                20.6957

                     73                     74                     75
                      A                      A                      A
 Frequencies --   3142.1453              3180.6455              3192.8408
 Red. masses --      1.1027                 1.1036                 1.0989
 Frc consts  --      6.4147                 6.5782                 6.6002
 IR Inten    --     21.1268                 9.1884                 6.0846

 - Thermochemistry -
 -------------------
 Temperature   298.150 Kelvin.  Pressure   1.00000 Atm.
 Atom     1 has atomic number  6 and mass  12.00000

 Molecular mass:   173.10519 amu.
 Principal axes and moments of inertia in atomic units:
                           1         2         3
     Eigenvalues --  1124.596683148.706683272.91929
           X            0.99992   0.01225   0.00048
           Y           -0.01226   0.99802   0.06166
           Z            0.00028  -0.06166   0.99810
 This molecule is an asymmetric top.
 Rotational symmetry number  1.
 Warning -- assumption of classical behavior for rotation
           may cause significant error
 Rotational temperatures (Kelvin)      0.07702     0.02751     0.02646
 Rotational constants (GHZ):           1.60479     0.57317     0.55142
 Zero-point vibrational energy     617705.8 (Joules/Mol)
                                  147.63523 (Kcal/Mol)
 Warning -- explicit consideration of  18 degrees of freedom as
           vibrations may cause significant error
 Vibrational temperatures:     64.44    75.05   116.20   157.11   169.56
          (Kelvin)            282.94   316.82   350.29   362.78   402.18
                              454.98   478.72   600.15   641.58   711.03
                              718.08   783.36   866.83   909.80  1005.96
                             1073.80  1120.40  1254.68  1260.65  1317.06
                             1342.94  1410.12  1485.15  1505.56  1543.07
                             1546.42  1569.23  1593.06  1634.11  1656.76
                             1665.67  1746.01  1783.78  1798.57  1848.50
                             1882.96  1934.38  1981.36  1991.92  2024.04
                             2034.29  2039.86  2054.24  2066.03  2078.99
                             2103.04  2158.20  2166.57  2168.33  2175.28
                             2180.03  2191.13  2199.89  2224.34  2608.84
                             4291.99  4306.17  4314.49  4380.90  4418.20
                             4427.72  4435.07  4448.99  4477.43  4484.28
                             4508.57  4514.12  4520.85  4576.24  4593.79

 Zero-point correction=                           0.235272 (Hartree/Particle)
 Thermal correction to Energy=                    0.247739
 Thermal correction to Enthalpy=                  0.248683
 Thermal correction to Gibbs Free Energy=         0.196006
 Sum of electronic and zero-point Energies=           -594.110613
 Sum of electronic and thermal Energies=              -594.098146
 Sum of electronic and thermal Enthalpies=            -594.097202
 Sum of electronic and thermal Free Energies=         -594.149878

                     E (Thermal)             CV                S
                      KCal/Mol        Cal/Mol-Kelvin    Cal/Mol-Kelvin
 Total                  155.458             46.066            110.867
 Electronic               0.000              0.000              0.000
 Translational            0.889              2.981             41.354
 Rotational               0.889              2.981             30.828
 Vibrational            153.681             40.105             38.685
 Vibration     1          0.595              1.979              5.035
 Vibration     2          0.596              1.977              4.734
 Vibration     3          0.600              1.962              3.872
 Vibration     4          0.606              1.942              3.283
 Vibration     5          0.608              1.934              3.135
 Vibration     6          0.636              1.845              2.164
 Vibration     7          0.647              1.810              1.957
 Vibration     8          0.659              1.774              1.777
 Vibration     9          0.664              1.759              1.716
 Vibration    10          0.680              1.711              1.537
 Vibration    11          0.703              1.643              1.330
 Vibration    12          0.715              1.610              1.247
 Vibration    13          0.780              1.433              0.902
 Vibration    14          0.805              1.370              0.808
 Vibration    15          0.850              1.263              0.673
 Vibration    16          0.855              1.252              0.660
 Vibration    17          0.900              1.152              0.556
 Vibration    18          0.961              1.027              0.445

 Optimization completed.
    -- Stationary point found.
 Normal termination of Gaussian 16 at Wed Dec  9 17:54:06 2020.

 ----------------------------------------------------------------------
 # B3LYP/6-311++G(d,p) empiricaldispersion=gd3bj scf=xqc pop=npa geom=c
 heck
 ----------------------------------------------------------------------

 --------------------------------------
 CID_59169025_JID_2530_Energie_neutraal
 --------------------------------------
 Structure from the checkpoint file:  "JID_2530.chk"
 Charge =  0 Multiplicity = 1

 SCF Done:  E(RB3LYP) =  -594.520400095     A.U. after   14 cycles
 Normal termination of Gaussian 16 at Wed Dec  9 17:57:27 2020.

 ----------------------------------------------------------------------
 # B3LYP/6-311++G(d,p) empiricaldispersion=gd3bj scf=xqc pop=npa geom=c
 heck
 ----------------------------------------------------------------------

 ------------------------------------
 CID_59169025_JID_2530_Energie_kation
 ------------------------------------
 Structure from the checkpoint file:  "JID_2530.chk"
 Charge =  1 Multiplicity = 2

 SCF Done:  E(UB3LYP) =  -594.213205600     A.U. after   22 cycles
 Normal termination of Gaussian 16 at Wed Dec  9 18:04:39 2020.
 Gaussian 16:  ES64L-G16RevA.03 25-Dec-2016

 ----------------------------------------------------------------------
 # B3LYP/6-311++G(d,p) empiricaldispersion=gd3bj scf=xqc pop=npa geom=c
 heck
 ----------------------------------------------------------------------

 -----------------------------------
 CID_59169025_JID_2530_Energie_anion
 -----------------------------------
 Structure from the checkpoint file:  "JID_2530.chk"
 Charge = -1 Multiplicity = 2

                         Standard orientation:
 ---------------------------------------------------------------------
 Center     Atomic      Atomic             Coordinates (Angstroms)
 Number     Number       Type             X           Y           Z
 ---------------------------------------------------------------------
      1          6           0       -1.082811    2.206988   -0.491183
      2          6           0       -0.601744    0.844157   -0.967887
      3          7           0        0.667208    0.443909   -0.475035
      4          6           0        0.984825    0.543080    0.952617
      5          6           0        2.497170    0.431668    1.120981
      6          8           0        2.990949   -0.788773    0.582791
      7          6           0        2.686876   -0.884288   -0.799994
      8          6           0        1.182587   -0.798971   -1.045077
      9          8           0       -1.687210   -0.185881   -0.824779
     10          6           0       -2.249393   -0.449400    0.367927
     11          8           0       -1.950075    0.075767    1.421399
     12          6           0       -3.322953   -1.505982    0.219141
     13          1           0       -1.282586    2.221824    0.579107
     14          1           0       -2.006852    2.463320   -1.017134
     15          1           0       -0.323502    2.956706   -0.733776
     16          1           0       -0.529556    0.849470   -2.058718
     17          1           0        0.490327   -0.244792    1.536673
     18          1           0        0.643240    1.505098    1.339943
     19          1           0        2.988436    1.286486    0.627301
     20          1           0        2.765556    0.431840    2.181290
     21          1           0        3.080462   -1.846731   -1.140188
     22          1           0        3.191307   -0.076218   -1.355462
     23          1           0        0.690228   -1.681242   -0.602047
     24          1           0        0.979751   -0.809138   -2.122443
     25          1           0       -4.100097   -1.156359   -0.468266
     26          1           0       -2.894641   -2.417371   -0.210289
     27          1           0       -3.759186   -1.722673    1.194802
 ---------------------------------------------------------------------

 SCF Done:  E(UB3LYP) =  -594.504645945     A.U. after   32 cycles

 The electronic state is 2-A.
 Alpha  occ. eigenvalues --  -19.05128 -19.02988 -19.00532 -14.21636 -10.19948
 Alpha  occ. eigenvalues --  -10.15634 -10.12017 -10.11691 -10.09465 -10.09436
 Alpha  occ. eigenvalues --  -10.07286 -10.06155  -0.99296  -0.94689  -0.91329
 Alpha  occ. eigenvalues --   -0.83261  -0.67922  -0.67693  -0.63642  -0.59527
 Alpha  occ. eigenvalues --   -0.56211  -0.53363  -0.48554  -0.44430  -0.41271
 Alpha  occ. eigenvalues --   -0.39031  -0.38277  -0.37604  -0.36892  -0.36576
 Alpha  occ. eigenvalues --   -0.36199  -0.33581  -0.33384  -0.31872  -0.30777
 Alpha  occ. eigenvalues --   -0.30078  -0.28470  -0.27938  -0.27221  -0.26137
 Alpha  occ. eigenvalues --   -0.25781  -0.24087  -0.21942  -0.20651  -0.17574
 Alpha  occ. eigenvalues --   -0.16732  -0.13040   0.04681
 Alpha virt. eigenvalues --    0.06934   0.07427   0.07867   0.09250   0.09511
 Alpha virt. eigenvalues --    0.09720   0.10467   0.10635   0.11288   0.12060
 Alpha virt. eigenvalues --    0.12274   0.12690   0.13238   0.13934   0.14996

  Beta  occ. eigenvalues --  -19.05121 -19.02981 -19.00527 -14.21634 -10.19947
  Beta  occ. eigenvalues --  -10.15612 -10.12006 -10.11671 -10.09440 -10.09424
  Beta  occ. eigenvalues --  -10.07240 -10.06124  -0.99281  -0.94674  -0.91314
  Beta  occ. eigenvalues --   -0.83241  -0.67882  -0.67665  -0.63586  -0.59488
  Beta  occ. eigenvalues --   -0.56168  -0.53317  -0.48509  -0.44391  -0.41217
  Beta  occ. eigenvalues --   -0.38996  -0.38250  -0.37562  -0.36860  -0.36547
  Beta  occ. eigenvalues --   -0.36177  -0.33548  -0.33350  -0.31829  -0.30737
  Beta  occ. eigenvalues --   -0.30042  -0.28427  -0.27898  -0.27185  -0.26105
  Beta  occ. eigenvalues --   -0.25751  -0.24059  -0.21921  -0.20638  -0.17545
  Beta  occ. eigenvalues --   -0.16701  -0.13018
  Beta virt. eigenvalues --    0.07015   0.07678   0.08233   0.08472   0.09609
  Beta virt. eigenvalues --    0.10021   0.10378   0.10863   0.11050   0.11644
  Beta virt. eigenvalues --    0.12483   0.12605   0.13016   0.13805   0.14150

 Mulliken charges and spin densities:
               1          2
     1  C    1.180394  -1.529080
     2  C   -1.173615   0.500716
     3  N    0.138181   0.107979
     4  C    0.007735  -0.063549
     5  C    0.186694  -0.737417
     6  O   -0.175253   0.049831
     7  C    0.351074  -0.718490
     8  C    0.416371  -0.490474
     9  O    0.094733   0.019606
    10  C   -0.586432   0.749047
    11  O   -0.237259   0.006298
    12  C    1.454349  -2.027159
    13  H   -0.082633   0.268522
    14  H   -0.238574   0.398487
    15  H   -0.122768   0.300147
    16  H   -0.882468   1.068216
    17  H    0.125452   0.058330
    18  H    0.052039   0.100348
    19  H   -0.087226   0.225503
    20  H    0.149034   0.018754
    21  H   -0.209186   0.393240
    22  H   -0.083200   0.211528
    23  H    0.227938  -0.086469
    24  H   -0.637033   0.804942
    25  H   -0.402682   0.580138
    26  H   -0.449951   0.618721
    27  H   -0.015717   0.172282
 Sum of Mulliken charges =  -1.00000   1.00000

 Dipole moment (field-independent basis, Debye):
    X=              2.8165    Y=              0.7139    Z=              4.5619  Tot=              5.4086
 Quadrupole moment (field-independent basis, Debye-Ang):
   XX=           -132.8892   YY=           -113.0983   ZZ=           -116.2852
   XY=             -0.4205   XZ=             -0.0317   YZ=              1.2600

 Summary of Natural Population Analysis:

                                       Natural Population
                Natural  -----------------------------------------------
    Atom  No    Charge         Core      Valence    Rydberg      Total
 -----------------------------------------------------------------------
      C    1   -0.30415      0.99963     2.29854    0.00598     3.30415
      C    2    0.15830      0.99952     1.82411    0.01807     2.84170
      N    3   -0.28413      0.99967     2.76966    0.01480     3.78413
      C    4   -0.09790      0.99960     2.08876    0.00954     3.09790
      C    5   -0.01175      0.99958     2.00090    0.01127     3.01175
      O    6   -0.29952      0.99989     3.29038    0.00925     4.29952
      C    7   -0.01322      0.99958     1.99959    0.01405     3.01322
      C    8   -0.09819      0.99961     2.08580    0.01278     3.09819
      O    9   -0.29908      0.99987     3.28795    0.01126     4.29908
      C   10    0.41050      0.99971     1.56439    0.02540     2.58950
      O   11   -0.31667      0.99987     3.31079    0.00600     4.31667
      C   12   -0.33091      0.99962     2.32597    0.00532     3.33091
      H   13    0.11115      0.00000     0.38769    0.00116     0.38885
      H   14    0.10744      0.00000     0.39132    0.00125     0.39256
      H   15    0.10747      0.00000     0.39097    0.00156     0.39253
      H   16    0.09695      0.00000     0.39977    0.00328     0.40305
      H   17    0.09438      0.00000     0.40395    0.00167     0.40562
      H   18    0.10327      0.00000     0.39531    0.00142     0.39673
      H   19    0.07850      0.00000     0.41970    0.00180     0.42150
      H   20    0.08869      0.00000     0.41010    0.00121     0.41131
      H   21    0.09197      0.00000     0.40670    0.00133     0.40803
      H   22    0.07920      0.00000     0.41896    0.00184     0.42080
      H   23    0.08719      0.00000     0.41107    0.00173     0.41281
      H   24    0.10538      0.00000     0.39195    0.00267     0.39462
      H   25    0.11500      0.00000     0.38313    0.00187     0.38500
      H   26    0.11384      0.00000     0.38477    0.00140     0.38616
      H   27    0.10627      0.00000     0.39280    0.00092     0.39373
 =======================================================================
   * Total *   -0.00000     11.99614    34.83504    0.16882    47.00000

 Normal termination of Gaussian 16 at Wed Dec  9 18:14:54 2020.
