 Gaussian 16, Revision A.03,

 -----------------------------------------------------------
 # opt freq B3LYP/6-31G(d) empiricaldispersion=gd3bj scf=xqc
 -----------------------------------------------------------

 ------------------------------
 CID_86167585_JID_3810_neutraal
 ------------------------------
 Symbolic Z-matrix:
 Charge =  0 Multiplicity = 1

 SCF Done:  E(RB3LYP) =  -913.427589669     A.U. after   17 cycles
 SCF Done:  E(RB3LYP) =  -913.439107612     A.U. after   14 cycles
 SCF Done:  E(RB3LYP) =  -913.440262647     A.U. after   13 cycles
 SCF Done:  E(RB3LYP) =  -913.440335063     A.U. after   11 cycles
 SCF Done:  E(RB3LYP) =  -913.440351871     A.U. after   11 cycles
 SCF Done:  E(RB3LYP) =  -913.440353580     A.U. after   10 cycles
 SCF Done:  E(RB3LYP) =  -913.440360205     A.U. after   13 cycles
 SCF Done:  E(RB3LYP) =  -913.440400640     A.U. after   17 cycles
 SCF Done:  E(RB3LYP) =  -913.439767577     A.U. after   17 cycles
 SCF Done:  E(RB3LYP) =  -913.440106149     A.U. after   15 cycles
 SCF Done:  E(RB3LYP) =  -913.440831441     A.U. after   15 cycles
 SCF Done:  E(RB3LYP) =  -913.440321288     A.U. after   17 cycles
 SCF Done:  E(RB3LYP) =  -913.441468856     A.U. after   13 cycles
 SCF Done:  E(RB3LYP) =  -913.441549097     A.U. after   13 cycles
 SCF Done:  E(RB3LYP) =  -913.441565888     A.U. after   12 cycles
 SCF Done:  E(RB3LYP) =  -913.441566899     A.U. after    9 cycles
 Optimization completed.
    -- Stationary point found.
 Normal termination of Gaussian 16 at Sun Dec 13 20:01:48 2020.

 --------------------------------------------------------------------
 #N Geom=AllCheck Guess=TCheck SCRF=Check GenChk RB3LYP/6-31G(d) Freq
 --------------------------------------------------------------------

 Structure from the checkpoint file:  "JID_3810.chk"
 ------------------------------
 CID_86167585_JID_3810_neutraal
 ------------------------------
 Charge =  0 Multiplicity = 1

 SCF Done:  E(RB3LYP) =  -913.441566899     A.U. after    1 cycles

  Exact polarizability: 226.436  -2.827 154.311   1.780  -1.214  47.746
 Approx polarizability: 421.260 -26.903 287.749  -0.431  -3.118  79.757

                      1                      2                      3
                      A                      A                      A
 Frequencies --     64.0000                97.1005               116.9879
 Red. masses --      7.5157                 8.2761                 8.1140
 Frc consts  --      0.0181                 0.0460                 0.0654
 IR Inten    --      2.0664                 2.5991                10.1560

                      4                      5                      6
                      A                      A                      A
 Frequencies --    174.7080               184.9869               274.7940
 Red. masses --      5.6148                 4.2656                 8.8714
 Frc consts  --      0.1010                 0.0860                 0.3947
 IR Inten    --      0.7413                 1.2533                 1.3154

                      7                      8                      9
                      A                      A                      A
 Frequencies --    294.0639               359.3241               433.7305
 Red. masses --      5.1465                 8.8317                 3.3821
 Frc consts  --      0.2622                 0.6718                 0.3749
 IR Inten    --      2.5231                 3.0676                 3.9251

                     10                     11                     12
                      A                      A                      A
 Frequencies --    463.2416               482.5567               524.6715
 Red. masses --      5.1315                 3.4299                 7.5740
 Frc consts  --      0.6488                 0.4706                 1.2284
 IR Inten    --      1.1125                 1.1799                 1.9889

                     13                     14                     15
                      A                      A                      A
 Frequencies --    536.0559               575.5294               626.3235
 Red. masses --      7.0557                 3.5540                 6.7742
 Frc consts  --      1.1946                 0.6936                 1.5657
 IR Inten    --      2.7361                 4.2309                12.8381

                     16                     17                     18
                      A                      A                      A
 Frequencies --    655.0295               743.2895               752.9295
 Red. masses --      3.7437                 2.5552                 2.0148
 Frc consts  --      0.9464                 0.8318                 0.6729
 IR Inten    --      5.6112                 3.8460                 4.3819

                     19                     20                     21
                      A                      A                      A
 Frequencies --    792.4185               806.8028               818.0277
 Red. masses --      1.6496                 4.7581                 1.9708
 Frc consts  --      0.6103                 1.8248                 0.7770
 IR Inten    --     50.5448                 5.1671                35.6530

                     22                     23                     24
                      A                      A                      A
 Frequencies --    867.6376               886.1600               905.6220
 Red. masses --      4.5861                 1.6405                 1.5039
 Frc consts  --      2.0341                 0.7590                 0.7267
 IR Inten    --      7.6421                 2.3972                 1.1663

                     25                     26                     27
                      A                      A                      A
 Frequencies --    964.1798               976.1591               980.6408
 Red. masses --      1.3234                 1.4687                 4.8357
 Frc consts  --      0.7249                 0.8246                 2.7399
 IR Inten    --      0.7586                 1.5986                13.8050

                     28                     29                     30
                      A                      A                      A
 Frequencies --   1001.3692              1055.2051              1096.1630
 Red. masses --      1.2851                 2.4783                 2.7092
 Frc consts  --      0.7592                 1.6258                 1.9180
 IR Inten    --      0.2272                 4.7618                 8.0970

                     31                     32                     33
                      A                      A                      A
 Frequencies --   1127.7869              1179.7879              1192.0229
 Red. masses --      2.4506                 1.3518                 1.1492
 Frc consts  --      1.8364                 1.1086                 0.9621
 IR Inten    --      9.6522                 4.6852                 1.5474

                     34                     35                     36
                      A                      A                      A
 Frequencies --   1206.0067              1225.9200              1254.2192
 Red. masses --      2.1957                 2.4580                 2.1771
 Frc consts  --      1.8816                 2.1765                 2.0178
 IR Inten    --    122.8221               108.2383                 2.5954

                     37                     38                     39
                      A                      A                      A
 Frequencies --   1273.0278              1307.8627              1381.7605
 Red. masses --      2.1854                 2.3783                 3.4657
 Frc consts  --      2.0867                 2.3969                 3.8986
 IR Inten    --     15.5164                17.8391                 5.8049

                     40                     41                     42
                      A                      A                      A
 Frequencies --   1415.4538              1431.7993              1487.9424
 Red. masses --      8.6371                 2.2149                 2.1259
 Frc consts  --     10.1956                 2.6752                 2.7731
 IR Inten    --      8.6393                 4.0999                 0.8204

                     43                     44                     45
                      A                      A                      A
 Frequencies --   1503.1424              1562.4778              1618.6446
 Red. masses --      2.2712                 3.3446                 6.4536
 Frc consts  --      3.0234                 4.8109                 9.9622
 IR Inten    --      2.5397                11.3037                 1.8686

                     46                     47                     48
                      A                      A                      A
 Frequencies --   1643.6548              1679.9513              3184.4100
 Red. masses --      5.1472                 5.8839                 1.0865
 Frc consts  --      8.1929                 9.7838                 6.4917
 IR Inten    --     10.4449                 0.1607                 1.1246

                     49                     50                     51
                      A                      A                      A
 Frequencies --   3189.3912              3196.7318              3199.7828
 Red. masses --      1.0864                 1.0899                 1.0904
 Frc consts  --      6.5110                 6.5622                 6.5778
 IR Inten    --      0.1841                12.5913                16.3932

                     52                     53                     54
                      A                      A                      A
 Frequencies --   3210.5429              3214.0096              3229.4187
 Red. masses --      1.0951                 1.0963                 1.0936
 Frc consts  --      6.6505                 6.6725                 6.7200
 IR Inten    --     31.0982                16.6550                 5.0568

 - Thermochemistry -
 -------------------
 Temperature   298.150 Kelvin.  Pressure   1.00000 Atm.
 Atom     1 has atomic number  6 and mass  12.00000

 Molecular mass:   189.02484 amu.
 Principal axes and moments of inertia in atomic units:
                           1         2         3
     Eigenvalues --  1283.110583809.178515038.24214
           X            0.99993   0.01118   0.00266
           Y           -0.01118   0.99994  -0.00035
           Z           -0.00267   0.00032   1.00000
 This molecule is an asymmetric top.
 Rotational symmetry number  1.
 Warning -- assumption of classical behavior for rotation
           may cause significant error
 Rotational temperatures (Kelvin)      0.06750     0.02274     0.01719
 Rotational constants (GHZ):           1.40654     0.47379     0.35821
 Zero-point vibrational energy     385349.8 (Joules/Mol)
                                   92.10081 (Kcal/Mol)
 Warning -- explicit consideration of  14 degrees of freedom as
           vibrations may cause significant error
 Vibrational temperatures:     92.08   139.71   168.32   251.37   266.15
          (Kelvin)            395.37   423.09   516.99   624.04   666.50
                              694.29   754.89   771.26   828.06   901.14
                              942.44  1069.43  1083.30  1140.11  1160.81
                             1176.96  1248.34  1274.99  1302.99  1387.24
                             1404.48  1410.92  1440.75  1518.20  1577.13
                             1622.63  1697.45  1715.06  1735.17  1763.83
                             1804.54  1831.60  1881.72  1988.05  2036.52
                             2060.04  2140.82  2162.69  2248.06  2328.87
                             2364.85  2417.08  4581.66  4588.82  4599.38
                             4603.77  4619.26  4624.24  4646.41

 Zero-point correction=                           0.146772 (Hartree/Particle)
 Thermal correction to Energy=                    0.156870
 Thermal correction to Enthalpy=                  0.157814
 Thermal correction to Gibbs Free Energy=         0.110183
 Sum of electronic and zero-point Energies=           -913.294795
 Sum of electronic and thermal Energies=              -913.284697
 Sum of electronic and thermal Enthalpies=            -913.283753
 Sum of electronic and thermal Free Energies=         -913.331384

                     E (Thermal)             CV                S
                      KCal/Mol        Cal/Mol-Kelvin    Cal/Mol-Kelvin
 Total                   98.438             39.245            100.248
 Electronic               0.000              0.000              0.000
 Translational            0.889              2.981             41.616
 Rotational               0.889              2.981             31.577
 Vibrational             96.660             33.284             27.055
 Vibration     1          0.597              1.971              4.330
 Vibration     2          0.603              1.951              3.512
 Vibration     3          0.608              1.935              3.150
 Vibration     4          0.627              1.874              2.384
 Vibration     5          0.631              1.860              2.277
 Vibration     6          0.677              1.720              1.566
 Vibration     7          0.689              1.685              1.450
 Vibration     8          0.734              1.556              1.125
 Vibration     9          0.794              1.397              0.847
 Vibration    10          0.821              1.332              0.757
 Vibration    11          0.839              1.289              0.703
 Vibration    12          0.880              1.195              0.599
 Vibration    13          0.891              1.170              0.574
 Vibration    14          0.932              1.084              0.494

 Optimization completed.
    -- Stationary point found.
 Normal termination of Gaussian 16 at Sun Dec 13 20:06:25 2020.

 ----------------------------------------------------------------------
 # B3LYP/6-311++G(d,p) empiricaldispersion=gd3bj scf=xqc pop=npa geom=c
 heck
 ----------------------------------------------------------------------

 --------------------------------------
 CID_86167585_JID_3810_Energie_neutraal
 --------------------------------------
 Structure from the checkpoint file:  "JID_3810.chk"
 Charge =  0 Multiplicity = 1

 SCF Done:  E(RB3LYP) =  -913.602598568     A.U. after   17 cycles
 Normal termination of Gaussian 16 at Sun Dec 13 20:08:31 2020.

 ----------------------------------------------------------------------
 # B3LYP/6-311++G(d,p) empiricaldispersion=gd3bj scf=xqc pop=npa geom=c
 heck
 ----------------------------------------------------------------------

 ------------------------------------
 CID_86167585_JID_3810_Energie_kation
 ------------------------------------
 Structure from the checkpoint file:  "JID_3810.chk"
 Charge =  1 Multiplicity = 2

 SCF Done:  E(UB3LYP) =  -913.309796455     A.U. after   26 cycles
 Normal termination of Gaussian 16 at Sun Dec 13 20:13:04 2020.
 Gaussian 16:  ES64L-G16RevA.03 25-Dec-2016

 ----------------------------------------------------------------------
 # B3LYP/6-311++G(d,p) empiricaldispersion=gd3bj scf=xqc pop=npa geom=c
 heck
 ----------------------------------------------------------------------

 -----------------------------------
 CID_86167585_JID_3810_Energie_anion
 -----------------------------------
 Structure from the checkpoint file:  "JID_3810.chk"
 Charge = -1 Multiplicity = 2

                         Standard orientation:
 ---------------------------------------------------------------------
 Center     Atomic      Atomic             Coordinates (Angstroms)
 Number     Number       Type             X           Y           Z
 ---------------------------------------------------------------------
      1          6           0       -3.325159   -1.352841   -0.121249
      2          6           0       -2.189804   -2.181758    0.035395
      3          6           0       -0.931128   -1.631812    0.141823
      4          6           0       -0.756435   -0.226999    0.107738
      5          6           0       -1.902054    0.616659   -0.044852
      6          6           0       -3.182673    0.015290   -0.159394
      7          6           0       -1.733008    2.025797   -0.074248
      8          6           0       -0.481546    2.586735    0.050891
      9          6           0        0.657164    1.769764    0.192899
     10          6           0        0.539870    0.383738    0.204714
     11          7           0        1.632114   -0.476930    0.368552
     12         16           0        2.988591   -0.133982   -0.321800
     13          8           0        4.082518   -1.053953    0.062525
     14          1           0       -4.310828   -1.800561   -0.208921
     15          1           0       -2.313196   -3.260181    0.072059
     16          1           0       -0.055125   -2.259172    0.261862
     17          1           0       -4.050556    0.658672   -0.278160
     18          1           0       -2.611799    2.656099   -0.179472
     19          1           0       -0.362980    3.666029    0.054080
     20          1           0        1.630730    2.225509    0.344984
 ---------------------------------------------------------------------

 SCF Done:  E(UB3LYP) =  -913.660961960     A.U. after   26 cycles

 The electronic state is 2-A.
 Alpha  occ. eigenvalues --  -88.76515 -18.93690 -14.14403 -10.07830 -10.06451
 Alpha  occ. eigenvalues --  -10.06385 -10.06143 -10.05800 -10.05562 -10.05389
 Alpha  occ. eigenvalues --  -10.05178 -10.04227 -10.03575  -7.84417  -5.80696
 Alpha  occ. eigenvalues --   -5.80453  -5.80242  -0.87940  -0.77497  -0.74051
 Alpha  occ. eigenvalues --   -0.69578  -0.64454  -0.62273  -0.59159  -0.51358
 Alpha  occ. eigenvalues --   -0.49702  -0.48727  -0.42970  -0.39588  -0.38089
 Alpha  occ. eigenvalues --   -0.37093  -0.32891  -0.32349  -0.30683  -0.30112
 Alpha  occ. eigenvalues --   -0.28706  -0.28296  -0.26209  -0.25868  -0.24826
 Alpha  occ. eigenvalues --   -0.22383  -0.22110  -0.21361  -0.18268  -0.14476
 Alpha  occ. eigenvalues --   -0.13518  -0.13069  -0.10632  -0.07904   0.00714
 Alpha virt. eigenvalues --    0.07637   0.07915   0.08687   0.09780   0.09843
 Alpha virt. eigenvalues --    0.10983   0.12131   0.13299   0.13857   0.14388
 Alpha virt. eigenvalues --    0.15460   0.15676   0.16185   0.16719   0.17464

  Beta  occ. eigenvalues --  -88.76244 -18.93051 -14.14012 -10.07809 -10.06464
  Beta  occ. eigenvalues --  -10.06416 -10.06099 -10.05768 -10.05535 -10.05426
  Beta  occ. eigenvalues --  -10.05171 -10.04084 -10.03461  -7.84172  -5.80553
  Beta  occ. eigenvalues --   -5.80113  -5.79592  -0.86819  -0.76988  -0.73716
  Beta  occ. eigenvalues --   -0.69394  -0.64295  -0.62188  -0.58912  -0.51003
  Beta  occ. eigenvalues --   -0.49590  -0.48382  -0.42418  -0.39477  -0.37958
  Beta  occ. eigenvalues --   -0.36690  -0.32747  -0.31956  -0.30405  -0.30028
  Beta  occ. eigenvalues --   -0.28630  -0.27828  -0.25940  -0.24819  -0.23041
  Beta  occ. eigenvalues --   -0.22157  -0.21909  -0.20834  -0.17527  -0.13921
  Beta  occ. eigenvalues --   -0.12858  -0.11844  -0.09275  -0.06574
  Beta virt. eigenvalues --    0.07072   0.07634   0.08667   0.09707   0.09865
  Beta virt. eigenvalues --    0.09923   0.10987   0.12176   0.13568   0.13919
  Beta virt. eigenvalues --    0.14421   0.15596   0.15845   0.16271   0.16764

 Mulliken charges and spin densities:
               1          2
     1  C   -0.287538  -0.006314
     2  C   -0.477807   0.035586
     3  C   -0.225379   0.005701
     4  C    0.577545   0.025698
     5  C    0.534072  -0.037023
     6  C   -0.028471   0.030550
     7  C   -0.397145   0.131366
     8  C   -0.400875   0.035571
     9  C    0.215661   0.225223
    10  C   -0.887037  -0.254092
    11  N   -0.288191   0.131816
    12  S    0.229110   0.490010
    13  O   -0.453905   0.178012
    14  H    0.120787   0.000589
    15  H    0.128805  -0.001480
    16  H    0.221186   0.000654
    17  H    0.100325  -0.002169
    18  H    0.075987  -0.008546
    19  H    0.125297   0.000923
    20  H    0.117572   0.017926
 Sum of Mulliken charges =  -1.00000   1.00000

 Dipole moment (field-independent basis, Debye):
    X=             -7.8079    Y=              2.2050    Z=             -0.6534  Tot=              8.1395
 Quadrupole moment (field-independent basis, Debye-Ang):
   XX=           -132.0395   YY=            -91.7168   ZZ=            -92.2004
   XY=             10.9452   XZ=             -0.9185   YZ=              1.1889

 Summary of Natural Population Analysis:

                                       Natural Population
                Natural  -----------------------------------------------
    Atom  No    Charge         Core      Valence    Rydberg      Total
 -----------------------------------------------------------------------
      C    1   -0.13338      0.99961     2.11686    0.01691     3.13338
      C    2   -0.06776      0.99959     2.06388    0.00429     3.06776
      C    3   -0.10037      0.99958     2.08416    0.01663     3.10037
      C    4   -0.03158      0.99945     2.01981    0.01231     3.03158
      C    5   -0.03378      0.99950     2.02601    0.00827     3.03378
      C    6   -0.08782      0.99954     2.07942    0.00886     3.08782
      C    7   -0.08946      0.99954     2.08077    0.00916     3.08946
      C    8   -0.10585      0.99958     2.09736    0.00891     3.10585
      C    9   -0.10893      0.99952     2.09729    0.01212     3.10893
      C   10    0.08635      0.99945     1.89879    0.01541     2.91365
      N   11   -0.35139      0.99969     2.83508    0.01663     3.85139
      S   12    0.72510      4.99928     2.19681    0.07881     7.27490
      O   13   -0.37325      0.99993     3.36420    0.00912     4.37325
      H   14    0.09188      0.00000     0.40652    0.00159     0.40812
      H   15    0.09102      0.00000     0.40808    0.00090     0.40898
      H   16    0.11485      0.00000     0.38389    0.00126     0.38515
      H   17    0.09216      0.00000     0.40644    0.00140     0.40784
      H   18    0.08909      0.00000     0.40940    0.00151     0.41091
      H   19    0.09291      0.00000     0.40618    0.00091     0.40709
      H   20    0.10036      0.00000     0.39781    0.00183     0.39964
 =======================================================================
   * Total *    0.00015     16.99424    31.77878    0.22683    48.99985

 Normal termination of Gaussian 16 at Sun Dec 13 20:17:39 2020.
