 Gaussian 16, Revision A.03,

 -----------------------------------------------------------
 # opt freq B3LYP/6-31G(d) empiricaldispersion=gd3bj scf=xqc
 -----------------------------------------------------------

 -------------------------------
 CID_104166568_JID_2441_neutraal
 -------------------------------
 Symbolic Z-matrix:
 Charge =  0 Multiplicity = 1

 SCF Done:  E(RB3LYP) =  -540.944080232     A.U. after   13 cycles
 SCF Done:  E(RB3LYP) =  -540.946606024     A.U. after   11 cycles
 SCF Done:  E(RB3LYP) =  -540.945308576     A.U. after   11 cycles
 SCF Done:  E(RB3LYP) =  -540.946581849     A.U. after   11 cycles
 SCF Done:  E(RB3LYP) =  -540.947870249     A.U. after    9 cycles
 SCF Done:  E(RB3LYP) =  -540.948294724     A.U. after   10 cycles
 SCF Done:  E(RB3LYP) =  -540.948302163     A.U. after   10 cycles
 SCF Done:  E(RB3LYP) =  -540.948387327     A.U. after   10 cycles
 SCF Done:  E(RB3LYP) =  -540.948425389     A.U. after    9 cycles
 SCF Done:  E(RB3LYP) =  -540.948435415     A.U. after    9 cycles
 SCF Done:  E(RB3LYP) =  -540.948440537     A.U. after    8 cycles
 SCF Done:  E(RB3LYP) =  -540.948441613     A.U. after    7 cycles
 SCF Done:  E(RB3LYP) =  -540.948442096     A.U. after    7 cycles
 SCF Done:  E(RB3LYP) =  -540.948442185     A.U. after    6 cycles
 Optimization completed.
    -- Stationary point found.
 Normal termination of Gaussian 16 at Wed Dec  9 17:27:06 2020.

 --------------------------------------------------------------------
 #N Geom=AllCheck Guess=TCheck SCRF=Check GenChk RB3LYP/6-31G(d) Freq
 --------------------------------------------------------------------

 Structure from the checkpoint file:  "JID_2441.chk"
 -------------------------------
 CID_104166568_JID_2441_neutraal
 -------------------------------
 Charge =  0 Multiplicity = 1

 SCF Done:  E(RB3LYP) =  -540.948442185     A.U. after    1 cycles

  Exact polarizability: 121.055   2.717 108.213   1.121  -1.371 105.747
 Approx polarizability: 155.603   2.277 155.189  -2.331  -0.441 151.693

                      1                      2                      3
                      A                      A                      A
 Frequencies --     45.9259                61.5476                96.9834
 Red. masses --      3.0534                 3.5422                 2.6331
 Frc consts  --      0.0038                 0.0079                 0.0146
 IR Inten    --      0.2010                 0.5462                 0.7665

                      4                      5                      6
                      A                      A                      A
 Frequencies --    131.5800               151.8088               175.5002
 Red. masses --      2.9800                 2.1343                 2.8134
 Frc consts  --      0.0304                 0.0290                 0.0511
 IR Inten    --      2.8613                 4.5886                 3.9565

                      7                      8                      9
                      A                      A                      A
 Frequencies --    185.9556               211.5815               222.6482
 Red. masses --      1.1827                 1.2765                 1.4362
 Frc consts  --      0.0241                 0.0337                 0.0419
 IR Inten    --      3.1821                 4.5350                 4.3007

                     10                     11                     12
                      A                      A                      A
 Frequencies --    230.8424               251.4677               277.4996
 Red. masses --      1.3095                 1.6307                 2.4644
 Frc consts  --      0.0411                 0.0608                 0.1118
 IR Inten    --      9.0104                 1.7164                 5.1241

                     13                     14                     15
                      A                      A                      A
 Frequencies --    283.0252               311.7720               314.9785
 Red. masses --      1.4278                 1.0931                 1.6418
 Frc consts  --      0.0674                 0.0626                 0.0960
 IR Inten    --     10.6180                 0.4133                11.5426

                     16                     17                     18
                      A                      A                      A
 Frequencies --    329.9597               363.0017               382.3629
 Red. masses --      2.4225                 2.1929                 2.1360
 Frc consts  --      0.1554                 0.1703                 0.1840
 IR Inten    --      2.6523                 0.2338                 2.0841

                     19                     20                     21
                      A                      A                      A
 Frequencies --    412.3407               440.6245               457.7070
 Red. masses --      2.7232                 2.3720                 2.6497
 Frc consts  --      0.2728                 0.2713                 0.3271
 IR Inten    --      6.6615                 2.5201                 1.8898

                     22                     23                     24
                      A                      A                      A
 Frequencies --    494.7071               505.6016               563.4315
 Red. masses --      1.9473                 2.5014                 2.7581
 Frc consts  --      0.2808                 0.3767                 0.5159
 IR Inten    --      7.1877                 3.8830                 2.8031

                     25                     26                     27
                      A                      A                      A
 Frequencies --    629.8856               737.4269               781.0021
 Red. masses --      2.9360                 3.0344                 3.1708
 Frc consts  --      0.6863                 0.9722                 1.1395
 IR Inten    --      3.8834                24.0313                 4.5201

                     28                     29                     30
                      A                      A                      A
 Frequencies --    841.4313               877.2353               908.0343
 Red. masses --      2.0841                 1.6116                 2.4726
 Frc consts  --      0.8694                 0.7307                 1.2012
 IR Inten    --      7.6244                11.0051                 2.2377

                     31                     32                     33
                      A                      A                      A
 Frequencies --    922.9587               931.8441               946.5823
 Red. masses --      2.0600                 1.5908                 1.6917
 Frc consts  --      1.0339                 0.8138                 0.8931
 IR Inten    --     28.4626                24.3059               114.6338

                     34                     35                     36
                      A                      A                      A
 Frequencies --    962.9568              1008.0694              1022.3833
 Red. masses --      1.4894                 1.7983                 1.5561
 Frc consts  --      0.8137                 1.0767                 0.9583
 IR Inten    --     75.6127                45.4500                 9.6362

                     37                     38                     39
                      A                      A                      A
 Frequencies --   1033.5535              1091.9481              1117.2643
 Red. masses --      1.6236                 2.6835                 2.1380
 Frc consts  --      1.0219                 1.8852                 1.5724
 IR Inten    --     10.4251                57.3971                 5.2405

                     40                     41                     42
                      A                      A                      A
 Frequencies --   1125.3211              1145.0428              1161.6295
 Red. masses --      1.7826                 1.5378                 1.7039
 Frc consts  --      1.3300                 1.1880                 1.3546
 IR Inten    --     13.9627                10.2330                11.2103

                     43                     44                     45
                      A                      A                      A
 Frequencies --   1183.1359              1188.0643              1195.6377
 Red. masses --      1.7414                 1.6652                 2.1307
 Frc consts  --      1.4362                 1.3848                 1.7946
 IR Inten    --      5.3048                 3.9132                 2.7754

                     46                     47                     48
                      A                      A                      A
 Frequencies --   1207.3222              1234.6958              1241.7416
 Red. masses --      2.7637                 1.5203                 2.1024
 Frc consts  --      2.3735                 1.3655                 1.9100
 IR Inten    --    114.6302                 1.6027                14.5161

                     49                     50                     51
                      A                      A                      A
 Frequencies --   1277.8393              1306.4674              1351.1208
 Red. masses --      1.9484                 2.8899                 1.3261
 Frc consts  --      1.8745                 2.9062                 1.4263
 IR Inten    --     26.2833                 9.1126                 8.2340

                     52                     53                     54
                      A                      A                      A
 Frequencies --   1376.7989              1397.7567              1403.1526
 Red. masses --      1.5118                 1.2655                 1.2328
 Frc consts  --      1.6885                 1.4567                 1.4301
 IR Inten    --      5.2235                 4.4494                 4.4552

                     55                     56                     57
                      A                      A                      A
 Frequencies --   1411.5306              1421.2860              1424.5236
 Red. masses --      1.2314                 1.2370                 1.2693
 Frc consts  --      1.4456                 1.4722                 1.5176
 IR Inten    --      3.5659                 9.6848                 8.3919

                     58                     59                     60
                      A                      A                      A
 Frequencies --   1438.8507              1445.7160              1485.2873
 Red. masses --      1.3304                 1.2355                 1.1378
 Frc consts  --      1.6227                 1.5214                 1.4789
 IR Inten    --     26.4388                13.5258                 2.0044

                     61                     62                     63
                      A                      A                      A
 Frequencies --   1497.1491              1507.5620              1512.1585
 Red. masses --      1.1328                 1.0739                 1.0510
 Frc consts  --      1.4960                 1.4380                 1.4160
 IR Inten    --      0.7732                 1.7046                 1.6483

                     64                     65                     66
                      A                      A                      A
 Frequencies --   1517.0330              1521.7767              1527.4637
 Red. masses --      1.0554                 1.0663                 1.0540
 Frc consts  --      1.4310                 1.4549                 1.4489
 IR Inten    --      1.5968                 1.4885                 4.6157

                     67                     68                     69
                      A                      A                      A
 Frequencies --   1530.0698              1535.3753              1541.4200
 Red. masses --      1.0686                 1.0610                 1.0523
 Frc consts  --      1.4739                 1.4737                 1.4731
 IR Inten    --      4.1015                 3.2801                 5.1155

                     70                     71                     72
                      A                      A                      A
 Frequencies --   1544.5117              1546.6121              1551.5716
 Red. masses --      1.0609                 1.0514                 1.0591
 Frc consts  --      1.4911                 1.4818                 1.5023
 IR Inten    --     16.4228                 3.0648                 3.6180

                     73                     74                     75
                      A                      A                      A
 Frequencies --   1561.0527              1713.5959              2980.4697
 Red. masses --      1.0516                 1.0818                 1.0596
 Frc consts  --      1.5099                 1.8716                 5.5457
 IR Inten    --      2.8326                14.6401                58.5146

                     76                     77                     78
                      A                      A                      A
 Frequencies --   3003.9332              3024.3108              3031.7549
 Red. masses --      1.0725                 1.0408                 1.0821
 Frc consts  --      5.7021                 5.6088                 5.8602
 IR Inten    --     28.1326                77.9383                50.9322

                     79                     80                     81
                      A                      A                      A
 Frequencies --   3050.7551              3058.6664              3063.3618
 Red. masses --      1.0372                 1.0485                 1.0400
 Frc consts  --      5.6876                 5.7795                 5.7501
 IR Inten    --     14.1121                34.4590                28.5524

                     82                     83                     84
                      A                      A                      A
 Frequencies --   3065.0986              3086.8392              3093.6444
 Red. masses --      1.0456                 1.0975                 1.1024
 Frc consts  --      5.7874                 6.1616                 6.2165
 IR Inten    --     13.0263                41.0469                14.8274

                     85                     86                     87
                      A                      A                      A
 Frequencies --   3106.8100              3109.5859              3113.7979
 Red. masses --      1.0916                 1.0784                 1.1013
 Frc consts  --      6.2079                 6.1438                 6.2911
 IR Inten    --     22.1784                35.1560                22.2905

                     88                     89                     90
                      A                      A                      A
 Frequencies --   3123.6700              3125.4092              3129.3739
 Red. masses --      1.1014                 1.1010                 1.0986
 Frc consts  --      6.3320                 6.3363                 6.3387
 IR Inten    --     31.7143                67.7432                33.7441

                     91                     92                     93
                      A                      A                      A
 Frequencies --   3131.2511              3141.1806              3148.8113
 Red. masses --      1.1026                 1.1013                 1.1009
 Frc consts  --      6.3694                 6.4022                 6.4314
 IR Inten    --     23.6437                25.1495                35.9261

                     94                     95                     96
                      A                      A                      A
 Frequencies --   3166.7434              3464.7968              3547.0454
 Red. masses --      1.0996                 1.0495                 1.0910
 Frc consts  --      6.4971                 7.4234                 8.0871
 IR Inten    --      8.5772                 1.7045                 1.1931

 - Thermochemistry -
 -------------------
 Temperature   298.150 Kelvin.  Pressure   1.00000 Atm.
 Atom     1 has atomic number  6 and mass  12.00000

 Molecular mass:   174.17321 amu.
 Principal axes and moments of inertia in atomic units:
                           1         2         3
     Eigenvalues --  1401.172592955.260003117.31202
           X            0.99967   0.01844   0.01781
           Y           -0.01721   0.99760  -0.06713
           Z           -0.01901   0.06680   0.99759
 This molecule is an asymmetric top.
 Rotational symmetry number  1.
 Warning -- assumption of classical behavior for rotation
           may cause significant error
 Rotational temperatures (Kelvin)      0.06182     0.02931     0.02778
 Rotational constants (GHZ):           1.28802     0.61069     0.57894
 Zero-point vibrational energy     828491.8 (Joules/Mol)
                                  198.01429 (Kcal/Mol)
 Warning -- explicit consideration of  24 degrees of freedom as
           vibrations may cause significant error
 Vibrational temperatures:     66.08    88.55   139.54   189.31   218.42
          (Kelvin)            252.51   267.55   304.42   320.34   332.13
                              361.81   399.26   407.21   448.57   453.18
                              474.74   522.28   550.13   593.27   633.96
                              658.54   711.77   727.45   810.65   906.26
                             1060.99  1123.69  1210.63  1262.15  1306.46
                             1327.93  1340.72  1361.92  1385.48  1450.39
                             1470.98  1487.05  1571.07  1607.49  1619.09
                             1647.46  1671.33  1702.27  1709.36  1720.26
                             1737.07  1776.45  1786.59  1838.53  1879.72
                             1943.96  1980.91  2011.06  2018.82  2030.88
                             2044.91  2049.57  2070.19  2080.06  2137.00
                             2154.06  2169.05  2175.66  2182.67  2189.50
                             2197.68  2201.43  2209.06  2217.76  2222.21
                             2225.23  2232.37  2246.01  2465.48  4288.23
                             4321.99  4351.31  4362.02  4389.36  4400.74
                             4407.49  4409.99  4441.27  4451.06  4470.01
                             4474.00  4480.06  4494.26  4496.77  4502.47
                             4505.17  4519.46  4530.44  4556.24  4985.07
                             5103.41

 Zero-point correction=                           0.315556 (Hartree/Particle)
 Thermal correction to Energy=                    0.330716
 Thermal correction to Enthalpy=                  0.331660
 Thermal correction to Gibbs Free Energy=         0.274900
 Sum of electronic and zero-point Energies=           -540.632886
 Sum of electronic and thermal Energies=              -540.617726
 Sum of electronic and thermal Enthalpies=            -540.616782
 Sum of electronic and thermal Free Energies=         -540.673543

                     E (Thermal)             CV                S
                      KCal/Mol        Cal/Mol-Kelvin    Cal/Mol-Kelvin
 Total                  207.527             57.352            119.463
 Electronic               0.000              0.000              0.000
 Translational            0.889              2.981             41.372
 Rotational               0.889              2.981             30.935
 Vibrational            205.750             51.390             47.155
 Vibration     1          0.595              1.979              4.986
 Vibration     2          0.597              1.973              4.407
 Vibration     3          0.603              1.951              3.514
 Vibration     4          0.612              1.922              2.923
 Vibration     5          0.619              1.901              2.649
 Vibration     6          0.627              1.873              2.376
 Vibration     7          0.632              1.859              2.268
 Vibration     8          0.643              1.823              2.030
 Vibration     9          0.648              1.807              1.937
 Vibration    10          0.653              1.794              1.872
 Vibration    11          0.663              1.760              1.720
 Vibration    12          0.678              1.715              1.549
 Vibration    13          0.682              1.705              1.515
 Vibration    14          0.700              1.651              1.353
 Vibration    15          0.702              1.645              1.336
 Vibration    16          0.713              1.616              1.260
 Vibration    17          0.737              1.548              1.109
 Vibration    18          0.752              1.508              1.030
 Vibration    19          0.776              1.443              0.918
 Vibration    20          0.801              1.382              0.825
 Vibration    21          0.816              1.344              0.773
 Vibration    22          0.850              1.262              0.671
 Vibration    23          0.861              1.238              0.644
 Vibration    24          0.919              1.110              0.517

                           ! Non-Optimized Parameters !
 Normal termination of Gaussian 16 at Wed Dec  9 17:38:11 2020.

 ----------------------------------------------------------------------
 # B3LYP/6-311++G(d,p) empiricaldispersion=gd3bj scf=xqc pop=npa geom=c
 heck
 ----------------------------------------------------------------------

 ---------------------------------------
 CID_104166568_JID_2441_Energie_neutraal
 ---------------------------------------
 Structure from the checkpoint file:  "JID_2441.chk"
 Charge =  0 Multiplicity = 1

 SCF Done:  E(RB3LYP) =  -541.112720386     A.U. after   14 cycles
 Normal termination of Gaussian 16 at Wed Dec  9 17:44:04 2020.

 ----------------------------------------------------------------------
 # B3LYP/6-311++G(d,p) empiricaldispersion=gd3bj scf=xqc pop=npa geom=c
 heck
 ----------------------------------------------------------------------

 -------------------------------------
 CID_104166568_JID_2441_Energie_kation
 -------------------------------------
 Structure from the checkpoint file:  "JID_2441.chk"
 Charge =  1 Multiplicity = 2

 SCF Done:  E(UB3LYP) =  -540.829035839     A.U. after   23 cycles
 Normal termination of Gaussian 16 at Wed Dec  9 17:56:32 2020.
 Gaussian 16:  ES64L-G16RevA.03 25-Dec-2016

 ----------------------------------------------------------------------
 # B3LYP/6-311++G(d,p) empiricaldispersion=gd3bj scf=xqc pop=npa geom=c
 heck
 ----------------------------------------------------------------------

 ------------------------------------
 CID_104166568_JID_2441_Energie_anion
 ------------------------------------
 Structure from the checkpoint file:  "JID_2441.chk"
 Charge = -1 Multiplicity = 2

                         Standard orientation:
 ---------------------------------------------------------------------
 Center     Atomic      Atomic             Coordinates (Angstroms)
 Number     Number       Type             X           Y           Z
 ---------------------------------------------------------------------
      1          6           0        2.026187   -0.943534    1.467118
      2          6           0        2.071280   -0.913160   -0.059076
      3          6           0        0.686294   -1.098341   -0.703328
      4          7           0       -0.238025    0.020889   -0.472731
      5          6           0       -0.195176    0.940145   -1.614322
      6          6           0       -1.609373   -0.353510   -0.025655
      7          6           0       -2.375904   -1.192279   -1.067384
      8          6           0       -1.528970   -1.132867    1.297581
      9          6           0       -2.407905    0.952827    0.241880
     10          7           0       -1.800339    1.910754    1.164708
     11          8           0        2.753394    0.227061   -0.600429
     12          6           0        2.654205    1.448983    0.110621
     13          1           0        1.375790   -0.160068    1.864233
     14          1           0        3.027844   -0.822609    1.891641
     15          1           0        1.631453   -1.908462    1.802414
     16          1           0        2.678167   -1.764843   -0.396673
     17          1           0        0.830299   -1.261855   -1.782245
     18          1           0        0.268643   -2.029747   -0.311317
     19          1           0       -0.737030    0.567318   -2.500757
     20          1           0       -0.603197    1.920374   -1.353856
     21          1           0        0.848508    1.077162   -1.898467
     22          1           0       -1.852207   -2.128945   -1.287641
     23          1           0       -3.374342   -1.450094   -0.696231
     24          1           0       -2.504709   -0.647569   -2.008362
     25          1           0       -2.539460   -1.307478    1.683337
     26          1           0       -1.054793   -2.111698    1.185869
     27          1           0       -0.963583   -0.570974    2.045999
     28          1           0       -2.599079    1.461371   -0.709711
     29          1           0       -3.392534    0.674270    0.633755
     30          1           0       -1.853068    1.547353    2.114511
     31          1           0       -0.804153    1.966127    0.952550
     32          1           0        1.615651    1.743071    0.300753
     33          1           0        3.191489    1.416052    1.068642
     34          1           0        3.127886    2.203680   -0.523459
 ---------------------------------------------------------------------

 SCF Done:  E(UB3LYP) =  -541.098103842     A.U. after   28 cycles

 The electronic state is 2-A.
 Alpha  occ. eigenvalues --  -19.01979 -14.20340 -14.18841 -10.11777 -10.10774
 Alpha  occ. eigenvalues --  -10.10589 -10.08724 -10.08720 -10.08408 -10.05631
 Alpha  occ. eigenvalues --  -10.05571 -10.05239  -0.92884  -0.82534  -0.77558
 Alpha  occ. eigenvalues --   -0.68541  -0.66838  -0.59961  -0.59441  -0.58206
 Alpha  occ. eigenvalues --   -0.55858  -0.54493  -0.47484  -0.43777  -0.40444
 Alpha  occ. eigenvalues --   -0.39207  -0.38065  -0.37720  -0.35512  -0.35317
 Alpha  occ. eigenvalues --   -0.33955  -0.33013  -0.32660  -0.31194  -0.29622
 Alpha  occ. eigenvalues --   -0.29171  -0.28462  -0.28069  -0.27797  -0.26428
 Alpha  occ. eigenvalues --   -0.26264  -0.25692  -0.24630  -0.23922  -0.23044
 Alpha  occ. eigenvalues --   -0.20534  -0.16158  -0.14116  -0.11303   0.04516
 Alpha virt. eigenvalues --    0.06794   0.07379   0.07409   0.09011   0.09170
 Alpha virt. eigenvalues --    0.09498   0.09893   0.10345   0.11673   0.11880
 Alpha virt. eigenvalues --    0.12121   0.12395   0.13094   0.13489   0.14128

  Beta  occ. eigenvalues --  -19.01978 -14.20329 -14.18819 -10.11766 -10.10749
  Beta  occ. eigenvalues --  -10.10585 -10.08709 -10.08705 -10.08394 -10.05601
  Beta  occ. eigenvalues --  -10.05535 -10.05200  -0.92874  -0.82516  -0.77524
  Beta  occ. eigenvalues --   -0.68510  -0.66806  -0.59914  -0.59389  -0.58150
  Beta  occ. eigenvalues --   -0.55797  -0.54446  -0.47437  -0.43725  -0.40405
  Beta  occ. eigenvalues --   -0.39176  -0.38041  -0.37682  -0.35476  -0.35286
  Beta  occ. eigenvalues --   -0.33912  -0.32985  -0.32623  -0.31162  -0.29590
  Beta  occ. eigenvalues --   -0.29133  -0.28422  -0.28035  -0.27764  -0.26393
  Beta  occ. eigenvalues --   -0.26229  -0.25660  -0.24600  -0.23895  -0.23013
  Beta  occ. eigenvalues --   -0.20511  -0.16140  -0.14093  -0.11258
  Beta virt. eigenvalues --    0.06705   0.07575   0.08020   0.08113   0.09515
  Beta virt. eigenvalues --    0.09679   0.09958   0.10435   0.10691   0.12128
  Beta virt. eigenvalues --    0.12249   0.12527   0.12842   0.13356   0.13889

 Mulliken charges and spin densities:
               1          2
     1  C    1.771758  -2.252565
     2  C   -2.302045   1.979117
     3  C    1.143099  -1.368980
     4  N    0.396274  -0.026307
     5  C    0.042084  -0.408660
     6  C   -2.709031   2.178710
     7  C    1.154890  -1.637851
     8  C    1.060579  -1.404024
     9  C    0.313875  -0.826815
    10  N   -0.282986   0.035939
    11  O   -0.097966  -0.016638
    12  C    0.470299  -0.775490
    13  H   -0.063886   0.255959
    14  H   -0.224956   0.392420
    15  H   -0.182089   0.314476
    16  H   -0.434705   0.636246
    17  H    0.107603   0.071199
    18  H    0.133600  -0.022567
    19  H   -0.030557   0.159491
    20  H   -0.000462   0.160777
    21  H    0.150730  -0.002043
    22  H   -0.264847   0.426540
    23  H   -0.195226   0.355203
    24  H   -0.003130   0.135089
    25  H   -0.371895   0.535675
    26  H   -0.522725   0.680073
    27  H    0.147042   0.007615
    28  H   -0.011879   0.175522
    29  H   -0.069476   0.228800
    30  H   -0.026909   0.267741
    31  H    0.145896   0.062662
    32  H    0.009573   0.160827
    33  H   -0.198588   0.329565
    34  H   -0.053942   0.192293
 Sum of Mulliken charges =  -1.00000   1.00000

 Dipole moment (field-independent basis, Debye):
    X=              0.8622    Y=              2.4709    Z=             -2.9249  Tot=              3.9248
 Quadrupole moment (field-independent basis, Debye-Ang):
   XX=           -140.6608   YY=           -127.7252   ZZ=           -118.9329
   XY=             -0.5450   XZ=             -0.6174   YZ=              0.5895

 Summary of Natural Population Analysis:

                                       Natural Population
                Natural  -----------------------------------------------
    Atom  No    Charge         Core      Valence    Rydberg      Total
 -----------------------------------------------------------------------
      C    1   -0.30451      0.99964     2.29889    0.00598     3.30451
      C    2    0.06775      0.99953     1.91709    0.01563     2.93225
      C    3   -0.09435      0.99957     2.08202    0.01276     3.09435
      N    4   -0.30371      0.99969     2.78930    0.01471     3.80371
      C    5   -0.18156      0.99963     2.17503    0.00690     3.18156
      C    6    0.06299      0.99955     1.92150    0.01596     2.93701
      C    7   -0.29892      0.99960     2.29212    0.00720     3.29892
      C    8   -0.29340      0.99960     2.28505    0.00875     3.29340
      C    9   -0.09194      0.99956     2.07938    0.01300     3.09194
      N   10   -0.42076      0.99978     2.91108    0.00989     3.92076
      O   11   -0.30885      0.99989     3.29923    0.00974     4.30885
      C   12   -0.10257      0.99959     2.09293    0.01004     3.10257
      H   13    0.10241      0.00000     0.39538    0.00221     0.39759
      H   14    0.10182      0.00000     0.39703    0.00115     0.39818
      H   15    0.10695      0.00000     0.39166    0.00140     0.39305
      H   16    0.08614      0.00000     0.41228    0.00159     0.41386
      H   17    0.08957      0.00000     0.40891    0.00152     0.41043
      H   18    0.10100      0.00000     0.39703    0.00197     0.39900
      H   19    0.08338      0.00000     0.41531    0.00131     0.41662
      H   20    0.09371      0.00000     0.40522    0.00107     0.40629
      H   21    0.10438      0.00000     0.39431    0.00131     0.39562
      H   22    0.10299      0.00000     0.39592    0.00109     0.39701
      H   23    0.10352      0.00000     0.39527    0.00121     0.39648
      H   24    0.09943      0.00000     0.39954    0.00103     0.40057
      H   25    0.10246      0.00000     0.39617    0.00137     0.39754
      H   26    0.10312      0.00000     0.39523    0.00165     0.39688
      H   27    0.10325      0.00000     0.39483    0.00192     0.39675
      H   28    0.09008      0.00000     0.40873    0.00119     0.40992
      H   29    0.09545      0.00000     0.40357    0.00099     0.40455
      H   30    0.17327      0.00000     0.32464    0.00209     0.32673
      H   31    0.17511      0.00000     0.32175    0.00314     0.32489
      H   32    0.08370      0.00000     0.41428    0.00202     0.41630
      H   33    0.08088      0.00000     0.41788    0.00124     0.41912
      H   34    0.08722      0.00000     0.41187    0.00092     0.41278
 =======================================================================
   * Total *   -0.00000     11.99564    36.84041    0.16395    49.00000

 Normal termination of Gaussian 16 at Wed Dec  9 18:11:37 2020.
