 Gaussian 16, Revision A.03,

 -----------------------------------------------------------
 # opt freq B3LYP/6-31G(d) empiricaldispersion=gd3bj scf=xqc
 -----------------------------------------------------------

 -------------------------------
 CID_136935144_JID_5083_neutraal
 -------------------------------
 Symbolic Z-matrix:
 Charge =  0 Multiplicity = 1

 SCF Done:  E(RB3LYP) =  -1381.62188896     A.U. after   16 cycles
 SCF Done:  E(RB3LYP) =  -1381.63004616     A.U. after   13 cycles
 SCF Done:  E(RB3LYP) =  -1381.63129230     A.U. after   12 cycles
 SCF Done:  E(RB3LYP) =  -1381.63142444     A.U. after   12 cycles
 SCF Done:  E(RB3LYP) =  -1381.63174636     A.U. after   12 cycles
 SCF Done:  E(RB3LYP) =  -1381.63183821     A.U. after   11 cycles
 SCF Done:  E(RB3LYP) =  -1381.63186236     A.U. after   11 cycles
 SCF Done:  E(RB3LYP) =  -1381.63186899     A.U. after    9 cycles
 SCF Done:  E(RB3LYP) =  -1381.63186983     A.U. after    8 cycles
 SCF Done:  E(RB3LYP) =  -1381.63187014     A.U. after    8 cycles
 SCF Done:  E(RB3LYP) =  -1381.63187020     A.U. after    8 cycles
 SCF Done:  E(RB3LYP) =  -1381.63187024     A.U. after    8 cycles
 SCF Done:  E(RB3LYP) =  -1381.63187026     A.U. after    8 cycles
 SCF Done:  E(RB3LYP) =  -1381.63187027     A.U. after    7 cycles
 Optimization completed.
    -- Stationary point found.
 Normal termination of Gaussian 16 at Thu Dec 10 14:45:27 2020.

 --------------------------------------------------------------------
 #N Geom=AllCheck Guess=TCheck SCRF=Check GenChk RB3LYP/6-31G(d) Freq
 --------------------------------------------------------------------

 Structure from the checkpoint file:  "JID_5083.chk"
 -------------------------------
 CID_136935144_JID_5083_neutraal
 -------------------------------
 Charge =  0 Multiplicity = 1

 SCF Done:  E(RB3LYP) =  -1381.63187027     A.U. after    1 cycles

  Exact polarizability: 210.546  14.407 133.970   4.819 -17.584 104.909
 Approx polarizability: 338.512  31.466 223.633   4.972 -57.308 193.072

                      1                      2                      3
                      A                      A                      A
 Frequencies --     31.5191                45.9480                54.8406
 Red. masses --      6.1484                 4.3738                 3.2302
 Frc consts  --      0.0036                 0.0054                 0.0057
 IR Inten    --      0.4817                 1.1648                 0.5147

                      4                      5                      6
                      A                      A                      A
 Frequencies --     72.8825               106.0904               115.4586
 Red. masses --      7.0066                 4.9863                 8.5076
 Frc consts  --      0.0219                 0.0331                 0.0668
 IR Inten    --      2.4440                 0.8573                 4.0448

                      7                      8                      9
                      A                      A                      A
 Frequencies --    186.8596               228.8439               238.4950
 Red. masses --      7.1343                 1.1159                 2.0456
 Frc consts  --      0.1468                 0.0344                 0.0686
 IR Inten    --      0.3151                 0.1132                 1.1256

                     10                     11                     12
                      A                      A                      A
 Frequencies --    248.4506               274.2459               298.4099
 Red. masses --      3.7890                 1.8369                 4.2786
 Frc consts  --      0.1378                 0.0814                 0.2245
 IR Inten    --      0.9357                 0.6316                 0.9063

                     13                     14                     15
                      A                      A                      A
 Frequencies --    316.5375               358.3569               374.9242
 Red. masses --      3.5658                 3.0455                 7.2535
 Frc consts  --      0.2105                 0.2304                 0.6007
 IR Inten    --      2.8521                 0.4264                 1.7862

                     16                     17                     18
                      A                      A                      A
 Frequencies --    415.6860               443.3035               476.6136
 Red. masses --      1.9051                 3.6245                 4.8436
 Frc consts  --      0.1940                 0.4197                 0.6483
 IR Inten    --      1.0392                10.0792                 4.6393

                     19                     20                     21
                      A                      A                      A
 Frequencies --    514.3183               541.2924               574.8383
 Red. masses --      7.1308                 1.6953                 6.0937
 Frc consts  --      1.1114                 0.2927                 1.1864
 IR Inten    --     10.9996                80.6028                 2.6044

                     22                     23                     24
                      A                      A                      A
 Frequencies --    605.9756               650.1394               682.0156
 Red. masses --      7.3804                 4.8402                 4.5857
 Frc consts  --      1.5968                 1.2054                 1.2567
 IR Inten    --     16.2227                 2.4183                 6.8214

                     25                     26                     27
                      A                      A                      A
 Frequencies --    712.9756               743.9256               772.3266
 Red. masses --      8.0358                 8.4032                 5.1939
 Frc consts  --      2.4067                 2.7400                 1.8254
 IR Inten    --     20.0944                 9.5958                 7.0857

                     28                     29                     30
                      A                      A                      A
 Frequencies --    828.3152               857.0478               880.9703
 Red. masses --      2.7632                 1.3698                 8.2072
 Frc consts  --      1.1170                 0.5928                 3.7529
 IR Inten    --      4.4128                17.5162                34.7740

                     31                     32                     33
                      A                      A                      A
 Frequencies --    899.9022               946.8866               961.8472
 Red. masses --      1.5632                 1.2651                 2.0202
 Frc consts  --      0.7459                 0.6683                 1.1012
 IR Inten    --     12.0118                 3.4278                 1.1423

                     34                     35                     36
                      A                      A                      A
 Frequencies --    969.9451               983.9627              1062.7028
 Red. masses --      4.2749                 1.5407                 3.9039
 Frc consts  --      2.3696                 0.8789                 2.5976
 IR Inten    --     10.3581                 1.4601                13.3962

                     37                     38                     39
                      A                      A                      A
 Frequencies --   1132.5746              1147.4402              1157.5912
 Red. masses --      4.0126                 2.2746                 2.3481
 Frc consts  --      3.0326                 1.7645                 1.8539
 IR Inten    --     27.6104                 6.5210                 3.2967

                     40                     41                     42
                      A                      A                      A
 Frequencies --   1186.3714              1208.1146              1224.5762
 Red. masses --      2.7668                 1.8275                 3.5747
 Frc consts  --      2.2944                 1.5715                 3.1583
 IR Inten    --     32.1991                 5.5659                 1.7508

                     43                     44                     45
                      A                      A                      A
 Frequencies --   1264.6662              1291.8936              1312.4033
 Red. masses --      2.4735                 3.4454                 2.2503
 Frc consts  --      2.3308                 3.3880                 2.2836
 IR Inten    --    141.8096                27.6982                32.3978

                     46                     47                     48
                      A                      A                      A
 Frequencies --   1355.3799              1363.4296              1366.1693
 Red. masses --      1.5256                 4.0043                 2.3313
 Frc consts  --      1.6513                 4.3857                 2.5637
 IR Inten    --     17.2376                11.7897                75.7135

                     49                     50                     51
                      A                      A                      A
 Frequencies --   1395.2015              1415.0163              1432.2937
 Red. masses --      1.5093                 1.3551                 1.3032
 Frc consts  --      1.7310                 1.5986                 1.5752
 IR Inten    --      6.1673                 2.2598                 2.5459

                     52                     53                     54
                      A                      A                      A
 Frequencies --   1446.9922              1455.2690              1494.9564
 Red. masses --      2.1658                 1.3712                 2.4732
 Frc consts  --      2.6718                 1.7110                 3.2566
 IR Inten    --     27.3908                 6.2000               338.8946

                     55                     56                     57
                      A                      A                      A
 Frequencies --   1500.4639              1517.6400              1525.6886
 Red. masses --      1.5188                 1.0620                 1.0674
 Frc consts  --      2.0147                 1.4411                 1.4639
 IR Inten    --     46.3110                 1.2762                 2.0315

                     58                     59                     60
                      A                      A                      A
 Frequencies --   1534.4675              1536.8135              1542.1651
 Red. masses --      1.2006                 1.9732                 1.0737
 Frc consts  --      1.6656                 2.7458                 1.5045
 IR Inten    --     26.6205                42.5399                26.4694

                     61                     62                     63
                      A                      A                      A
 Frequencies --   1617.4167              3042.1940              3047.0334
 Red. masses --      9.0795                 1.0382                 1.0404
 Frc consts  --     13.9945                 5.6609                 5.6912
 IR Inten    --      4.6366                24.8477                13.6113

                     64                     65                     66
                      A                      A                      A
 Frequencies --   3065.0964              3105.5306              3108.0660
 Red. masses --      1.0806                 1.0636                 1.0985
 Frc consts  --      5.9815                 6.0434                 6.2523
 IR Inten    --      1.3991                10.4315                12.8631

                     67                     68                     69
                      A                      A                      A
 Frequencies --   3115.2276              3122.1644              3126.4718
 Red. masses --      1.0999                 1.1022                 1.1017
 Frc consts  --      6.2890                 6.3301                 6.3451
 IR Inten    --     34.0402                22.4786                37.9396

                     70                     71                     72
                      A                      A                      A
 Frequencies --   3165.7661              3268.7546              3670.7337
 Red. masses --      1.1025                 1.0948                 1.0823
 Frc consts  --      6.5101                 6.8921                 8.5922
 IR Inten    --     10.8589                 1.6003               121.7329

 - Thermochemistry -
 -------------------
 Temperature   298.150 Kelvin.  Pressure   1.00000 Atm.
 Atom     1 has atomic number  6 and mass  12.00000

 Molecular mass:   241.04559 amu.
 Principal axes and moments of inertia in atomic units:
                           1         2         3
     Eigenvalues --  2387.511895237.621486750.16835
           X            0.99965  -0.02636  -0.00302
           Y            0.02639   0.99961   0.00911
           Z            0.00278  -0.00918   0.99995
 This molecule is an asymmetric top.
 Rotational symmetry number  1.
 Warning -- assumption of classical behavior for rotation
           may cause significant error
 Rotational temperatures (Kelvin)      0.03628     0.01654     0.01283
 Rotational constants (GHZ):           0.75591     0.34457     0.26736
 Zero-point vibrational energy     524795.1 (Joules/Mol)
                                  125.42903 (Kcal/Mol)
 Warning -- explicit consideration of  22 degrees of freedom as
           vibrations may cause significant error
 Vibrational temperatures:     45.35    66.11    78.90   104.86   152.64
          (Kelvin)            166.12   268.85   329.26   343.14   357.47
                              394.58   429.35   455.43   515.60   539.43
                              598.08   637.81   685.74   739.99   778.80
                              827.06   871.86   935.41   981.27  1025.81
                             1070.34  1111.21  1191.76  1233.10  1267.52
                             1294.76  1362.36  1383.88  1395.53  1415.70
                             1528.99  1629.52  1650.91  1665.52  1706.92
                             1738.21  1761.89  1819.57  1858.75  1888.26
                             1950.09  1961.67  1965.61  2007.38  2035.89
                             2060.75  2081.90  2093.81  2150.91  2158.83
                             2183.55  2195.13  2207.76  2211.13  2218.83
                             2327.10  4377.04  4384.00  4409.99  4468.17
                             4471.81  4482.12  4492.10  4498.30  4554.83
                             4703.01  5281.37

 Zero-point correction=                           0.199884 (Hartree/Particle)
 Thermal correction to Energy=                    0.214302
 Thermal correction to Enthalpy=                  0.215246
 Thermal correction to Gibbs Free Energy=         0.156772
 Sum of electronic and zero-point Energies=          -1381.431986
 Sum of electronic and thermal Energies=             -1381.417568
 Sum of electronic and thermal Enthalpies=           -1381.416624
 Sum of electronic and thermal Free Energies=        -1381.475098

                     E (Thermal)             CV                S
                      KCal/Mol        Cal/Mol-Kelvin    Cal/Mol-Kelvin
 Total                  134.477             53.052            123.068
 Electronic               0.000              0.000              0.000
 Translational            0.889              2.981             42.341
 Rotational               0.889              2.981             32.801
 Vibrational            132.699             47.091             47.927
 Vibration     1          0.594              1.983              5.731
 Vibration     2          0.595              1.979              4.985
 Vibration     3          0.596              1.976              4.635
 Vibration     4          0.599              1.967              4.074
 Vibration     5          0.605              1.944              3.339
 Vibration     6          0.608              1.937              3.175
 Vibration     7          0.632              1.858              2.259
 Vibration     8          0.652              1.797              1.888
 Vibration     9          0.656              1.782              1.814
 Vibration    10          0.662              1.765              1.742
 Vibration    11          0.677              1.721              1.569
 Vibration    12          0.691              1.677              1.426
 Vibration    13          0.703              1.642              1.328
 Vibration    14          0.733              1.558              1.129
 Vibration    15          0.746              1.524              1.060
 Vibration    16          0.779              1.436              0.907
 Vibration    17          0.803              1.376              0.816
 Vibration    18          0.833              1.302              0.719
 Vibration    19          0.869              1.218              0.623
 Vibration    20          0.896              1.159              0.563
 Vibration    21          0.931              1.086              0.495
 Vibration    22          0.965              1.019              0.439

 Optimization completed.
    -- Stationary point found.
 Normal termination of Gaussian 16 at Thu Dec 10 14:53:23 2020.

 ----------------------------------------------------------------------
 # B3LYP/6-311++G(d,p) empiricaldispersion=gd3bj scf=xqc pop=npa geom=c
 heck
 ----------------------------------------------------------------------

 ---------------------------------------
 CID_136935144_JID_5083_Energie_neutraal
 ---------------------------------------
 Structure from the checkpoint file:  "JID_5083.chk"
 Charge =  0 Multiplicity = 1

 SCF Done:  E(RB3LYP) =  -1381.83837818     A.U. after   17 cycles
 Normal termination of Gaussian 16 at Thu Dec 10 14:56:52 2020.

 ----------------------------------------------------------------------
 # B3LYP/6-311++G(d,p) empiricaldispersion=gd3bj scf=xqc pop=npa geom=c
 heck
 ----------------------------------------------------------------------

 -------------------------------------
 CID_136935144_JID_5083_Energie_kation
 -------------------------------------
 Structure from the checkpoint file:  "JID_5083.chk"
 Charge =  1 Multiplicity = 2

 SCF Done:  E(UB3LYP) =  -1381.54229433     A.U. after   27 cycles
 Normal termination of Gaussian 16 at Thu Dec 10 15:07:01 2020.
 Gaussian 16:  ES64L-G16RevA.03 25-Dec-2016

 ----------------------------------------------------------------------
 # B3LYP/6-311++G(d,p) empiricaldispersion=gd3bj scf=xqc pop=npa geom=c
 heck
 ----------------------------------------------------------------------

 ------------------------------------
 CID_136935144_JID_5083_Energie_anion
 ------------------------------------
 Structure from the checkpoint file:  "JID_5083.chk"
 Charge = -1 Multiplicity = 2

                         Standard orientation:
 ---------------------------------------------------------------------
 Center     Atomic      Atomic             Coordinates (Angstroms)
 Number     Number       Type             X           Y           Z
 ---------------------------------------------------------------------
      1          6           0       -0.301847    1.952186    1.469202
      2          6           0       -1.468635    1.927549    0.476550
      3          6           0       -1.830828    3.338518   -0.000036
      4          6           0       -1.165506    1.056001   -0.752128
      5          7           0       -0.910656   -0.343695   -0.409539
      6          6           0        0.292289   -0.971538   -0.130417
      7          7           0        0.102216   -2.190869    0.314838
      8          7           0       -1.250520   -2.331236    0.316304
      9          6           0       -1.936217   -1.233665   -0.116981
     10         16           0       -3.582574   -1.024808   -0.252257
     11          6           0        1.618333   -0.400074   -0.287458
     12          6           0        2.111288    0.439680   -1.263595
     13          7           0        3.430321    0.766522   -1.110346
     14          7           0        4.003985    0.249320   -0.093382
     15         16           0        2.894813   -0.743923    0.811475
     16          1           0        0.608067    2.351847    1.004144
     17          1           0       -0.072613    0.953904    1.857202
     18          1           0       -0.544609    2.587520    2.327380
     19          1           0       -2.345831    1.490274    0.968580
     20          1           0       -0.986197    3.808965   -0.520021
     21          1           0       -2.685731    3.321581   -0.685063
     22          1           0       -2.093389    3.976700    0.849859
     23          1           0       -2.020836    1.051079   -1.432191
     24          1           0       -0.296780    1.441221   -1.287045
     25          1           0       -1.675144   -3.202692    0.597971
     26          1           0        1.576561    0.817063   -2.124261
 ---------------------------------------------------------------------

 SCF Done:  E(UB3LYP) =  -1381.87761160     A.U. after   23 cycles

 The electronic state is 2-A.
 Alpha  occ. eigenvalues --  -88.72863 -88.68587 -14.27980 -14.26686 -14.21467
 Alpha  occ. eigenvalues --  -14.19516 -14.19255 -10.17169 -10.12726 -10.11302
 Alpha  occ. eigenvalues --  -10.08443 -10.07702 -10.06059 -10.05958 -10.05727
 Alpha  occ. eigenvalues --   -7.81470  -7.77373  -5.77813  -5.77395  -5.77067
 Alpha  occ. eigenvalues --   -5.73818  -5.73130  -5.72938  -0.97516  -0.88382
 Alpha  occ. eigenvalues --   -0.83901  -0.75097  -0.71548  -0.66829  -0.63770
 Alpha  occ. eigenvalues --   -0.62976  -0.60170  -0.59558  -0.54707  -0.51219
 Alpha  occ. eigenvalues --   -0.47340  -0.45912  -0.44719  -0.41017  -0.38851
 Alpha  occ. eigenvalues --   -0.37926  -0.36788  -0.36112  -0.33993  -0.31788
 Alpha  occ. eigenvalues --   -0.30495  -0.30328  -0.29474  -0.28798  -0.27545
 Alpha  occ. eigenvalues --   -0.26548  -0.25013  -0.24010  -0.23448  -0.20782
 Alpha  occ. eigenvalues --   -0.20628  -0.20251  -0.19237  -0.14990  -0.12953
 Alpha  occ. eigenvalues --   -0.11506  -0.10759  -0.09581   0.02327
 Alpha virt. eigenvalues --    0.07112   0.08710   0.09253   0.09860   0.10159
 Alpha virt. eigenvalues --    0.10544   0.11920   0.12228   0.12630   0.12717
 Alpha virt. eigenvalues --    0.13276   0.13792   0.14346   0.14516   0.14906

  Beta  occ. eigenvalues --  -88.72761 -88.68590 -14.27927 -14.26586 -14.21114
  Beta  occ. eigenvalues --  -14.19522 -14.18527 -10.17194 -10.12657 -10.11308
  Beta  occ. eigenvalues --  -10.08438 -10.07701 -10.06060 -10.05669 -10.05567
  Beta  occ. eigenvalues --   -7.81380  -7.77376  -5.77767  -5.77353  -5.76730
  Beta  occ. eigenvalues --   -5.73819  -5.73140  -5.72940  -0.97275  -0.87734
  Beta  occ. eigenvalues --   -0.83662  -0.74738  -0.71523  -0.66255  -0.63170
  Beta  occ. eigenvalues --   -0.62828  -0.60059  -0.59553  -0.54281  -0.51115
  Beta  occ. eigenvalues --   -0.47304  -0.45616  -0.44235  -0.40632  -0.38667
  Beta  occ. eigenvalues --   -0.37816  -0.36685  -0.35825  -0.33733  -0.31591
  Beta  occ. eigenvalues --   -0.30370  -0.30209  -0.29429  -0.27625  -0.27116
  Beta  occ. eigenvalues --   -0.26339  -0.24975  -0.23981  -0.22888  -0.20164
  Beta  occ. eigenvalues --   -0.19872  -0.19706  -0.18691  -0.13484  -0.11522
  Beta  occ. eigenvalues --   -0.11051  -0.10224  -0.08713
  Beta virt. eigenvalues --    0.07087   0.08684   0.09033   0.09255   0.09999
  Beta virt. eigenvalues --    0.10201   0.10538   0.11943   0.12504   0.12682
  Beta virt. eigenvalues --    0.13130   0.13686   0.14160   0.14494   0.14718

 Mulliken charges and spin densities:
               1          2
     1  C   -0.558908  -0.032517
     2  C    0.416172   0.024511
     3  C   -0.693894  -0.005286
     4  C   -0.507403   0.004007
     5  N    0.166329   0.032144
     6  C    0.044302   0.065386
     7  N   -0.046440   0.157543
     8  N   -0.122874   0.011319
     9  C    0.499499  -0.013064
    10  S   -0.957106  -0.004151
    11  C   -0.012458   0.135131
    12  C   -0.537470   0.113399
    13  N   -0.085621  -0.001024
    14  N   -0.149547   0.288165
    15  S   -0.204391   0.213357
    16  H    0.163057   0.008366
    17  H    0.189517   0.011595
    18  H    0.142516  -0.004185
    19  H    0.140997   0.000995
    20  H    0.129363   0.004951
    21  H    0.126064   0.001627
    22  H    0.130650  -0.000221
    23  H    0.159881  -0.001694
    24  H    0.082702  -0.001571
    25  H    0.345181  -0.000271
    26  H    0.139880  -0.008513
 Sum of Mulliken charges =  -1.00000   1.00000

 Dipole moment (field-independent basis, Debye):
    X=             -5.9580    Y=              1.9557    Z=              0.9012  Tot=              6.3352
 Quadrupole moment (field-independent basis, Debye-Ang):
   XX=           -182.5828   YY=           -114.9888   ZZ=           -112.8852
   XY=             -7.4912   XZ=              1.5404   YZ=             -0.1056

 Summary of Natural Population Analysis:

                                       Natural Population
                Natural  -----------------------------------------------
    Atom  No    Charge         Core      Valence    Rydberg      Total
 -----------------------------------------------------------------------
      C    1   -0.28831      0.99965     2.28344    0.00521     3.28831
      C    2   -0.12114      0.99961     2.11525    0.00628     3.12114
      C    3   -0.28415      0.99966     2.27984    0.00466     3.28415
      C    4   -0.08524      0.99959     2.07566    0.00999     3.08524
      N    5   -0.21228      0.99957     2.69887    0.01384     3.71228
      C    6    0.18746      0.99956     1.79198    0.02101     2.81254
      N    7   -0.09985      0.99969     2.58940    0.01076     3.59985
      N    8   -0.18513      0.99963     2.67306    0.01244     3.68513
      C    9    0.11146      0.99964     1.87040    0.01850     2.88854
      S   10   -0.17448      4.99960     3.15944    0.01544     8.17448
      C   11   -0.08611      0.99948     2.07611    0.01052     3.08611
      C   12   -0.03323      0.99950     2.01902    0.01470     3.03323
      N   13   -0.13582      0.99973     2.61633    0.01976     3.63582
      N   14   -0.07995      0.99982     2.56177    0.01836     3.57995
      S   15    0.28100      4.99947     2.69205    0.02748     7.71900
      H   16    0.10364      0.00000     0.39545    0.00091     0.39636
      H   17    0.10757      0.00000     0.39167    0.00077     0.39243
      H   18    0.09366      0.00000     0.40557    0.00077     0.40634
      H   19    0.10265      0.00000     0.39526    0.00209     0.39735
      H   20    0.09597      0.00000     0.40309    0.00094     0.40403
      H   21    0.09830      0.00000     0.40089    0.00080     0.40170
      H   22    0.09736      0.00000     0.40185    0.00079     0.40264
      H   23    0.10976      0.00000     0.38910    0.00114     0.39024
      H   24    0.10540      0.00000     0.39316    0.00144     0.39460
      H   25    0.19934      0.00000     0.29877    0.00189     0.30066
      H   26    0.09213      0.00000     0.40656    0.00131     0.40787
 =======================================================================
   * Total *    0.00000     22.99421    39.78397    0.22182    63.00000

 Normal termination of Gaussian 16 at Thu Dec 10 15:17:00 2020.
