 Gaussian 16, Revision A.03,

 -----------------------------------------------------------
 # opt freq B3LYP/6-31G(d) empiricaldispersion=gd3bj scf=xqc
 -----------------------------------------------------------

 ------------------------------
 CID_90837198_JID_4214_neutraal
 ------------------------------
 Symbolic Z-matrix:
 Charge =  0 Multiplicity = 1

 SCF Done:  E(RB3LYP) =  -2343.53910267     A.U. after   13 cycles
 SCF Done:  E(RB3LYP) =  -2343.55435716     A.U. after   12 cycles
 SCF Done:  E(RB3LYP) =  -2343.55750340     A.U. after   12 cycles
 SCF Done:  E(RB3LYP) =  -2343.55690888     A.U. after   12 cycles
 SCF Done:  E(RB3LYP) =  -2343.55835778     A.U. after   12 cycles
 SCF Done:  E(RB3LYP) =  -2343.55926746     A.U. after   13 cycles
 SCF Done:  E(RB3LYP) =  -2343.55976794     A.U. after   12 cycles
 SCF Done:  E(RB3LYP) =  -2343.55973080     A.U. after   12 cycles
 SCF Done:  E(RB3LYP) =  -2343.55959983     A.U. after   13 cycles
 SCF Done:  E(RB3LYP) =  -2343.56015251     A.U. after   11 cycles
 SCF Done:  E(RB3LYP) =  -2343.56044013     A.U. after   10 cycles
 SCF Done:  E(RB3LYP) =  -2343.56044097     A.U. after    9 cycles
 SCF Done:  E(RB3LYP) =  -2343.56044167     A.U. after    8 cycles
 SCF Done:  E(RB3LYP) =  -2343.56044331     A.U. after   10 cycles
 SCF Done:  E(RB3LYP) =  -2343.56044429     A.U. after    9 cycles
 SCF Done:  E(RB3LYP) =  -2343.56044431     A.U. after    8 cycles
 Optimization completed.
    -- Stationary point found.

 1\1\GINC-NODE223\FOpt\RB3LYP\6-31G(d)\C9H16S5\VSC10255\10-Dec-2020\0\\
 # opt freq B3LYP/6-31G(d) empiricaldispersion=gd3bj scf=xqc\\CID_90837
 198_JID_4214_neutraal\\0,1\C,0.9558099061,0.0853386689,-0.4978378645\C
 ,0.3891516103,-1.2928264974,-0.1468555655\C,0.3992285601,-1.5643160255
 ,1.3729756447\S,-0.7915182677,-0.4689221919,2.2475035535\C,-0.18150482
 18,-0.6716458838,3.9582073614\C,1.0878150129,0.0949066779,4.376975733\
 S,0.3575618318,0.3903771231,6.0615858205\C,-1.1145234472,-0.0701846617
 ,5.0217364498\S,0.2988883467,-3.3513760871,1.8333702356\C,-1.490754157

 Normal termination of Gaussian 16 at Thu Dec 10 11:34:14 2020.

 --------------------------------------------------------------------
 #N Geom=AllCheck Guess=TCheck SCRF=Check GenChk RB3LYP/6-31G(d) Freq
 --------------------------------------------------------------------

 Structure from the checkpoint file:  "JID_4214.chk"
 ------------------------------
 CID_90837198_JID_4214_neutraal
 ------------------------------
 Charge =  0 Multiplicity = 1

 SCF Done:  E(RB3LYP) =  -2343.56044431     A.U. after    1 cycles

  Exact polarizability: 210.148   1.530 180.647  -8.211   7.088 142.139
 Approx polarizability: 290.054   4.207 261.411 -15.791  13.650 253.026

                      1                      2                      3
                      A                      A                      A
 Frequencies --     12.3769                24.1230                41.0777
 Red. masses --      9.6236                 3.0070                 3.8317
 Frc consts  --      0.0009                 0.0010                 0.0038
 IR Inten    --      0.1773                 0.5616                 0.1792

                      4                      5                      6
                      A                      A                      A
 Frequencies --     55.4539                62.3703                70.5963
 Red. masses --      4.2053                 5.4576                 7.5511
 Frc consts  --      0.0076                 0.0125                 0.0222
 IR Inten    --      0.5186                 0.6796                 1.2867

                      7                      8                      9
                      A                      A                      A
 Frequencies --     88.7389               130.1189               158.1542
 Red. masses --      7.3371                 3.8361                 5.3536
 Frc consts  --      0.0340                 0.0383                 0.0789
 IR Inten    --      0.0626                 1.8885                 7.8449

                     10                     11                     12
                      A                      A                      A
 Frequencies --    165.5387               182.9728               239.4315
 Red. masses --      5.4688                 5.6725                 1.1652
 Frc consts  --      0.0883                 0.1119                 0.0394
 IR Inten    --      0.7394                 1.7180                19.2782

                     13                     14                     15
                      A                      A                      A
 Frequencies --    248.4969               258.8519               275.3130
 Red. masses --      1.0876                 3.0106                 5.0932
 Frc consts  --      0.0396                 0.1189                 0.2275
 IR Inten    --      0.0734                 5.9210                 2.2997

                     16                     17                     18
                      A                      A                      A
 Frequencies --    283.9427               321.3103               353.8514
 Red. masses --      3.9724                 3.9511                 4.3459
 Frc consts  --      0.1887                 0.2403                 0.3206
 IR Inten    --      0.7519                 0.2726                 1.9892

                     19                     20                     21
                      A                      A                      A
 Frequencies --    359.1407               433.0283               472.4136
 Red. masses --      5.0781                 5.3422                 3.1417
 Frc consts  --      0.3859                 0.5902                 0.4131
 IR Inten    --      1.9093                 2.5681                 1.6520

                     22                     23                     24
                      A                      A                      A
 Frequencies --    500.2813               519.0823               603.8633
 Red. masses --      3.5122                 4.8134                 5.8443
 Frc consts  --      0.5179                 0.7641                 1.2556
 IR Inten    --      2.0552                 5.1740                 1.7405

                     25                     26                     27
                      A                      A                      A
 Frequencies --    653.8383               664.1509               675.3661
 Red. masses --      4.6823                 4.7586                 5.9040
 Frc consts  --      1.1794                 1.2367                 1.5866
 IR Inten    --     35.3335                21.1606                 1.8002

                     28                     29                     30
                      A                      A                      A
 Frequencies --    684.7465               721.4213               757.5275
 Red. masses --      5.8552                 4.5235                 4.0197
 Frc consts  --      1.6175                 1.3871                 1.3591
 IR Inten    --      1.2138                17.4367                41.8308

                     31                     32                     33
                      A                      A                      A
 Frequencies --    799.4670               804.8065               874.0656
 Red. masses --      4.7799                 4.7435                 1.2352
 Frc consts  --      1.8000                 1.8102                 0.5560
 IR Inten    --      5.5417                 4.7856                 1.3590

                     34                     35                     36
                      A                      A                      A
 Frequencies --    879.0196               900.1363               931.3296
 Red. masses --      1.2523                 1.1186                 2.6577
 Frc consts  --      0.5701                 0.5340                 1.3582
 IR Inten    --      0.5903                10.2558                 4.5032

                     37                     38                     39
                      A                      A                      A
 Frequencies --    970.1959               971.9583               979.7760
 Red. masses --      2.4851                 2.3917                 1.4483
 Frc consts  --      1.3782                 1.3312                 0.8191
 IR Inten    --     18.4589                 9.8115                 8.6343

                     40                     41                     42
                      A                      A                      A
 Frequencies --    980.8948              1016.6032              1034.3779
 Red. masses --      1.4710                 1.8735                 1.1080
 Frc consts  --      0.8339                 1.1408                 0.6984
 IR Inten    --      8.3729                 5.9881                 0.5894

                     43                     44                     45
                      A                      A                      A
 Frequencies --   1042.9495              1081.8194              1083.6151
 Red. masses --      1.1810                 3.0432                 2.5122
 Frc consts  --      0.7569                 2.0984                 1.7380
 IR Inten    --      0.1160                 0.3308                 1.3809

                     46                     47                     48
                      A                      A                      A
 Frequencies --   1121.9384              1139.5072              1164.7673
 Red. masses --      1.8120                 1.8436                 1.3463
 Frc consts  --      1.3439                 1.4104                 1.0762
 IR Inten    --     10.3896                 8.3154                 5.6739

                     49                     50                     51
                      A                      A                      A
 Frequencies --   1165.3175              1213.1377              1220.6589
 Red. masses --      1.3595                 1.2604                 1.2623
 Frc consts  --      1.0877                 1.0929                 1.1081
 IR Inten    --     15.3707                21.7856                23.9055

                     52                     53                     54
                      A                      A                      A
 Frequencies --   1222.5590              1247.0456              1249.5623
 Red. masses --      1.2391                 1.3211                 1.2981
 Frc consts  --      1.0912                 1.2105                 1.1942
 IR Inten    --     11.1329                 1.3029                 3.0715

                     55                     56                     57
                      A                      A                      A
 Frequencies --   1272.9769              1304.4175              1308.0357
 Red. masses --      1.1408                 1.2623                 1.2831
 Frc consts  --      1.0892                 1.2654                 1.2934
 IR Inten    --     12.6943                 1.1061                 4.9457

                     58                     59                     60
                      A                      A                      A
 Frequencies --   1317.0107              1332.8089              1339.2457
 Red. masses --      1.2404                 1.3086                 1.2160
 Frc consts  --      1.2677                 1.3696                 1.2850
 IR Inten    --      5.9290                 4.1143                19.7845

                     61                     62                     63
                      A                      A                      A
 Frequencies --   1343.0620              1440.5150              1509.2192
 Red. masses --      1.2302                 1.2158                 1.0903
 Frc consts  --      1.3074                 1.4865                 1.4632
 IR Inten    --      2.9910                 5.6212                 0.0446

                     64                     65                     66
                      A                      A                      A
 Frequencies --   1509.7797              1520.0305              1525.9719
 Red. masses --      1.0900                 1.0413                 1.0475
 Frc consts  --      1.4639                 1.4175                 1.4372
 IR Inten    --      0.0820                 8.5279                 5.1976

                     67                     68                     69
                      A                      A                      A
 Frequencies --   1528.5697              1529.6478              2678.0225
 Red. masses --      1.1062                 1.1065                 1.0383
 Frc consts  --      1.5228                 1.5254                 4.3873
 IR Inten    --      5.0671                 9.4872                 9.4901

                     70                     71                     72
                      A                      A                      A
 Frequencies --   3052.7746              3064.2316              3085.9631
 Red. masses --      1.0433                 1.0814                 1.0572
 Frc consts  --      5.7286                 5.9823                 5.9317
 IR Inten    --     16.2903                 9.1957                22.5160

                     73                     74                     75
                      A                      A                      A
 Frequencies --   3089.0709              3092.3078              3093.2614
 Red. masses --      1.0599                 1.0578                 1.0852
 Frc consts  --      5.9592                 5.9598                 6.1178
 IR Inten    --     22.3591                14.4833                 1.8756

                     76                     77                     78
                      A                      A                      A
 Frequencies --   3096.3681              3107.0879              3125.4170
 Red. masses --      1.0606                 1.0850                 1.0957
 Frc consts  --      5.9910                 6.1712                 6.3063
 IR Inten    --     17.3782                 1.8514                15.1353

                     79                     80                     81
                      A                      A                      A
 Frequencies --   3139.9344              3152.2143              3153.4643
 Red. masses --      1.0938                 1.1035                 1.1015
 Frc consts  --      6.3536                 6.4603                 6.4538
 IR Inten    --      6.0000                13.4682                 6.8956

                     82                     83                     84
                      A                      A                      A
 Frequencies --   3155.7992              3158.5127              3172.4851
 Red. masses --      1.1114                 1.1082                 1.1072
 Frc consts  --      6.5212                 6.5138                 6.5654
 IR Inten    --      7.2442                 9.4860                 5.9068

 - Thermochemistry -
 -------------------
 Temperature   298.150 Kelvin.  Pressure   1.00000 Atm.
 Atom     1 has atomic number  6 and mass  12.00000

 Molecular mass:   283.98556 amu.
 Principal axes and moments of inertia in atomic units:
                           1         2         3
     Eigenvalues --  4019.573816971.872649696.34342
           X            0.99998  -0.00667   0.00205
           Y            0.00666   0.99996   0.00650
           Z           -0.00210  -0.00648   0.99998
 This molecule is an asymmetric top.
 Rotational symmetry number  1.
 Warning -- assumption of classical behavior for rotation
           may cause significant error
 Rotational temperatures (Kelvin)      0.02155     0.01242     0.00893
 Rotational constants (GHZ):           0.44899     0.25886     0.18613
 Zero-point vibrational energy     623920.1 (Joules/Mol)
                                  149.12048 (Kcal/Mol)
 Warning -- explicit consideration of  24 degrees of freedom as
           vibrations may cause significant error
 Vibrational temperatures:     17.81    34.71    59.10    79.79    89.74
          (Kelvin)            101.57   127.68   187.21   227.55   238.17
                              263.26   344.49   357.53   372.43   396.11
                              408.53   462.29   509.11   516.72   623.03
                              679.70   719.79   746.84   868.82   940.73
                              955.56   971.70   985.20  1037.96  1089.91
                             1150.25  1157.94  1257.59  1264.71  1295.10
                             1339.98  1395.90  1398.43  1409.68  1411.29
                             1462.67  1488.24  1500.57  1556.50  1559.08
                             1614.22  1639.50  1675.84  1676.63  1745.43
                             1756.26  1758.99  1794.22  1797.84  1831.53
                             1876.77  1881.97  1894.88  1917.61  1926.88
                             1932.37  2072.58  2171.43  2172.24  2186.98
                             2195.53  2199.27  2200.82  3853.08  4392.26
                             4408.75  4440.01  4444.48  4449.14  4450.51
                             4454.98  4470.41  4496.78  4517.67  4535.33
                             4537.13  4540.49  4544.40  4564.50

 Zero-point correction=                           0.237639 (Hartree/Particle)
 Thermal correction to Energy=                    0.255052
 Thermal correction to Enthalpy=                  0.255996
 Thermal correction to Gibbs Free Energy=         0.188312
 Sum of electronic and zero-point Energies=          -2343.322806
 Sum of electronic and thermal Energies=             -2343.305393
 Sum of electronic and thermal Enthalpies=           -2343.304448
 Sum of electronic and thermal Free Energies=        -2343.372132

                     E (Thermal)             CV                S
                      KCal/Mol        Cal/Mol-Kelvin    Cal/Mol-Kelvin
 Total                  160.047             62.034            142.452
 Electronic               0.000              0.000              0.000
 Translational            0.889              2.981             42.829
 Rotational               0.889              2.981             33.963
 Vibrational            158.270             56.073             65.661
 Vibration     1          0.593              1.987              7.587
 Vibration     2          0.593              1.985              6.262
 Vibration     3          0.594              1.981              5.206
 Vibration     4          0.596              1.975              4.613
 Vibration     5          0.597              1.972              4.381
 Vibration     6          0.598              1.968              4.137
 Vibration     7          0.602              1.957              3.688
 Vibration     8          0.612              1.923              2.944
 Vibration     9          0.621              1.893              2.572
 Vibration    10          0.624              1.885              2.486
 Vibration    11          0.630              1.863              2.298
 Vibration    12          0.657              1.780              1.807
 Vibration    13          0.662              1.765              1.741
 Vibration    14          0.668              1.748              1.670
 Vibration    15          0.677              1.719              1.563
 Vibration    16          0.682              1.703              1.510
 Vibration    17          0.707              1.633              1.303
 Vibration    18          0.730              1.567              1.149
 Vibration    19          0.734              1.556              1.126
 Vibration    20          0.794              1.398              0.849
 Vibration    21          0.829              1.311              0.731
 Vibration    22          0.856              1.249              0.657
 Vibration    23          0.874              1.208              0.612
 Vibration    24          0.962              1.024              0.443

 Optimization completed.
    -- Stationary point found.

 1\1\GINC-NODE223\Freq\RB3LYP\6-31G(d)\C9H16S5\VSC10255\10-Dec-2020\0\\
 #N Geom=AllCheck Guess=TCheck SCRF=Check GenChk RB3LYP/6-31G(d) Freq\\
 CID_90837198_JID_4214_neutraal\\0,1\C,0.9558099061,0.0853386689,-0.497
 8378645\C,0.3891516103,-1.2928264974,-0.1468555655\C,0.3992285601,-1.5
 643160255,1.3729756447\S,-0.7915182677,-0.4689221919,2.2475035535\C,-0
 .1815048218,-0.6716458838,3.9582073614\C,1.0878150129,0.0949066779,4.3
 76975733\S,0.3575618318,0.3903771231,6.0615858205\C,-1.1145234472,-0.0
 701846617,5.0217364498\S,0.2988883467,-3.3513760871,1.8333702356\C,-1.

 Normal termination of Gaussian 16 at Thu Dec 10 11:44:08 2020.

 ----------------------------------------------------------------------
 # B3LYP/6-311++G(d,p) empiricaldispersion=gd3bj scf=xqc pop=npa geom=c
 heck
 ----------------------------------------------------------------------

 --------------------------------------
 CID_90837198_JID_4214_Energie_neutraal
 --------------------------------------
 Structure from the checkpoint file:  "JID_4214.chk"
 Charge =  0 Multiplicity = 1

 SCF Done:  E(RB3LYP) =  -2343.79365685     A.U. after   14 cycles
 Normal termination of Gaussian 16 at Thu Dec 10 11:49:24 2020.

 ----------------------------------------------------------------------
 # B3LYP/6-311++G(d,p) empiricaldispersion=gd3bj scf=xqc pop=npa geom=c
 heck
 ----------------------------------------------------------------------

 ------------------------------------
 CID_90837198_JID_4214_Energie_kation
 ------------------------------------
 Structure from the checkpoint file:  "JID_4214.chk"
 Charge =  1 Multiplicity = 2

 SCF Done:  E(UB3LYP) =  -2343.50489339     A.U. after   29 cycles
 Normal termination of Gaussian 16 at Thu Dec 10 12:03:07 2020.
 Gaussian 16:  ES64L-G16RevA.03 25-Dec-2016

 -----------------------------------
 CID_90837198_JID_4214_Energie_anion
 -----------------------------------
 Structure from the checkpoint file:  "JID_4214.chk"
 Charge = -1 Multiplicity = 2

                         Standard orientation:
 ---------------------------------------------------------------------
 Center     Atomic      Atomic             Coordinates (Angstroms)
 Number     Number       Type             X           Y           Z
 ---------------------------------------------------------------------
      1          6           0       -0.305790    3.718739    0.207122
      2          6           0        0.631337    2.530276    0.437290
      3          6           0       -0.136515    1.215247    0.691846
      4         16           0       -1.025116    0.665659   -0.821728
      5          6           0       -2.172200   -0.542936   -0.071250
      6          6           0       -3.415237   -0.009717    0.666772
      7         16           0       -4.418758   -1.431191    0.010387
      8          6           0       -2.927259   -1.399198   -1.100849
      9         16           0        0.851350   -0.098207    1.537173
     10          6           0        1.788422   -0.913906    0.189453
     11          6           0        3.322100   -0.834905    0.241590
     12         16           0        3.434811   -2.552825   -0.470575
     13          6           0        1.688712   -2.448205    0.163226
     14         16           0        1.925247    2.418326   -0.876714
     15          1           0       -0.881938    3.600417   -0.714976
     16          1           0        0.269517    4.645709    0.141867
     17          1           0       -1.016578    3.807617    1.038030
     18          1           0        1.224032    2.711887    1.338998
     19          1           0       -0.898101    1.443587    1.446231
     20          1           0       -1.588481   -1.182860    0.595222
     21          1           0       -3.348261    0.035047    1.755807
     22          1           0       -3.772834    0.943093    0.268336
     23          1           0       -3.147343   -0.869456   -2.032102
     24          1           0       -2.492702   -2.375482   -1.321625
     25          1           0        1.424212   -0.502096   -0.751798
     26          1           0        3.774252   -0.047633   -0.362247
     27          1           0        3.721019   -0.809685    1.259001
     28          1           0        1.607060   -2.896504    1.157448
     29          1           0        0.925340   -2.864982   -0.497534
     30          1           0        1.078833    2.440780   -1.928556
 ---------------------------------------------------------------------

 SCF Done:  E(UB3LYP) =  -2343.78750499     A.U. after   30 cycles

 The electronic state is 2-A.
 Alpha  occ. eigenvalues --  -88.75343 -88.74980 -88.74524 -88.74384 -88.73159
 Alpha  occ. eigenvalues --  -10.13545 -10.12679 -10.11770 -10.11237 -10.11218
 Alpha  occ. eigenvalues --  -10.11156 -10.09871 -10.09517 -10.07375  -7.84055
 Alpha  occ. eigenvalues --   -7.83563  -7.83140  -7.83009  -7.81701  -5.80425
 Alpha  occ. eigenvalues --   -5.80081  -5.79893  -5.79687  -5.79521  -5.79436
 Alpha  occ. eigenvalues --   -5.79386  -5.79151  -5.79041  -5.78915  -5.78546
 Alpha  occ. eigenvalues --   -5.78402  -5.78037  -5.77836  -5.77068  -0.77441
 Alpha  occ. eigenvalues --   -0.76310  -0.74429  -0.68032  -0.64053  -0.61769
 Alpha  occ. eigenvalues --   -0.59601  -0.58856  -0.58275  -0.53953  -0.52398
 Alpha  occ. eigenvalues --   -0.47382  -0.46359  -0.45244  -0.40241  -0.39098
 Alpha  occ. eigenvalues --   -0.38594  -0.35159  -0.33890  -0.33363  -0.32567
 Alpha  occ. eigenvalues --   -0.32113  -0.31238  -0.30890  -0.30560  -0.29692
 Alpha  occ. eigenvalues --   -0.28555  -0.28008  -0.26083  -0.25486  -0.24221
 Alpha  occ. eigenvalues --   -0.23757  -0.23462  -0.21294  -0.19799  -0.19267
 Alpha  occ. eigenvalues --   -0.15683  -0.14177  -0.13842  -0.13095  -0.12132
 Alpha  occ. eigenvalues --    0.04229
 Alpha virt. eigenvalues --    0.06265   0.06854   0.07410   0.08065   0.08270
 Alpha virt. eigenvalues --    0.08841   0.08919   0.09387   0.09988   0.10276
 Alpha virt. eigenvalues --    0.10610   0.11146   0.11557   0.11858   0.12112

  Beta  occ. eigenvalues --  -88.75341 -88.74976 -88.74511 -88.74370 -88.73126
  Beta  occ. eigenvalues --  -10.13419 -10.12658 -10.11756 -10.11206 -10.11194
  Beta  occ. eigenvalues --  -10.11150 -10.09767 -10.09437 -10.07337  -7.84053
  Beta  occ. eigenvalues --   -7.83559  -7.83128  -7.82996  -7.81671  -5.80419
  Beta  occ. eigenvalues --   -5.80081  -5.79882  -5.79686  -5.79485  -5.79436
  Beta  occ. eigenvalues --   -5.79342  -5.79143  -5.79038  -5.78913  -5.78532
  Beta  occ. eigenvalues --   -5.78383  -5.77925  -5.77822  -5.77049  -0.77389
  Beta  occ. eigenvalues --   -0.76200  -0.74339  -0.67918  -0.63934  -0.61718
  Beta  occ. eigenvalues --   -0.59566  -0.58742  -0.58115  -0.53812  -0.52304
  Beta  occ. eigenvalues --   -0.47293  -0.46238  -0.45133  -0.40202  -0.38987
  Beta  occ. eigenvalues --   -0.38477  -0.35068  -0.33803  -0.33228  -0.32543
  Beta  occ. eigenvalues --   -0.31985  -0.31146  -0.30821  -0.30510  -0.29543
  Beta  occ. eigenvalues --   -0.28423  -0.27934  -0.25981  -0.25453  -0.23982
  Beta  occ. eigenvalues --   -0.23639  -0.23393  -0.21197  -0.19694  -0.19081
  Beta  occ. eigenvalues --   -0.15661  -0.14129  -0.13816  -0.12973  -0.12032
  Beta virt. eigenvalues --    0.06676   0.06717   0.07279   0.07876   0.08298
  Beta virt. eigenvalues --    0.08442   0.09003   0.09158   0.09627   0.10186
  Beta virt. eigenvalues --    0.10444   0.11019   0.11419   0.11867   0.12016

 Mulliken charges and spin densities:
               1          2
     1  C    0.592716  -1.387025
     2  C   -0.559739   0.470508
     3  C    0.558866  -0.400179
     4  S    0.128132   0.000318
     5  C   -0.847321   0.992204
     6  C   -0.087582  -0.550712
     7  S   -0.154513   0.223871
     8  C    0.363167  -1.026986
     9  S    0.190925  -0.092963
    10  C    0.071679   0.372120
    11  C   -0.798815   0.033987
    12  S    0.058126  -0.003478
    13  C   -0.086684  -0.525146
    14  S   -0.085417  -0.083955
    15  H    0.106290   0.037040
    16  H   -0.145145   0.301695
    17  H   -0.386540   0.541146
    18  H   -0.207856   0.467785
    19  H   -0.012974   0.392391
    20  H    0.024288   0.010290
    21  H   -0.157238   0.351011
    22  H    0.146585   0.037233
    23  H   -0.121785   0.300855
    24  H   -0.097528   0.279385
    25  H   -0.028525   0.029737
    26  H    0.165800  -0.001438
    27  H    0.172352   0.004034
    28  H    0.059465   0.112760
    29  H    0.090796   0.090421
    30  H    0.048473   0.023091
 Sum of Mulliken charges =  -1.00000   1.00000

 Dipole moment (field-independent basis, Debye):
    X=              4.3483    Y=             -0.7580    Z=             -2.1305  Tot=              4.9012
 Quadrupole moment (field-independent basis, Debye-Ang):
   XX=           -189.9505   YY=           -178.6420   ZZ=           -155.5249
   XY=             -1.4510   XZ=              4.3034   YZ=            -13.2668

 Summary of Natural Population Analysis:

                                       Natural Population
                Natural  -----------------------------------------------
    Atom  No    Charge         Core      Valence    Rydberg      Total
 -----------------------------------------------------------------------
      C    1   -0.28971      0.99962     2.28268    0.00740     3.28971
      C    2   -0.17041      0.99950     2.15569    0.01522     3.17041
      C    3   -0.24223      0.99950     2.22371    0.01902     3.24223
      S    4    0.11217      4.99951     2.87117    0.01715     7.88783
      C    5   -0.18955      0.99953     2.17530    0.01472     3.18955
      C    6   -0.22777      0.99958     2.21714    0.01106     3.22777
      S    7    0.08073      4.99968     2.90264    0.01694     7.91927
      C    8   -0.22426      0.99958     2.21307    0.01160     3.22426
      S    9    0.11159      4.99953     2.87143    0.01744     7.88841
      C   10   -0.19940      0.99951     2.18477    0.01511     3.19940
      C   11   -0.22596      0.99958     2.21709    0.00930     3.22596
      S   12    0.05527      4.99969     2.92799    0.01705     7.94473
      C   13   -0.22852      0.99958     2.21723    0.01170     3.22852
      S   14   -0.02491      4.99963     3.01014    0.01514     8.02491
      H   15    0.10340      0.00000     0.39565    0.00095     0.39660
      H   16    0.10462      0.00000     0.39428    0.00110     0.39538
      H   17    0.10755      0.00000     0.39049    0.00196     0.39245
      H   18    0.11337      0.00000     0.38503    0.00160     0.38663
      H   19    0.11926      0.00000     0.37846    0.00228     0.38074
      H   20    0.11370      0.00000     0.38455    0.00175     0.38630
      H   21    0.10364      0.00000     0.39483    0.00153     0.39636
      H   22    0.09929      0.00000     0.39939    0.00132     0.40071
      H   23    0.09917      0.00000     0.39924    0.00159     0.40083
      H   24    0.10166      0.00000     0.39663    0.00170     0.39834
      H   25    0.12589      0.00000     0.37194    0.00217     0.37411
      H   26    0.10659      0.00000     0.39252    0.00090     0.39341
      H   27    0.09855      0.00000     0.40035    0.00111     0.40145
      H   28    0.09979      0.00000     0.39873    0.00148     0.40021
      H   29    0.10489      0.00000     0.39345    0.00166     0.39511
      H   30    0.06157      0.00000     0.43576    0.00267     0.43843
 =======================================================================
   * Total *    0.00000     33.99403    40.78136    0.22461    75.00000

 Normal termination of Gaussian 16 at Thu Dec 10 12:17:15 2020.
