 Gaussian 16, Revision A.03,

 -----------------------------------------------------------
 # opt freq B3LYP/6-31G(d) empiricaldispersion=gd3bj scf=xqc
 -----------------------------------------------------------

 ------------------------------
 CID_63839901_JID_7492_neutraal
 ------------------------------
 Symbolic Z-matrix:
 Charge =  0 Multiplicity = 1

 SCF Done:  E(RB3LYP) =  -743.941028899     A.U. after   15 cycles
 SCF Done:  E(RB3LYP) =  -743.943731184     A.U. after   12 cycles
 SCF Done:  E(RB3LYP) =  -743.943314482     A.U. after   13 cycles
 SCF Done:  E(RB3LYP) =  -743.944384388     A.U. after   12 cycles
 SCF Done:  E(RB3LYP) =  -743.944523822     A.U. after   11 cycles
 SCF Done:  E(RB3LYP) =  -743.944659338     A.U. after   12 cycles
 SCF Done:  E(RB3LYP) =  -743.944745651     A.U. after   12 cycles
 SCF Done:  E(RB3LYP) =  -743.944824764     A.U. after   12 cycles
 SCF Done:  E(RB3LYP) =  -743.944912562     A.U. after   12 cycles
 SCF Done:  E(RB3LYP) =  -743.944924903     A.U. after   11 cycles
 SCF Done:  E(RB3LYP) =  -743.946463872     A.U. after   12 cycles
 SCF Done:  E(RB3LYP) =  -743.946898425     A.U. after   12 cycles
 SCF Done:  E(RB3LYP) =  -743.946909324     A.U. after   10 cycles
 SCF Done:  E(RB3LYP) =  -743.946914150     A.U. after    9 cycles
 SCF Done:  E(RB3LYP) =  -743.946914761     A.U. after    8 cycles
 SCF Done:  E(RB3LYP) =  -743.946914918     A.U. after    8 cycles
 Optimization completed.
    -- Stationary point found.
 Normal termination of Gaussian 16 at Fri Dec 11 12:29:18 2020.

 --------------------------------------------------------------------
 #N Geom=AllCheck Guess=TCheck SCRF=Check GenChk RB3LYP/6-31G(d) Freq
 --------------------------------------------------------------------

 Structure from the checkpoint file:  "JID_7492.chk"
 ------------------------------
 CID_63839901_JID_7492_neutraal
 ------------------------------
 Charge =  0 Multiplicity = 1

 SCF Done:  E(RB3LYP) =  -743.946914918     A.U. after    1 cycles

  Exact polarizability: 176.994   6.370 163.760  -7.963  13.313 113.216
 Approx polarizability: 228.680  11.321 276.249 -11.748  37.636 192.571

                      1                      2                      3
                      A                      A                      A
 Frequencies --     22.1157                23.1176                24.8316
 Red. masses --      3.1289                 1.0918                 3.7305
 Frc consts  --      0.0009                 0.0003                 0.0014
 IR Inten    --      1.4389                 0.4221                 0.8454

                      4                      5                      6
                      A                      A                      A
 Frequencies --     35.6142                51.2765                84.3174
 Red. masses --      3.5091                 3.9271                 6.6132
 Frc consts  --      0.0026                 0.0061                 0.0277
 IR Inten    --      0.4955                 0.4656                 1.7961

                      7                      8                      9
                      A                      A                      A
 Frequencies --    119.6110               146.2761               156.4482
 Red. masses --      3.9390                 4.5661                 3.9892
 Frc consts  --      0.0332                 0.0576                 0.0575
 IR Inten    --      0.8703                 0.5657                 2.0822

                     10                     11                     12
                      A                      A                      A
 Frequencies --    212.7142               219.7118               248.5352
 Red. masses --      1.7260                 3.4251                 2.3579
 Frc consts  --      0.0460                 0.0974                 0.0858
 IR Inten    --      3.1529                 0.5230                 0.7755

                     13                     14                     15
                      A                      A                      A
 Frequencies --    278.2583               350.3162               383.7781
 Red. masses --      2.9087                 2.6191                 3.7624
 Frc consts  --      0.1327                 0.1894                 0.3265
 IR Inten    --      1.7369                 3.5960                 1.9908

                     16                     17                     18
                      A                      A                      A
 Frequencies --    390.8723               419.4417               427.6801
 Red. masses --      3.2526                 2.8232                 2.8854
 Frc consts  --      0.2928                 0.2926                 0.3110
 IR Inten    --      1.3133                 0.7217                 0.9300

                     19                     20                     21
                      A                      A                      A
 Frequencies --    497.3965               513.5805               537.5887
 Red. masses --      4.7307                 4.1422                 5.0736
 Frc consts  --      0.6896                 0.6437                 0.8639
 IR Inten    --      1.6617                13.1734                 2.0408

                     22                     23                     24
                      A                      A                      A
 Frequencies --    574.5911               623.0992               652.3266
 Red. masses --      4.7189                 4.2071                 3.2816
 Frc consts  --      0.9179                 0.9624                 0.8227
 IR Inten    --     21.7243                12.1341                27.1878

                     25                     26                     27
                      A                      A                      A
 Frequencies --    674.2719               711.6279               751.0119
 Red. masses --      5.8966                 3.8184                 3.8369
 Frc consts  --      1.5795                 1.1393                 1.2751
 IR Inten    --      3.8907                20.6739                 2.7082

                     28                     29                     30
                      A                      A                      A
 Frequencies --    753.9247               797.9408               804.7718
 Red. masses --      5.5461                 1.4087                 1.2048
 Frc consts  --      1.8573                 0.5284                 0.4597
 IR Inten    --      7.7692                15.8283                 3.5471

                     31                     32                     33
                      A                      A                      A
 Frequencies --    827.1182               858.9102               866.9300
 Red. masses --      1.9673                 1.5354                 1.6793
 Frc consts  --      0.7930                 0.6674                 0.7436
 IR Inten    --      6.1226                15.4460                 0.9647

                     34                     35                     36
                      A                      A                      A
 Frequencies --    896.0500               947.3225               954.2459
 Red. masses --      3.4861                 1.7475                 1.5988
 Frc consts  --      1.6491                 0.9240                 0.8578
 IR Inten    --     11.7815                 1.0030                 2.2662

                     37                     38                     39
                      A                      A                      A
 Frequencies --    971.6199               984.0374              1014.3096
 Red. masses --      2.5948                 1.3902                 2.9517
 Frc consts  --      1.4433                 0.7931                 1.7892
 IR Inten    --     19.7117                 0.1697                33.7416

                     40                     41                     42
                      A                      A                      A
 Frequencies --   1019.9824              1026.4129              1048.8801
 Red. masses --      6.0731                 1.5615                 4.5048
 Frc consts  --      3.7226                 0.9692                 2.9200
 IR Inten    --      6.7736                 9.6578                18.2568

                     43                     44                     45
                      A                      A                      A
 Frequencies --   1077.3714              1083.2699              1107.1758
 Red. masses --      1.5769                 2.0313                 1.9168
 Frc consts  --      1.0784                 1.4044                 1.3844
 IR Inten    --     10.8613                17.0419                10.0155

                     46                     47                     48
                      A                      A                      A
 Frequencies --   1124.9190              1139.9524              1166.7854
 Red. masses --      1.5948                 1.5133                 1.4361
 Frc consts  --      1.1891                 1.1586                 1.1519
 IR Inten    --      3.4829                 7.5578                 8.6724

                     49                     50                     51
                      A                      A                      A
 Frequencies --   1183.8481              1223.8479              1253.6469
 Red. masses --      1.8248                 1.8227                 1.5906
 Frc consts  --      1.5068                 1.6085                 1.4728
 IR Inten    --     17.7267                39.4042                 5.6511

                     52                     53                     54
                      A                      A                      A
 Frequencies --   1282.4418              1313.1727              1320.9022
 Red. masses --      1.8204                 2.7755                 1.9830
 Frc consts  --      1.7640                 2.8199                 2.0385
 IR Inten    --      1.9231                43.2897                 7.6340

                     55                     56                     57
                      A                      A                      A
 Frequencies --   1328.8961              1335.1945              1374.5826
 Red. masses --      1.5002                 3.3134                 2.0306
 Frc consts  --      1.5609                 3.4803                 2.2605
 IR Inten    --      2.8516                80.6589                22.4411

                     58                     59                     60
                      A                      A                      A
 Frequencies --   1400.8877              1414.5871              1436.3255
 Red. masses --      1.7961                 2.5994                 1.2868
 Frc consts  --      2.0767                 3.0646                 1.5641
 IR Inten    --      1.0076                36.7161                10.1251

                     61                     62                     63
                      A                      A                      A
 Frequencies --   1440.1310              1441.3028              1451.9902
 Red. masses --      2.4926                 1.5721                 2.9997
 Frc consts  --      3.0458                 1.9242                 3.7261
 IR Inten    --      8.8518                 5.7743                17.4258

                     64                     65                     66
                      A                      A                      A
 Frequencies --   1489.6202              1494.0437              1512.7534
 Red. masses --      1.3312                 2.2726                 1.1450
 Frc consts  --      1.7404                 2.9889                 1.5438
 IR Inten    --     22.7674                26.8515                 2.5580

                     67                     68                     69
                      A                      A                      A
 Frequencies --   1514.8266              1517.5630              1518.3207
 Red. masses --      1.1005                 1.0647                 1.0477
 Frc consts  --      1.4879                 1.4446                 1.4230
 IR Inten    --     10.1111                 8.0211                 9.0315

                     70                     71                     72
                      A                      A                      A
 Frequencies --   1524.5716              1537.1541              1611.0312
 Red. masses --      2.4668                 1.0683                 5.1097
 Frc consts  --      3.3782                 1.4873                 7.8137
 IR Inten    --      4.8723                 2.3380                 6.5592

                     73                     74                     75
                      A                      A                      A
 Frequencies --   1618.6243              1655.4258              1789.7060
 Red. masses --      5.8786                 5.7632                11.6764
 Frc consts  --      9.0744                 9.3054                22.0355
 IR Inten    --      5.5777                53.1895               149.6326

                     76                     77                     78
                      A                      A                      A
 Frequencies --   3050.8418              3059.7585              3080.1447
 Red. masses --      1.0396                 1.0356                 1.0597
 Frc consts  --      5.7009                 5.7122                 5.9232
 IR Inten    --     17.1683                23.7225                23.9849

                     79                     80                     81
                      A                      A                      A
 Frequencies --   3089.0388              3110.9333              3120.2487
 Red. masses --      1.0578                 1.0965                 1.1050
 Frc consts  --      5.9472                 6.2522                 6.3383
 IR Inten    --     13.9108                14.2690                 4.3993

                     82                     83                     84
                      A                      A                      A
 Frequencies --   3132.6196              3137.2693              3143.7593
 Red. masses --      1.1031                 1.1035                 1.1065
 Frc consts  --      6.3777                 6.3990                 6.4432
 IR Inten    --     37.3284                12.4677                 6.7209

                     85                     86                     87
                      A                      A                      A
 Frequencies --   3151.3450              3171.0801              3200.2904
 Red. masses --      1.1042                 1.0887                 1.0940
 Frc consts  --      6.4610                 6.4501                 6.6014
 IR Inten    --     19.6639                19.8520                21.4900

                     88                     89                     90
                      A                      A                      A
 Frequencies --   3223.6672              3252.9115              3289.9957
 Red. masses --      1.0910                 1.0961                 1.0975
 Frc consts  --      6.6797                 6.8335                 6.9994
 IR Inten    --      1.5277                 5.6692                 0.0920

 - Thermochemistry -
 -------------------
 Temperature   298.150 Kelvin.  Pressure   1.00000 Atm.
 Atom     1 has atomic number  6 and mass  12.00000

 Molecular mass:   229.12151 amu.
 Principal axes and moments of inertia in atomic units:
                           1         2         3
     Eigenvalues --  2197.896147110.072078245.03474
           X            0.99992  -0.00600  -0.01071
           Y            0.00590   0.99994  -0.00941
           Z            0.01077   0.00935   0.99990
 This molecule is an asymmetric top.
 Rotational symmetry number  1.
 Warning -- assumption of classical behavior for rotation
           may cause significant error
 Rotational temperatures (Kelvin)      0.03941     0.01218     0.01050
 Rotational constants (GHZ):           0.82112     0.25383     0.21889
 Zero-point vibrational energy     692647.6 (Joules/Mol)
                                  165.54676 (Kcal/Mol)
 Warning -- explicit consideration of  22 degrees of freedom as
           vibrations may cause significant error
 Vibrational temperatures:     31.82    33.26    35.73    51.24    73.78
          (Kelvin)            121.31   172.09   210.46   225.09   306.05
                              316.12   357.59   400.35   504.03   552.17
                              562.38   603.48   615.34   715.64   738.93
                              773.47   826.71   896.50   938.55   970.13
                             1023.87  1080.54  1084.73  1148.06  1157.89
                             1190.04  1235.78  1247.32  1289.22  1362.99
                             1372.95  1397.94  1415.81  1459.37  1467.53
                             1476.78  1509.10  1550.10  1558.58  1592.98
                             1618.51  1640.14  1678.74  1703.29  1760.84
                             1803.72  1845.15  1889.36  1900.48  1911.99
                             1921.05  1977.72  2015.56  2035.28  2066.55
                             2072.03  2073.71  2089.09  2143.23  2149.60
                             2176.51  2179.50  2183.43  2184.52  2193.52
                             2211.62  2317.91  2328.84  2381.79  2574.99
                             4389.48  4402.31  4431.64  4444.44  4475.94
                             4489.34  4507.14  4513.83  4523.17  4534.08
                             4562.48  4604.50  4638.14  4680.21  4733.57

 Zero-point correction=                           0.263816 (Hartree/Particle)
 Thermal correction to Energy=                    0.279909
 Thermal correction to Enthalpy=                  0.280853
 Thermal correction to Gibbs Free Energy=         0.216238
 Sum of electronic and zero-point Energies=           -743.683099
 Sum of electronic and thermal Energies=              -743.667006
 Sum of electronic and thermal Enthalpies=            -743.666062
 Sum of electronic and thermal Free Energies=         -743.730677

                     E (Thermal)             CV                S
                      KCal/Mol        Cal/Mol-Kelvin    Cal/Mol-Kelvin
 Total                  175.645             58.771            135.993
 Electronic               0.000              0.000              0.000
 Translational            0.889              2.981             42.189
 Rotational               0.889              2.981             33.221
 Vibrational            173.868             52.810             60.583
 Vibration     1          0.593              1.985              6.435
 Vibration     2          0.593              1.985              6.347
 Vibration     3          0.593              1.985              6.205
 Vibration     4          0.594              1.982              5.489
 Vibration     5          0.596              1.977              4.768
 Vibration     6          0.601              1.960              3.788
 Vibration     7          0.609              1.933              3.107
 Vibration     8          0.617              1.907              2.720
 Vibration     9          0.620              1.895              2.592
 Vibration    10          0.644              1.822              2.020
 Vibration    11          0.647              1.811              1.961
 Vibration    12          0.662              1.765              1.741
 Vibration    13          0.679              1.714              1.544
 Vibration    14          0.727              1.575              1.165
 Vibration    15          0.753              1.505              1.024
 Vibration    16          0.759              1.490              0.997
 Vibration    17          0.782              1.428              0.894
 Vibration    18          0.789              1.410              0.866
 Vibration    19          0.853              1.256              0.665
 Vibration    20          0.869              1.220              0.625
 Vibration    21          0.893              1.167              0.570
 Vibration    22          0.931              1.086              0.495

                           ! Non-Optimized Parameters !
 Normal termination of Gaussian 16 at Fri Dec 11 12:41:13 2020.

 ----------------------------------------------------------------------
 # B3LYP/6-311++G(d,p) empiricaldispersion=gd3bj scf=xqc pop=npa geom=c
 heck
 ----------------------------------------------------------------------

 --------------------------------------
 CID_63839901_JID_7492_Energie_neutraal
 --------------------------------------
 Structure from the checkpoint file:  "JID_7492.chk"
 Charge =  0 Multiplicity = 1

 SCF Done:  E(RB3LYP) =  -744.143476176     A.U. after   15 cycles
 Normal termination of Gaussian 16 at Fri Dec 11 12:48:48 2020.

 ----------------------------------------------------------------------
 # B3LYP/6-311++G(d,p) empiricaldispersion=gd3bj scf=xqc pop=npa geom=c
 heck
 ----------------------------------------------------------------------

 ------------------------------------
 CID_63839901_JID_7492_Energie_kation
 ------------------------------------
 Structure from the checkpoint file:  "JID_7492.chk"
 Charge =  1 Multiplicity = 2

 SCF Done:  E(UB3LYP) =  -743.851054751     A.U. after   27 cycles
 Normal termination of Gaussian 16 at Fri Dec 11 13:04:02 2020.
 Gaussian 16:  ES64L-G16RevA.03 25-Dec-2016

 ----------------------------------------------------------------------
 # B3LYP/6-311++G(d,p) empiricaldispersion=gd3bj scf=xqc pop=npa geom=c
 heck
 ----------------------------------------------------------------------

 -----------------------------------
 CID_63839901_JID_7492_Energie_anion
 -----------------------------------
 Structure from the checkpoint file:  "JID_7492.chk"
 Charge = -1 Multiplicity = 2

                         Standard orientation:
 ---------------------------------------------------------------------
 Center     Atomic      Atomic             Coordinates (Angstroms)
 Number     Number       Type             X           Y           Z
 ---------------------------------------------------------------------
      1          6           0        4.926208   -1.684373   -0.066242
      2          6           0        3.575656   -1.689295    0.648451
      3          7           0        2.824182   -0.467280    0.410157
      4          6           0        1.807302   -0.268568   -0.468810
      5          6           0        1.489592    1.079613   -0.422332
      6          6           0        2.387024    1.608287    0.536435
      7          7           0        3.201266    0.675195    1.030530
      8          6           0        0.394498    1.804147   -1.157647
      9          6           0       -0.884166    1.765917   -0.330600
     10          8           0       -1.233585    2.703794    0.366130
     11          6           0       -1.698309    0.498294   -0.359808
     12          7           0       -1.336738   -0.460649   -1.229472
     13          6           0       -2.077320   -1.571628   -1.249864
     14          6           0       -3.183575   -1.778850   -0.425253
     15          6           0       -3.565373   -0.782370    0.479260
     16          6           0       -2.792426    0.380599    0.499833
     17          6           0       -4.767495   -0.942638    1.372772
     18          1           0        4.791382   -1.611032   -1.150484
     19          1           0        5.478355   -2.604378    0.154877
     20          1           0        5.520344   -0.829000    0.266889
     21          1           0        2.952059   -2.523348    0.312155
     22          1           0        3.710983   -1.782655    1.729776
     23          1           0        1.371690   -1.074368   -1.039992
     24          1           0        2.463943    2.631306    0.882080
     25          1           0        0.657807    2.856295   -1.294208
     26          1           0        0.220827    1.342132   -2.132285
     27          1           0       -1.772769   -2.338965   -1.959378
     28          1           0       -3.739676   -2.710170   -0.488429
     29          1           0       -3.015702    1.203672    1.170372
     30          1           0       -4.612543   -0.450625    2.337931
     31          1           0       -5.653648   -0.487194    0.912703
     32          1           0       -4.995044   -1.997698    1.553288
 ---------------------------------------------------------------------

 SCF Done:  E(UB3LYP) =  -744.160190673     A.U. after   29 cycles

 The electronic state is 2-A.
 Alpha  occ. eigenvalues --  -18.91677 -14.27209 -14.21009 -14.14460 -10.12558
 Alpha  occ. eigenvalues --  -10.08613 -10.07857 -10.06630 -10.05920 -10.05665
 Alpha  occ. eigenvalues --  -10.05336 -10.04680 -10.04454 -10.03037 -10.02973
 Alpha  occ. eigenvalues --  -10.01867 -10.01603  -0.93394  -0.85937  -0.78535
 Alpha  occ. eigenvalues --   -0.74159  -0.67898  -0.67412  -0.65248  -0.61244
 Alpha  occ. eigenvalues --   -0.58632  -0.57839  -0.54449  -0.49058  -0.46672
 Alpha  occ. eigenvalues --   -0.46273  -0.45087  -0.41132  -0.38726  -0.37412
 Alpha  occ. eigenvalues --   -0.35524  -0.34854  -0.34430  -0.32913  -0.31374
 Alpha  occ. eigenvalues --   -0.30574  -0.30173  -0.29792  -0.29218  -0.28740
 Alpha  occ. eigenvalues --   -0.27639  -0.27296  -0.26822  -0.25889  -0.24687
 Alpha  occ. eigenvalues --   -0.24343  -0.23076  -0.20735  -0.20164  -0.17726
 Alpha  occ. eigenvalues --   -0.14033  -0.13472  -0.12375  -0.11611  -0.11353
 Alpha  occ. eigenvalues --   -0.07139   0.04390
 Alpha virt. eigenvalues --    0.06427   0.08254   0.08856   0.09228   0.10095
 Alpha virt. eigenvalues --    0.10363   0.10867   0.11411   0.11784   0.11968
 Alpha virt. eigenvalues --    0.12183   0.12651   0.13047   0.13418   0.14392

  Beta  occ. eigenvalues --  -18.91106 -14.27203 -14.21014 -14.14198 -10.12559
  Beta  occ. eigenvalues --  -10.08612 -10.07840 -10.06623 -10.05749 -10.05621
  Beta  occ. eigenvalues --  -10.05340 -10.04653 -10.04419 -10.03000 -10.02795
  Beta  occ. eigenvalues --  -10.01568 -10.01518  -0.93384  -0.84912  -0.78059
  Beta  occ. eigenvalues --   -0.74153  -0.67808  -0.67147  -0.65199  -0.60751
  Beta  occ. eigenvalues --   -0.58505  -0.57618  -0.54392  -0.48447  -0.46602
  Beta  occ. eigenvalues --   -0.46038  -0.45041  -0.41068  -0.38294  -0.37394
  Beta  occ. eigenvalues --   -0.35482  -0.34652  -0.34154  -0.32888  -0.31165
  Beta  occ. eigenvalues --   -0.30428  -0.30050  -0.29681  -0.28969  -0.28583
  Beta  occ. eigenvalues --   -0.27564  -0.27137  -0.26697  -0.25694  -0.24105
  Beta  occ. eigenvalues --   -0.23519  -0.22990  -0.20362  -0.18260  -0.17289
  Beta  occ. eigenvalues --   -0.13927  -0.12487  -0.11945  -0.11263  -0.09675
  Beta  occ. eigenvalues --   -0.06653
  Beta virt. eigenvalues --    0.06394   0.08192   0.08804   0.09139   0.10000
  Beta virt. eigenvalues --    0.10298   0.10713   0.11095   0.11412   0.11779
  Beta virt. eigenvalues --    0.12051   0.12219   0.12857   0.13016   0.13400

 Mulliken charges and spin densities:
               1          2
     1  C   -0.481030  -0.011650
     2  C   -0.189863   0.010926
     3  N    0.390337  -0.000198
     4  C   -0.635307  -0.014016
     5  C    0.680205   0.004984
     6  C   -0.217723  -0.011164
     7  N   -0.291762  -0.005465
     8  C   -0.613025   0.007849
     9  C   -0.402693   0.180154
    10  O   -0.401767   0.202351
    11  C   -0.396507   0.152118
    12  N    0.020547   0.123255
    13  C    0.118350  -0.054365
    14  C   -1.202957   0.256443
    15  C    0.567497   0.000793
    16  C    0.313934   0.085633
    17  C   -0.340598   0.018345
    18  H    0.132957   0.009877
    19  H    0.107370   0.000666
    20  H    0.163495   0.001252
    21  H    0.127663  -0.000881
    22  H    0.159618   0.000985
    23  H    0.223453   0.004072
    24  H    0.136574  -0.002295
    25  H    0.135530   0.022912
    26  H    0.122441   0.022962
    27  H    0.107323   0.008782
    28  H    0.083725  -0.022130
    29  H    0.199451  -0.006939
    30  H    0.130759  -0.000018
    31  H    0.134419   0.007987
    32  H    0.117582   0.006774
 Sum of Mulliken charges =  -1.00000   1.00000

 Dipole moment (field-independent basis, Debye):
    X=              4.5765    Y=             -5.6346    Z=             -0.2998  Tot=              7.2652
 Quadrupole moment (field-independent basis, Debye-Ang):
   XX=           -136.8928   YY=           -122.7120   ZZ=           -113.8996
   XY=             -4.1600   XZ=             -5.0383   YZ=             -3.6068

 Summary of Natural Population Analysis:

                                       Natural Population
                Natural  -----------------------------------------------
    Atom  No    Charge         Core      Valence    Rydberg      Total
 -----------------------------------------------------------------------
      C    1   -0.29038      0.99967     2.28712    0.00360     3.29038
      C    2   -0.07832      0.99964     2.06995    0.00873     3.07832
      N    3   -0.11747      0.99966     2.60172    0.01610     3.61747
      C    4   -0.00268      0.99950     1.99252    0.01066     3.00268
      C    5   -0.05677      0.99952     2.04485    0.01240     3.05677
      C    6   -0.00924      0.99958     1.99576    0.01390     3.00924
      N    7   -0.17007      0.99973     2.65869    0.01166     3.67007
      C    8   -0.23983      0.99957     2.23092    0.00934     3.23983
      C    9    0.30939      0.99963     1.66968    0.02130     2.69061
      O   10   -0.24791      0.99988     3.24127    0.00676     4.24791
      C   11    0.10249      0.99949     1.88453    0.01350     2.89751
      N   12   -0.21174      0.99969     2.70079    0.01126     3.71174
      C   13   -0.00010      0.99960     1.98598    0.01452     3.00010
      C   14   -0.07846      0.99951     2.07023    0.00872     3.07846
      C   15   -0.00895      0.99952     2.00136    0.00807     3.00895
      C   16   -0.08634      0.99948     2.07853    0.00833     3.08634
      C   17   -0.29123      0.99964     2.28683    0.00476     3.29123
      H   18    0.09883      0.00000     0.40019    0.00098     0.40117
      H   19    0.09333      0.00000     0.40577    0.00090     0.40667
      H   20    0.10581      0.00000     0.39318    0.00100     0.39419
      H   21    0.09627      0.00000     0.40265    0.00107     0.40373
      H   22    0.09889      0.00000     0.39998    0.00113     0.40111
      H   23    0.11071      0.00000     0.38823    0.00106     0.38929
      H   24    0.09651      0.00000     0.40261    0.00088     0.40349
      H   25    0.10207      0.00000     0.39595    0.00197     0.39793
      H   26    0.11406      0.00000     0.38415    0.00179     0.38594
      H   27    0.07577      0.00000     0.42253    0.00170     0.42423
      H   28    0.08670      0.00000     0.41217    0.00113     0.41330
      H   29    0.10588      0.00000     0.39279    0.00133     0.39412
      H   30    0.09909      0.00000     0.39994    0.00097     0.40091
      H   31    0.09888      0.00000     0.40008    0.00104     0.40112
      H   32    0.09481      0.00000     0.40414    0.00104     0.40519
 =======================================================================
   * Total *   -0.00000     16.99330    43.80508    0.20162    61.00000

 Normal termination of Gaussian 16 at Fri Dec 11 13:18:55 2020.
