 Gaussian 16, Revision A.03,

 -----------------------------------------------------------
 # opt freq B3LYP/6-31G(d) empiricaldispersion=gd3bj scf=xqc
 -----------------------------------------------------------

 ------------------------------
 CID_83360220_JID_6238_neutraal
 ------------------------------
 Symbolic Z-matrix:
 Charge =  0 Multiplicity = 1

 SCF Done:  E(RB3LYP) =  -674.935208489     A.U. after   14 cycles
 SCF Done:  E(RB3LYP) =  -674.939843987     A.U. after   12 cycles
 SCF Done:  E(RB3LYP) =  -674.940788428     A.U. after   12 cycles
 SCF Done:  E(RB3LYP) =  -674.941311907     A.U. after   12 cycles
 SCF Done:  E(RB3LYP) =  -674.941762952     A.U. after   12 cycles
 SCF Done:  E(RB3LYP) =  -674.941994686     A.U. after   13 cycles
 SCF Done:  E(RB3LYP) =  -674.942124452     A.U. after   12 cycles
 SCF Done:  E(RB3LYP) =  -674.942443034     A.U. after   12 cycles
 SCF Done:  E(RB3LYP) =  -674.942600366     A.U. after   11 cycles
 SCF Done:  E(RB3LYP) =  -674.942827465     A.U. after   14 cycles
 SCF Done:  E(RB3LYP) =  -674.947144303     A.U. after   11 cycles
 SCF Done:  E(RB3LYP) =  -674.947172762     A.U. after   10 cycles
 SCF Done:  E(RB3LYP) =  -674.947176628     A.U. after    9 cycles
 SCF Done:  E(RB3LYP) =  -674.947177020     A.U. after    8 cycles
 SCF Done:  E(RB3LYP) =  -674.947177082     A.U. after    6 cycles
 Optimization completed.
    -- Stationary point found.
 Normal termination of Gaussian 16 at Thu Dec 10 21:39:46 2020.

 --------------------------------------------------------------------
 #N Geom=AllCheck Guess=TCheck SCRF=Check GenChk RB3LYP/6-31G(d) Freq
 --------------------------------------------------------------------

 Structure from the checkpoint file:  "JID_6238.chk"
 ------------------------------
 CID_83360220_JID_6238_neutraal
 ------------------------------
 Charge =  0 Multiplicity = 1

 SCF Done:  E(RB3LYP) =  -674.947177082     A.U. after    1 cycles

  Exact polarizability: 215.424 -10.245 157.232   8.216  -3.715 101.003
 Approx polarizability: 285.684 -23.896 246.832  19.731  -6.109 153.438

                      1                      2                      3
                      A                      A                      A
 Frequencies --     29.1701                39.8409                65.8752
 Red. masses --      3.0497                 3.8983                 2.9751
 Frc consts  --      0.0015                 0.0036                 0.0076
 IR Inten    --      0.0757                 0.3667                 1.0177

                      4                      5                      6
                      A                      A                      A
 Frequencies --     85.7233               141.7023               152.2771
 Red. masses --      3.0967                 2.3102                 1.1754
 Frc consts  --      0.0134                 0.0273                 0.0161
 IR Inten    --      2.4770                 0.6580                 0.3506

                      7                      8                      9
                      A                      A                      A
 Frequencies --    160.3249               193.7222               204.8737
 Red. masses --      2.8981                 1.3912                 2.7293
 Frc consts  --      0.0439                 0.0308                 0.0675
 IR Inten    --      0.9795                 1.2241                 1.3007

                     10                     11                     12
                      A                      A                      A
 Frequencies --    218.3440               238.0696               284.3633
 Red. masses --      2.0963                 2.6094                 1.5704
 Frc consts  --      0.0589                 0.0871                 0.0748
 IR Inten    --      0.3972                 0.3747                 0.8516

                     13                     14                     15
                      A                      A                      A
 Frequencies --    297.4476               314.2447               334.8703
 Red. masses --      2.8045                 2.4016                 3.5994
 Frc consts  --      0.1462                 0.1397                 0.2378
 IR Inten    --      2.3272                 0.8807                 1.2142

                     16                     17                     18
                      A                      A                      A
 Frequencies --    369.2935               414.4357               441.4505
 Red. masses --      3.1103                 2.6226                 2.8363
 Frc consts  --      0.2499                 0.2654                 0.3257
 IR Inten    --      6.2348                 0.3162                 0.9783

                     19                     20                     21
                      A                      A                      A
 Frequencies --    470.3424               479.7104               500.1009
 Red. masses --      3.3815                 2.7806                 5.3104
 Frc consts  --      0.4407                 0.3770                 0.7825
 IR Inten    --      8.4160                 4.2583                 1.9121

                     22                     23                     24
                      A                      A                      A
 Frequencies --    526.4859               543.5062               588.7246
 Red. masses --      3.6109                 2.9493                 3.9385
 Frc consts  --      0.5897                 0.5133                 0.8043
 IR Inten    --      1.4227                 7.2482                 1.3821

                     25                     26                     27
                      A                      A                      A
 Frequencies --    625.6136               638.6090               725.0170
 Red. masses --      3.3579                 3.7376                 3.5175
 Frc consts  --      0.7743                 0.8981                 1.0894
 IR Inten    --     13.0009                16.8259                 5.4175

                     28                     29                     30
                      A                      A                      A
 Frequencies --    729.1774               786.5262               813.6776
 Red. masses --      2.2656                 1.6712                 4.0298
 Frc consts  --      0.7097                 0.6091                 1.5719
 IR Inten    --     28.7575                21.8299                 9.0265

                     31                     32                     33
                      A                      A                      A
 Frequencies --    828.1531               849.4883               871.9409
 Red. masses --      1.9460                 2.8650                 1.4172
 Frc consts  --      0.7863                 1.2181                 0.6348
 IR Inten    --     73.1361                 2.7671                 1.3079

                     34                     35                     36
                      A                      A                      A
 Frequencies --    880.6104               899.3766               947.7529
 Red. masses --      1.5882                 2.6388                 2.0587
 Frc consts  --      0.7256                 1.2576                 1.0895
 IR Inten    --      6.9679                25.8917                 3.7920

                     37                     38                     39
                      A                      A                      A
 Frequencies --    951.8673               974.8310               997.1784
 Red. masses --      1.2620                 1.4044                 3.3780
 Frc consts  --      0.6737                 0.7863                 1.9791
 IR Inten    --      0.2904                 0.3212                 1.8382

                     40                     41                     42
                      A                      A                      A
 Frequencies --   1029.6055              1053.0319              1061.9292
 Red. masses --      1.2500                 2.3949                 2.3520
 Frc consts  --      0.7808                 1.5647                 1.5627
 IR Inten    --      2.0011                 1.8731                35.3202

                     43                     44                     45
                      A                      A                      A
 Frequencies --   1090.5343              1113.7009              1117.8895
 Red. masses --      2.0013                 2.8253                 1.6583
 Frc consts  --      1.4023                 2.0647                 1.2210
 IR Inten    --      3.5763                30.5843                 0.1965

                     46                     47                     48
                      A                      A                      A
 Frequencies --   1128.7833              1148.2543              1162.9952
 Red. masses --      2.1886                 2.3247                 3.2788
 Frc consts  --      1.6430                 1.8059                 2.6129
 IR Inten    --      3.9720                47.3417                55.9803

                     49                     50                     51
                      A                      A                      A
 Frequencies --   1187.2661              1201.7039              1215.1281
 Red. masses --      1.2737                 1.4097                 2.0332
 Frc consts  --      1.0578                 1.1994                 1.7687
 IR Inten    --      0.8590                 1.0995                18.4246

                     52                     53                     54
                      A                      A                      A
 Frequencies --   1223.0640              1225.7247              1241.6964
 Red. masses --      2.0122                 1.3309                 1.2842
 Frc consts  --      1.7734                 1.1781                 1.1666
 IR Inten    --     10.0568                 0.8527                 6.0971

                     55                     56                     57
                      A                      A                      A
 Frequencies --   1244.4312              1263.0922              1306.4191
 Red. masses --      1.3321                 1.8558                 3.2321
 Frc consts  --      1.2155                 1.7444                 3.2501
 IR Inten    --      9.3817                 3.1982               185.9048

                     58                     59                     60
                      A                      A                      A
 Frequencies --   1326.0888              1343.7513              1363.9372
 Red. masses --      1.4910                 1.2821                 2.4600
 Frc consts  --      1.5448                 1.3640                 2.6963
 IR Inten    --      5.4741                12.7989                 7.9750

                     61                     62                     63
                      A                      A                      A
 Frequencies --   1398.7162              1410.0298              1421.8752
 Red. masses --      2.3453                 1.3472                 1.4774
 Frc consts  --      2.7033                 1.5781                 1.7598
 IR Inten    --     40.8042                 1.6324                32.3050

                     64                     65                     66
                      A                      A                      A
 Frequencies --   1439.6440              1450.6544              1493.3000
 Red. masses --      1.3224                 1.2423                 1.4145
 Frc consts  --      1.6148                 1.5403                 1.8585
 IR Inten    --      5.9469                 1.1732                39.4601

                     67                     68                     69
                      A                      A                      A
 Frequencies --   1499.4501              1499.6212              1501.8104
 Red. masses --      1.1850                 1.3411                 1.0474
 Frc consts  --      1.5698                 1.7769                 1.3918
 IR Inten    --     14.4350                 1.2313                 0.6923

                     70                     71                     72
                      A                      A                      A
 Frequencies --   1517.3890              1520.3908              1520.6323
 Red. masses --      1.0521                 1.0592                 1.0489
 Frc consts  --      1.4273                 1.4426                 1.4290
 IR Inten    --      5.8658                14.5682                 4.8786

                     73                     74                     75
                      A                      A                      A
 Frequencies --   1522.7482              1525.4537              1526.6325
 Red. masses --      1.8084                 1.6180                 1.2719
 Frc consts  --      2.4705                 2.2183                 1.7465
 IR Inten    --     37.7204                 7.8753                43.1096

                     76                     77                     78
                      A                      A                      A
 Frequencies --   1537.9307              1540.3219              1648.5024
 Red. masses --      1.1033                 1.1902                 6.5318
 Frc consts  --      1.5375                 1.6638                10.4583
 IR Inten    --      0.9037                 4.6424                63.4038

                     79                     80                     81
                      A                      A                      A
 Frequencies --   1660.9181              1745.9099              2950.1323
 Red. masses --      6.3886                 6.3387                 1.0732
 Frc consts  --     10.3837                11.3840                 5.5034
 IR Inten    --      9.5360                 8.3166                65.5881

                     82                     83                     84
                      A                      A                      A
 Frequencies --   3023.7758              3024.3073              3032.4396
 Red. masses --      1.0348                 1.0390                 1.0415
 Frc consts  --      5.5743                 5.5991                 5.6428
 IR Inten    --     73.2903                24.2056                59.3839

                     85                     86                     87
                      A                      A                      A
 Frequencies --   3044.8547              3063.7992              3068.5316
 Red. masses --      1.0667                 1.0835                 1.0999
 Frc consts  --      5.8269                 5.9924                 6.1016
 IR Inten    --     19.4604                25.2528                 7.9384

                     88                     89                     90
                      A                      A                      A
 Frequencies --   3073.0379              3081.5743              3086.5940
 Red. masses --      1.0994                 1.1064                 1.0888
 Frc consts  --      6.1169                 6.1905                 6.1115
 IR Inten    --     40.6983                43.2897                59.3192

                     91                     92                     93
                      A                      A                      A
 Frequencies --   3097.4018              3124.7846              3146.4010
 Red. masses --      1.0959                 1.0991                 1.0940
 Frc consts  --      6.1948                 6.3233                 6.3812
 IR Inten    --     19.4259                19.8018                20.9615

                     94                     95                     96
                      A                      A                      A
 Frequencies --   3149.3192              3155.0850              3183.5702
 Red. masses --      1.0882                 1.0997                 1.0860
 Frc consts  --      6.3589                 6.4501                 6.4851
 IR Inten    --     29.2937                28.4526                 5.7424

                     97                     98                     99
                      A                      A                      A
 Frequencies --   3200.5514              3228.8329              3501.9279
 Red. masses --      1.0938                 1.0917                 1.0744
 Frc consts  --      6.6015                 6.7060                 7.7630
 IR Inten    --     23.9157                15.9881                 1.8139

 - Thermochemistry -
 -------------------
 Temperature   298.150 Kelvin.  Pressure   1.00000 Atm.
 Atom     1 has atomic number  6 and mass  12.00000

 Molecular mass:   217.14666 amu.
 Principal axes and moments of inertia in atomic units:
                           1         2         3
     Eigenvalues --  1789.451325883.545176973.39842
           X            0.99999  -0.00504   0.00027
           Y            0.00504   0.99995  -0.00909
           Z           -0.00022   0.00910   0.99996
 This molecule is an asymmetric top.
 Rotational symmetry number  1.
 Warning -- assumption of classical behavior for rotation
           may cause significant error
 Rotational temperatures (Kelvin)      0.04840     0.01472     0.01242
 Rotational constants (GHZ):           1.00854     0.30674     0.25880
 Zero-point vibrational energy     803188.3 (Joules/Mol)
                                  191.96661 (Kcal/Mol)
 Warning -- explicit consideration of  24 degrees of freedom as
           vibrations may cause significant error
 Vibrational temperatures:     41.97    57.32    94.78   123.34   203.88
          (Kelvin)            219.09   230.67   278.72   294.77   314.15
                              342.53   409.14   427.96   452.13   481.80
                              531.33   596.28   635.15   676.72   690.20
                              719.53   757.50   781.98   847.04   900.12
                              918.82  1043.14  1049.12  1131.64  1170.70
                             1191.53  1222.22  1254.53  1267.00  1294.00
                             1363.61  1369.52  1402.56  1434.72  1481.37
                             1515.08  1527.88  1569.04  1602.37  1608.39
                             1624.07  1652.08  1673.29  1708.21  1728.98
                             1748.30  1759.72  1763.54  1786.52  1790.46
                             1817.31  1879.65  1907.95  1933.36  1962.40
                             2012.44  2028.72  2045.76  2071.33  2087.17
                             2148.53  2157.37  2157.62  2160.77  2183.18
                             2187.50  2187.85  2190.90  2194.79  2196.48
                             2212.74  2216.18  2371.83  2389.69  2511.98
                             4244.58  4350.54  4351.30  4363.00  4380.87
                             4408.12  4414.93  4421.42  4433.70  4440.92
                             4456.47  4495.87  4526.97  4531.17  4539.46
                             4580.45  4604.88  4645.57  5038.49

 Zero-point correction=                           0.305918 (Hartree/Particle)
 Thermal correction to Energy=                    0.321567
 Thermal correction to Enthalpy=                  0.322511
 Thermal correction to Gibbs Free Energy=         0.262571
 Sum of electronic and zero-point Energies=           -674.641259
 Sum of electronic and thermal Energies=              -674.625610
 Sum of electronic and thermal Enthalpies=            -674.624666
 Sum of electronic and thermal Free Energies=         -674.684606

                     E (Thermal)             CV                S
                      KCal/Mol        Cal/Mol-Kelvin    Cal/Mol-Kelvin
 Total                  201.786             60.306            126.154
 Electronic               0.000              0.000              0.000
 Translational            0.889              2.981             42.029
 Rotational               0.889              2.981             32.662
 Vibrational            200.009             54.344             51.463
 Vibration     1          0.593              1.984              5.885
 Vibration     2          0.594              1.981              5.267
 Vibration     3          0.597              1.971              4.273
 Vibration     4          0.601              1.959              3.755
 Vibration     5          0.615              1.912              2.781
 Vibration     6          0.619              1.900              2.644
 Vibration     7          0.622              1.891              2.546
 Vibration     8          0.635              1.849              2.192
 Vibration     9          0.640              1.833              2.089
 Vibration    10          0.646              1.813              1.973
 Vibration    11          0.656              1.782              1.817
 Vibration    12          0.683              1.703              1.507
 Vibration    13          0.691              1.678              1.431
 Vibration    14          0.702              1.646              1.340
 Vibration    15          0.716              1.606              1.236
 Vibration    16          0.742              1.535              1.083
 Vibration    17          0.778              1.439              0.911
 Vibration    18          0.801              1.380              0.822
 Vibration    19          0.827              1.316              0.737
 Vibration    20          0.836              1.295              0.711
 Vibration    21          0.856              1.250              0.658
 Vibration    22          0.881              1.191              0.595
 Vibration    23          0.899              1.154              0.558
 Vibration    24          0.946              1.056              0.469

                           ! Non-Optimized Parameters !
 Normal termination of Gaussian 16 at Thu Dec 10 21:53:02 2020.

 ----------------------------------------------------------------------
 # B3LYP/6-311++G(d,p) empiricaldispersion=gd3bj scf=xqc pop=npa geom=c
 heck
 ----------------------------------------------------------------------

 --------------------------------------
 CID_83360220_JID_6238_Energie_neutraal
 --------------------------------------
 Structure from the checkpoint file:  "JID_6238.chk"
 Charge =  0 Multiplicity = 1

 SCF Done:  E(RB3LYP) =  -675.130468239     A.U. after   15 cycles
 Normal termination of Gaussian 16 at Thu Dec 10 21:59:44 2020.

 ----------------------------------------------------------------------
 # B3LYP/6-311++G(d,p) empiricaldispersion=gd3bj scf=xqc pop=npa geom=c
 heck
 ----------------------------------------------------------------------

 ------------------------------------
 CID_83360220_JID_6238_Energie_kation
 ------------------------------------
 Structure from the checkpoint file:  "JID_6238.chk"
 Charge =  1 Multiplicity = 2

 SCF Done:  E(UB3LYP) =  -674.854775933     A.U. after   25 cycles
 Normal termination of Gaussian 16 at Thu Dec 10 22:15:35 2020.
 Gaussian 16:  ES64L-G16RevA.03 25-Dec-2016

 ----------------------------------------------------------------------
 # B3LYP/6-311++G(d,p) empiricaldispersion=gd3bj scf=xqc pop=npa geom=c
 heck
 ----------------------------------------------------------------------

 -----------------------------------
 CID_83360220_JID_6238_Energie_anion
 -----------------------------------
 Structure from the checkpoint file:  "JID_6238.chk"
 Charge = -1 Multiplicity = 2

                         Standard orientation:
 ---------------------------------------------------------------------
 Center     Atomic      Atomic             Coordinates (Angstroms)
 Number     Number       Type             X           Y           Z
 ---------------------------------------------------------------------
      1          6           0       -4.309420    0.522126    1.568505
      2          6           0       -3.439293    0.345640    0.348206
      3          6           0       -2.233779   -0.234652    0.446230
      4          6           0       -1.244582   -0.520879   -0.661717
      5          6           0        0.054046    0.239671   -0.424641
      6          6           0        1.249543   -0.426406   -0.147085
      7          6           0        1.307663   -1.932855   -0.057297
      8          6           0       -0.082600   -2.518070    0.167433
      9          7           0       -0.990831   -1.963443   -0.835743
     10          6           0        2.421021    0.335326    0.048559
     11          6           0        2.394024    1.728135   -0.013946
     12          6           0        1.182404    2.375079   -0.279792
     13          6           0        0.023405    1.641351   -0.481684
     14          8           0        3.551467   -0.396397    0.298398
     15          6           0        4.761342    0.303753    0.522018
     16          6           0       -4.044258    0.881339   -0.925411
     17          1           0       -3.833143    0.124589    2.469800
     18          1           0       -5.276930    0.016774    1.439964
     19          1           0       -4.534372    1.583820    1.741579
     20          1           0       -1.906458   -0.560207    1.433579
     21          1           0       -1.654094   -0.164596   -1.612970
     22          1           0        1.984102   -2.231231    0.750422
     23          1           0        1.727880   -2.341630   -0.985795
     24          1           0       -0.397837   -2.317665    1.208150
     25          1           0       -0.059470   -3.605811    0.042619
     26          1           0       -1.886062   -2.445797   -0.798768
     27          1           0        3.293389    2.312333    0.139355
     28          1           0        1.157851    3.460179   -0.329199
     29          1           0       -0.918642    2.144071   -0.681873
     30          1           0        5.049401    0.900532   -0.353593
     31          1           0        4.689785    0.963836    1.396787
     32          1           0        5.520780   -0.458601    0.705201
     33          1           0       -5.025609    0.422703   -1.108230
     34          1           0       -4.219402    1.962882   -0.842243
     35          1           0       -3.424180    0.711746   -1.808036
 ---------------------------------------------------------------------

 SCF Done:  E(UB3LYP) =  -675.116728011     A.U. after   33 cycles
 SCF Done:  E(UB3LYP) =  -675.116728011     a.u. after    1 cycles

 The electronic state is 2-A.
 Alpha  occ. eigenvalues --  -19.06124 -14.20723 -10.13860 -10.12829 -10.11244
 Alpha  occ. eigenvalues --  -10.10191 -10.08908 -10.08737 -10.08395 -10.08038
 Alpha  occ. eigenvalues --  -10.07626 -10.07579 -10.07371 -10.07191 -10.07124
 Alpha  occ. eigenvalues --  -10.06849  -0.97705  -0.82740  -0.76024  -0.72306
 Alpha  occ. eigenvalues --   -0.69001  -0.67206  -0.64839  -0.60537  -0.60306
 Alpha  occ. eigenvalues --   -0.59689  -0.54544  -0.53806  -0.49640  -0.46462
 Alpha  occ. eigenvalues --   -0.43986  -0.43017  -0.41260  -0.38621  -0.38370
 Alpha  occ. eigenvalues --   -0.38286  -0.37584  -0.36358  -0.35236  -0.34228
 Alpha  occ. eigenvalues --   -0.32758  -0.32655  -0.31465  -0.29915  -0.29521
 Alpha  occ. eigenvalues --   -0.29513  -0.28579  -0.28497  -0.27880  -0.26512
 Alpha  occ. eigenvalues --   -0.25749  -0.25079  -0.24229  -0.22843  -0.22630
 Alpha  occ. eigenvalues --   -0.16861  -0.14673  -0.13187  -0.12720   0.04033
 Alpha virt. eigenvalues --    0.05296   0.06524   0.07292   0.07468   0.07698
 Alpha virt. eigenvalues --    0.08253   0.08902   0.09107   0.09418   0.09553
 Alpha virt. eigenvalues --    0.09762   0.10160   0.11040   0.11314   0.11753

  Beta  occ. eigenvalues --  -19.06116 -14.20715 -10.13860 -10.12781 -10.11239
  Beta  occ. eigenvalues --  -10.10181 -10.08905 -10.08736 -10.08393 -10.08031
  Beta  occ. eigenvalues --  -10.07613 -10.07576 -10.07333 -10.07158 -10.07118
  Beta  occ. eigenvalues --  -10.06843  -0.97688  -0.82726  -0.76012  -0.72285
  Beta  occ. eigenvalues --   -0.68985  -0.67189  -0.64810  -0.60494  -0.60244
  Beta  occ. eigenvalues --   -0.59652  -0.54514  -0.53784  -0.49609  -0.46428
  Beta  occ. eigenvalues --   -0.43954  -0.42983  -0.41232  -0.38598  -0.38343
  Beta  occ. eigenvalues --   -0.38259  -0.37555  -0.36337  -0.35205  -0.34186
  Beta  occ. eigenvalues --   -0.32728  -0.32626  -0.31448  -0.29896  -0.29491
  Beta  occ. eigenvalues --   -0.29480  -0.28549  -0.28471  -0.27850  -0.26492
  Beta  occ. eigenvalues --   -0.25722  -0.25052  -0.24211  -0.22823  -0.22612
  Beta  occ. eigenvalues --   -0.16846  -0.14665  -0.13171  -0.12710
  Beta virt. eigenvalues --    0.05972   0.06515   0.06862   0.07632   0.07906
  Beta virt. eigenvalues --    0.08022   0.08555   0.09034   0.09295   0.09811
  Beta virt. eigenvalues --    0.09976   0.10107   0.10453   0.11238   0.11664

 Mulliken charges and spin densities:
               1          2
     1  C    0.393684  -1.039755
     2  C   -0.059620   0.317451
     3  C   -0.802475   0.388912
     4  C    1.365042  -0.658088
     5  C   -0.001151   0.346706
     6  C    0.094746  -0.005482
     7  C   -0.533763  -0.023944
     8  C    0.005946  -0.291729
     9  N   -0.145645   0.075397
    10  C   -0.705549   0.285934
    11  C   -0.286355   0.156877
    12  C    0.500162  -0.966608
    13  C   -0.417451  -0.072302
    14  O   -0.200705   0.054597
    15  C    0.989318  -1.273700
    16  C    0.449588  -1.036270
    17  H   -0.236226   0.380323
    18  H   -0.213731   0.357545
    19  H   -0.087939   0.229062
    20  H    0.236779  -0.067826
    21  H    0.198031   0.025648
    22  H    0.116726   0.057639
    23  H    0.197434   0.002468
    24  H   -0.019346   0.112108
    25  H   -0.112771   0.284688
    26  H    0.139894   0.111158
    27  H   -0.101866   0.272356
    28  H   -0.367324   0.539468
    29  H    0.257218  -0.119033
    30  H   -0.263851   0.413107
    31  H   -0.306256   0.458913
    32  H   -0.522593   0.697411
    33  H   -0.264799   0.418572
    34  H   -0.168036   0.316627
    35  H   -0.127114   0.251770
 Sum of Mulliken charges =  -1.00000   1.00000

 Dipole moment (field-independent basis, Debye):
    X=             -0.6836    Y=             -1.8834    Z=             -0.9079  Tot=              2.1997
 Quadrupole moment (field-independent basis, Debye-Ang):
   XX=           -215.3144   YY=           -137.9913   ZZ=           -130.3304
   XY=             -3.5356   XZ=             -2.9994   YZ=             -1.8495

 Summary of Natural Population Analysis:

                                       Natural Population
                Natural  -----------------------------------------------
    Atom  No    Charge         Core      Valence    Rydberg      Total
 -----------------------------------------------------------------------
      C    1   -0.29399      0.99962     2.28868    0.00569     3.29399
      C    2   -0.00399      0.99950     1.99517    0.00933     3.00399
      C    3   -0.10792      0.99943     2.09825    0.01025     3.10792
      C    4   -0.02780      0.99953     2.01493    0.01334     3.02780
      C    5   -0.00510      0.99946     1.99581    0.00983     3.00510
      C    6   -0.03341      0.99943     2.02444    0.00954     3.03341
      C    7   -0.19897      0.99960     2.19103    0.00834     3.19897
      C    8   -0.08779      0.99962     2.07695    0.01121     3.08779
      N    9   -0.33507      0.99975     2.82460    0.01073     3.83507
      C   10    0.16681      0.99934     1.82089    0.01296     2.83319
      C   11   -0.14644      0.99952     2.13815    0.00877     3.14644
      C   12   -0.09251      0.99957     2.08290    0.01003     3.09251
      C   13   -0.10987      0.99952     2.10116    0.00919     3.10987
      O   14   -0.27495      0.99986     3.26525    0.00985     4.27495
      C   15   -0.09988      0.99960     2.09118    0.00909     3.09988
      C   16   -0.30052      0.99962     2.29494    0.00596     3.30052
      H   17    0.10164      0.00000     0.39744    0.00092     0.39836
      H   18    0.10277      0.00000     0.39578    0.00145     0.39723
      H   19    0.10133      0.00000     0.39757    0.00110     0.39867
      H   20    0.09459      0.00000     0.40403    0.00138     0.40541
      H   21    0.10265      0.00000     0.39527    0.00208     0.39735
      H   22    0.10857      0.00000     0.38988    0.00155     0.39143
      H   23    0.10512      0.00000     0.39347    0.00141     0.39488
      H   24    0.07890      0.00000     0.41943    0.00167     0.42110
      H   25    0.09479      0.00000     0.40427    0.00093     0.40521
      H   26    0.17691      0.00000     0.32061    0.00248     0.32309
      H   27    0.10675      0.00000     0.39179    0.00147     0.39325
      H   28    0.10006      0.00000     0.39905    0.00089     0.39994
      H   29    0.10248      0.00000     0.39608    0.00144     0.39752
      H   30    0.08517      0.00000     0.41303    0.00180     0.41483
      H   31    0.08567      0.00000     0.41244    0.00189     0.41433
      H   32    0.09458      0.00000     0.40408    0.00135     0.40542
      H   33    0.10489      0.00000     0.39364    0.00147     0.39511
      H   34    0.10371      0.00000     0.39513    0.00116     0.39629
      H   35    0.10084      0.00000     0.39800    0.00116     0.39916
 =======================================================================
   * Total *    0.00000     15.99296    42.82532    0.18172    59.00000

 Normal termination of Gaussian 16 at Thu Dec 10 22:36:37 2020.
