 Gaussian 16, Revision A.03,

 -----------------------------------------------------------
 # opt freq B3LYP/6-31G(d) empiricaldispersion=gd3bj scf=xqc
 -----------------------------------------------------------

 ------------------------------
 CID_67270385_JID_4686_neutraal
 ------------------------------
 Symbolic Z-matrix:
 Charge =  0 Multiplicity = 1

 SCF Done:  E(RB3LYP) =  -668.137852958     A.U. after   15 cycles
 SCF Done:  E(RB3LYP) =  -668.141472035     A.U. after   13 cycles
 SCF Done:  E(RB3LYP) =  -668.141509174     A.U. after   13 cycles
 SCF Done:  E(RB3LYP) =  -668.143144781     A.U. after   13 cycles
 SCF Done:  E(RB3LYP) =  -668.143565151     A.U. after   13 cycles
 SCF Done:  E(RB3LYP) =  -668.143727838     A.U. after   12 cycles
 SCF Done:  E(RB3LYP) =  -668.143758358     A.U. after   11 cycles
 SCF Done:  E(RB3LYP) =  -668.143768823     A.U. after   10 cycles
 SCF Done:  E(RB3LYP) =  -668.143769967     A.U. after    9 cycles
 SCF Done:  E(RB3LYP) =  -668.143770372     A.U. after    8 cycles
 SCF Done:  E(RB3LYP) =  -668.143770448     A.U. after    8 cycles
 Optimization completed.
    -- Stationary point found.
 Normal termination of Gaussian 16 at Thu Dec 10 10:18:46 2020.

 --------------------------------------------------------------------
 #N Geom=AllCheck Guess=TCheck SCRF=Check GenChk RB3LYP/6-31G(d) Freq
 --------------------------------------------------------------------

 Structure from the checkpoint file:  "JID_4686.chk"
 ------------------------------
 CID_67270385_JID_4686_neutraal
 ------------------------------
 Charge =  0 Multiplicity = 1

 SCF Done:  E(RB3LYP) =  -668.143770448     A.U. after    1 cycles

  Exact polarizability: 227.274 -10.849 117.128   4.440   5.084  57.000
 Approx polarizability: 315.918 -39.823 212.211   8.104  11.653  83.524

                      1                      2                      3
                      A                      A                      A
 Frequencies --     29.5643                41.1000                63.1741
 Red. masses --      4.1196                 4.1152                 5.4476
 Frc consts  --      0.0021                 0.0041                 0.0128
 IR Inten    --      4.8278                 1.9245                 0.7750

                      4                      5                      6
                      A                      A                      A
 Frequencies --     80.2764               109.0489               158.9998
 Red. masses --      4.8065                 3.4882                 3.5235
 Frc consts  --      0.0182                 0.0244                 0.0525
 IR Inten    --      1.7633                 1.2276                 1.0218

                      7                      8                      9
                      A                      A                      A
 Frequencies --    181.2609               200.7797               229.0495
 Red. masses --      3.9548                 3.7325                 1.2965
 Frc consts  --      0.0766                 0.0887                 0.0401
 IR Inten    --      0.9690                 0.4626                 2.9673

                     10                     11                     12
                      A                      A                      A
 Frequencies --    310.5054               343.2011               368.5656
 Red. masses --      3.5467                 3.7424                 1.2526
 Frc consts  --      0.2015                 0.2597                 0.1003
 IR Inten    --      5.4418                 8.0387               108.7626

                     13                     14                     15
                      A                      A                      A
 Frequencies --    374.3782               406.4699               430.1584
 Red. masses --      2.6804                 4.2466                 3.6167
 Frc consts  --      0.2213                 0.4134                 0.3943
 IR Inten    --      9.0005                 4.3285                11.5574

                     16                     17                     18
                      A                      A                      A
 Frequencies --    440.9726               513.0236               528.0723
 Red. masses --      4.0291                 4.6264                 2.8454
 Frc consts  --      0.4616                 0.7174                 0.4675
 IR Inten    --     12.6947                 1.9973                 2.2391

                     19                     20                     21
                      A                      A                      A
 Frequencies --    559.7560               656.8464               702.6922
 Red. masses --      6.6160                 7.9481                 4.0043
 Frc consts  --      1.2214                 2.0204                 1.1649
 IR Inten    --     29.5568                 2.2134                 1.3235

                     22                     23                     24
                      A                      A                      A
 Frequencies --    713.4527               774.8906               803.1400
 Red. masses --      4.0402                 6.3486                 1.3547
 Frc consts  --      1.2117                 2.2460                 0.5149
 IR Inten    --      0.5295                 3.9786                 5.4985

                     25                     26                     27
                      A                      A                      A
 Frequencies --    814.6412               835.9237               871.4784
 Red. masses --      4.5816                 1.5497                 2.9365
 Frc consts  --      1.7914                 0.6380                 1.3140
 IR Inten    --      0.3635                39.3588                 7.2110

                     28                     29                     30
                      A                      A                      A
 Frequencies --    893.2157               896.0186               932.8221
 Red. masses --      2.1697                 5.0276                 1.4083
 Frc consts  --      1.0199                 2.3782                 0.7220
 IR Inten    --      7.1892                 2.7482                 3.6464

                     31                     32                     33
                      A                      A                      A
 Frequencies --    950.5792               954.0687              1036.0903
 Red. masses --      1.3178                 2.4793                 2.8790
 Frc consts  --      0.7016                 1.3296                 1.8209
 IR Inten    --      0.3727                 9.0992                 7.8999

                     34                     35                     36
                      A                      A                      A
 Frequencies --   1039.2162              1079.8453              1134.4995
 Red. masses --      1.1329                 4.7663                 2.0357
 Frc consts  --      0.7209                 3.2746                 1.5437
 IR Inten    --     24.1250                81.3811                68.4559

                     37                     38                     39
                      A                      A                      A
 Frequencies --   1156.7232              1199.8073              1209.7154
 Red. masses --      1.4875                 1.4285                 1.7381
 Frc consts  --      1.1726                 1.2116                 1.4986
 IR Inten    --    165.8786               255.0979                12.1097

                     40                     41                     42
                      A                      A                      A
 Frequencies --   1249.8359              1299.3000              1310.6336
 Red. masses --      1.4268                 3.2666                 2.2603
 Frc consts  --      1.3132                 3.2491                 2.2876
 IR Inten    --     11.4547               689.0839                40.7006

                     43                     44                     45
                      A                      A                      A
 Frequencies --   1324.0186              1327.7994              1341.3172
 Red. masses --      1.7706                 1.9167                 1.5268
 Frc consts  --      1.8287                 1.9909                 1.6184
 IR Inten    --     10.2423                17.3371                25.2046

                     46                     47                     48
                      A                      A                      A
 Frequencies --   1346.5843              1358.9232              1420.3426
 Red. masses --      1.1983                 5.4214                 1.2955
 Frc consts  --      1.2802                 5.8986                 1.5398
 IR Inten    --     13.7959                92.4657                24.5179

                     49                     50                     51
                      A                      A                      A
 Frequencies --   1444.0885              1475.6107              1515.4648
 Red. masses --      1.3420                 2.6680                 1.0553
 Frc consts  --      1.6488                 3.4228                 1.4280
 IR Inten    --      8.9976                39.2776                16.8813

                     52                     53                     54
                      A                      A                      A
 Frequencies --   1518.6269              1532.7598              1538.6096
 Red. masses --      1.0787                 3.0330                 1.0597
 Frc consts  --      1.4657                 4.1983                 1.4781
 IR Inten    --      5.9920                91.8572                11.9078

                     55                     56                     57
                      A                      A                      A
 Frequencies --   1632.2115              1652.1060              1702.6098
 Red. masses --      5.5960                 5.5767                 6.3855
 Frc consts  --      8.7838                 8.9682                10.9063
 IR Inten    --     36.9992               111.7892                26.4041

                     58                     59                     60
                      A                      A                      A
 Frequencies --   1790.1917              3060.7506              3092.2439
 Red. masses --     10.0756                 1.0364                 1.0587
 Frc consts  --     19.0248                 5.7203                 5.9647
 IR Inten    --    361.0100                20.4423                31.1594

                     61                     62                     63
                      A                      A                      A
 Frequencies --   3126.5255              3138.6989              3158.5679
 Red. masses --      1.1018                 1.1046                 1.1068
 Frc consts  --      6.3459                 6.4112                 6.5058
 IR Inten    --     29.5488                 9.0432                26.5406

                     64                     65                     66
                      A                      A                      A
 Frequencies --   3177.3399              3187.7597              3208.9356
 Red. masses --      1.0901                 1.0909                 1.0934
 Frc consts  --      6.4840                 6.5315                 6.6337
 IR Inten    --     20.8802                23.2218                 2.4785

                     67                     68                     69
                      A                      A                      A
 Frequencies --   3219.1626              3222.6184              3744.0179
 Red. masses --      1.0906                 1.0881                 1.0661
 Frc consts  --      6.6588                 6.6579                 8.8050
 IR Inten    --      3.6095                 7.1691                69.4411

 - Thermochemistry -
 -------------------
 Temperature   298.150 Kelvin.  Pressure   1.00000 Atm.
 Atom     1 has atomic number  6 and mass  12.00000

 Molecular mass:   193.07389 amu.
 Principal axes and moments of inertia in atomic units:
                           1         2         3
     Eigenvalues --   734.153817740.752298295.97078
           X            0.99991   0.01310  -0.00346
           Y           -0.01309   0.99991   0.00085
           Z            0.00347  -0.00081   0.99999
 This molecule is an asymmetric top.
 Rotational symmetry number  1.
 Warning -- assumption of classical behavior for rotation
           may cause significant error
 Rotational temperatures (Kelvin)      0.11798     0.01119     0.01044
 Rotational constants (GHZ):           2.45826     0.23315     0.21754
 Zero-point vibrational energy     521223.0 (Joules/Mol)
                                  124.57528 (Kcal/Mol)
 Warning -- explicit consideration of  19 degrees of freedom as
           vibrations may cause significant error
 Vibrational temperatures:     42.54    59.13    90.89   115.50   156.90
          (Kelvin)            228.77   260.79   288.88   329.55   446.75
                              493.79   530.28   538.65   584.82   618.90
                              634.46   738.13   759.78   805.36   945.06
                             1011.02  1026.50  1114.89  1155.54  1172.09
                             1202.71  1253.86  1285.14  1289.17  1342.12
                             1367.67  1372.69  1490.70  1495.20  1553.66
                             1632.29  1664.27  1726.26  1740.51  1798.24
                             1869.40  1885.71  1904.97  1910.41  1929.86
                             1937.43  1955.19  2043.56  2077.72  2123.07
                             2180.42  2184.97  2205.30  2213.72  2348.39
                             2377.01  2449.68  2575.69  4403.74  4449.05
                             4498.37  4515.89  4544.47  4571.48  4586.48
                             4616.94  4631.66  4636.63  5386.81

 Zero-point correction=                           0.198523 (Hartree/Particle)
 Thermal correction to Energy=                    0.211848
 Thermal correction to Enthalpy=                  0.212792
 Thermal correction to Gibbs Free Energy=         0.156857
 Sum of electronic and zero-point Energies=           -667.945247
 Sum of electronic and thermal Energies=              -667.931922
 Sum of electronic and thermal Enthalpies=            -667.930978
 Sum of electronic and thermal Free Energies=         -667.986914

                     E (Thermal)             CV                S
                      KCal/Mol        Cal/Mol-Kelvin    Cal/Mol-Kelvin
 Total                  132.937             48.923            117.726
 Electronic               0.000              0.000              0.000
 Translational            0.889              2.981             41.679
 Rotational               0.889              2.981             32.222
 Vibrational            131.159             42.962             43.825
 Vibration     1          0.593              1.984              5.858
 Vibration     2          0.594              1.981              5.205
 Vibration     3          0.597              1.972              4.355
 Vibration     4          0.600              1.963              3.884
 Vibration     5          0.606              1.942              3.286
 Vibration     6          0.621              1.893              2.562
 Vibration     7          0.630              1.865              2.315
 Vibration     8          0.638              1.839              2.126
 Vibration     9          0.652              1.797              1.886
 Vibration    10          0.699              1.654              1.360
 Vibration    11          0.722              1.589              1.197
 Vibration    12          0.741              1.537              1.086
 Vibration    13          0.745              1.525              1.062
 Vibration    14          0.771              1.456              0.939
 Vibration    15          0.791              1.405              0.858
 Vibration    16          0.801              1.381              0.824
 Vibration    17          0.868              1.221              0.626
 Vibration    18          0.883              1.188              0.592
 Vibration    19          0.915              1.118              0.524

 Optimization completed.
    -- Stationary point found.
 Normal termination of Gaussian 16 at Thu Dec 10 10:23:31 2020.

 ----------------------------------------------------------------------
 # B3LYP/6-311++G(d,p) empiricaldispersion=gd3bj scf=xqc pop=npa geom=c
 heck
 ----------------------------------------------------------------------

 --------------------------------------
 CID_67270385_JID_4686_Energie_neutraal
 --------------------------------------
 Structure from the checkpoint file:  "JID_4686.chk"
 Charge =  0 Multiplicity = 1

 SCF Done:  E(RB3LYP) =  -668.339063193     A.U. after   15 cycles
 Normal termination of Gaussian 16 at Thu Dec 10 10:25:25 2020.

 ----------------------------------------------------------------------
 # B3LYP/6-311++G(d,p) empiricaldispersion=gd3bj scf=xqc pop=npa geom=c
 heck
 ----------------------------------------------------------------------

 ------------------------------------
 CID_67270385_JID_4686_Energie_kation
 ------------------------------------
 Structure from the checkpoint file:  "JID_4686.chk"
 Charge =  1 Multiplicity = 2

 SCF Done:  E(UB3LYP) =  -668.033345587     A.U. after   23 cycles
 Normal termination of Gaussian 16 at Thu Dec 10 10:29:15 2020.
 Gaussian 16:  ES64L-G16RevA.03 25-Dec-2016

 ----------------------------------------------------------------------
 # B3LYP/6-311++G(d,p) empiricaldispersion=gd3bj scf=xqc pop=npa geom=c
 heck
 ----------------------------------------------------------------------

 -----------------------------------
 CID_67270385_JID_4686_Energie_anion
 -----------------------------------
 Structure from the checkpoint file:  "JID_4686.chk"
 Charge = -1 Multiplicity = 2

                         Standard orientation:
 ---------------------------------------------------------------------
 Center     Atomic      Atomic             Coordinates (Angstroms)
 Number     Number       Type             X           Y           Z
 ---------------------------------------------------------------------
      1          6           0       -4.967413   -0.852512    0.938020
      2          6           0       -4.346551   -0.761902   -0.447089
      3          8           0       -2.921349   -0.545434   -0.369428
      4          6           0       -2.521662    0.736168   -0.184633
      5          8           0       -3.288843    1.679234   -0.105752
      6          6           0       -1.057558    0.876691   -0.092232
      7          6           0       -0.193421   -0.151939   -0.155967
      8          6           0        1.264742   -0.079159   -0.066070
      9          7           0        1.903758   -1.266882   -0.155545
     10          6           0        3.228827   -1.292808   -0.083641
     11          6           0        4.011369   -0.139882    0.082268
     12          6           0        3.360914    1.092602    0.175714
     13          6           0        1.975123    1.120617    0.100565
     14          8           0        5.361196   -0.293388    0.142177
     15          1           0       -4.481224   -1.635112    1.529417
     16          1           0       -6.033361   -1.093386    0.854756
     17          1           0       -4.869080    0.101809    1.461910
     18          1           0       -4.447068   -1.702009   -0.994709
     19          1           0       -4.795077    0.047651   -1.028042
     20          1           0       -0.736450    1.905098    0.039989
     21          1           0       -0.577922   -1.158832   -0.286351
     22          1           0        3.720202   -2.260457   -0.158270
     23          1           0        3.929460    2.011365    0.304618
     24          1           0        1.450231    2.067187    0.170630
     25          1           0        5.779739    0.574304    0.257293
 ---------------------------------------------------------------------

 SCF Done:  E(UB3LYP) =  -668.358911266     A.U. after   24 cycles

 The electronic state is 2-A.
 Alpha  occ. eigenvalues --  -19.04196 -19.01248 -18.93606 -14.15834 -10.12306
 Alpha  occ. eigenvalues --  -10.10689 -10.09353 -10.06453 -10.05760 -10.05719
 Alpha  occ. eigenvalues --  -10.04979 -10.03937  -9.99983  -9.99563  -0.95360
 Alpha  occ. eigenvalues --   -0.94923  -0.85609  -0.79810  -0.66536  -0.65931
 Alpha  occ. eigenvalues --   -0.64172  -0.59708  -0.53882  -0.51048  -0.50111
 Alpha  occ. eigenvalues --   -0.44977  -0.42332  -0.41530  -0.37500  -0.35961
 Alpha  occ. eigenvalues --   -0.35459  -0.33429  -0.31189  -0.30962  -0.30864
 Alpha  occ. eigenvalues --   -0.30274  -0.28778  -0.28296  -0.26933  -0.25998
 Alpha  occ. eigenvalues --   -0.24817  -0.24192  -0.23518  -0.20896  -0.20451
 Alpha  occ. eigenvalues --   -0.16162  -0.15464  -0.14758  -0.12232  -0.11507
 Alpha  occ. eigenvalues --   -0.08322   0.04014
 Alpha virt. eigenvalues --    0.07016   0.07913   0.10042   0.10094   0.10342
 Alpha virt. eigenvalues --    0.10700   0.11276   0.12359   0.13370   0.14362
 Alpha virt. eigenvalues --    0.14405   0.15084   0.15932   0.16335   0.17018

  Beta  occ. eigenvalues --  -19.04114 -19.01203 -18.93303 -14.15570 -10.12157
  Beta  occ. eigenvalues --  -10.10693 -10.09018 -10.06557 -10.05802 -10.05753
  Beta  occ. eigenvalues --  -10.04882 -10.03784  -9.99668  -9.99340  -0.95139
  Beta  occ. eigenvalues --   -0.94715  -0.85164  -0.79411  -0.66241  -0.65712
  Beta  occ. eigenvalues --   -0.63746  -0.59248  -0.53593  -0.50847  -0.49806
  Beta  occ. eigenvalues --   -0.44497  -0.42169  -0.41334  -0.37344  -0.35858
  Beta  occ. eigenvalues --   -0.35252  -0.33187  -0.30999  -0.30755  -0.30669
  Beta  occ. eigenvalues --   -0.29423  -0.28621  -0.28205  -0.26775  -0.25470
  Beta  occ. eigenvalues --   -0.24348  -0.23330  -0.23247  -0.20712  -0.20237
  Beta  occ. eigenvalues --   -0.15271  -0.14740  -0.13111  -0.11914  -0.11169
  Beta  occ. eigenvalues --   -0.06625
  Beta virt. eigenvalues --    0.07006   0.07835   0.10014   0.10054   0.10324
  Beta virt. eigenvalues --    0.10453   0.10682   0.11224   0.12316   0.13335
  Beta virt. eigenvalues --    0.14356   0.14998   0.15406   0.15935   0.16318

 Mulliken charges and spin densities:
               1          2
     1  C   -0.286731  -0.040622
     2  C   -0.230968   0.019979
     3  O   -0.044886   0.008665
     4  C   -0.016672   0.152329
     5  O   -0.366184   0.095952
     6  C   -0.139156   0.157868
     7  C   -0.427204   0.201401
     8  C    0.074712   0.060647
     9  N   -0.015644   0.112826
    10  C    0.004569  -0.070670
    11  C   -0.474062   0.202710
    12  C   -0.109216  -0.046640
    13  C   -0.260309   0.127154
    14  O   -0.281106   0.016044
    15  H    0.123296   0.007873
    16  H    0.081872   0.015294
    17  H    0.157941   0.011747
    18  H    0.124660   0.004050
    19  H    0.157401  -0.002450
    20  H    0.122933  -0.012504
    21  H    0.190865  -0.018783
    22  H    0.171671   0.004394
    23  H    0.109498   0.003278
    24  H    0.097195  -0.009768
    25  H    0.235526  -0.000773
 Sum of Mulliken charges =  -1.00000   1.00000

 Dipole moment (field-independent basis, Debye):
    X=              1.6204    Y=             -0.0789    Z=              0.5427  Tot=              1.7107
 Quadrupole moment (field-independent basis, Debye-Ang):
   XX=           -120.8686   YY=            -96.2628   ZZ=            -90.6977
   XY=             22.8352   XZ=              1.8092   YZ=              0.9732

 Summary of Natural Population Analysis:

                                       Natural Population
                Natural  -----------------------------------------------
    Atom  No    Charge         Core      Valence    Rydberg      Total
 -----------------------------------------------------------------------
      C    1   -0.29874      0.99967     2.29507    0.00400     3.29874
      C    2   -0.01559      0.99960     2.00546    0.01053     3.01559
      O    3   -0.28896      0.99986     3.27946    0.00963     4.28896
      C    4    0.40329      0.99966     1.57280    0.02424     2.59671
      O    5   -0.30728      0.99987     3.30141    0.00600     4.30728
      C    6   -0.11722      0.99949     2.10873    0.00900     3.11722
      C    7   -0.01602      0.99953     2.00656    0.00993     3.01602
      C    8    0.08343      0.99953     1.90403    0.01302     2.91657
      N    9   -0.18551      0.99969     2.67348    0.01234     3.68551
      C   10   -0.02857      0.99957     2.01449    0.01451     3.02857
      C   11    0.18245      0.99940     1.80635    0.01180     2.81755
      C   12   -0.15588      0.99954     2.14737    0.00897     3.15588
      C   13   -0.06696      0.99954     2.05944    0.00799     3.06696
      O   14   -0.33944      0.99988     3.33306    0.00651     4.33944
      H   15    0.09695      0.00000     0.40208    0.00097     0.40305
      H   16    0.09001      0.00000     0.40828    0.00171     0.40999
      H   17    0.10851      0.00000     0.39038    0.00111     0.39149
      H   18    0.08075      0.00000     0.41812    0.00113     0.41925
      H   19    0.09154      0.00000     0.40693    0.00153     0.40846
      H   20    0.08858      0.00000     0.40995    0.00146     0.41142
      H   21    0.09832      0.00000     0.39997    0.00171     0.40168
      H   22    0.08441      0.00000     0.41416    0.00144     0.41559
      H   23    0.08939      0.00000     0.40931    0.00130     0.41061
      H   24    0.09710      0.00000     0.40121    0.00169     0.40290
      H   25    0.22545      0.00000     0.27193    0.00262     0.27455
 =======================================================================
   * Total *   -0.00000     13.99482    36.84002    0.16516    51.00000

 Normal termination of Gaussian 16 at Thu Dec 10 10:33:31 2020.
