 Gaussian 16, Revision A.03,

 -----------------------------------------------------------
 # opt freq B3LYP/6-31G(d) empiricaldispersion=gd3bj scf=xqc
 -----------------------------------------------------------

 -------------------------------
 CID_150168496_JID_9453_neutraal
 -------------------------------
 Symbolic Z-matrix:
 Charge =  0 Multiplicity = 1

 SCF Done:  E(RB3LYP) =  -858.454345817     A.U. after   16 cycles
 SCF Done:  E(RB3LYP) =  -858.458030430     A.U. after   16 cycles
 SCF Done:  E(RB3LYP) =  -858.461346573     A.U. after   15 cycles
 SCF Done:  E(RB3LYP) =  -858.462664568     A.U. after   15 cycles
 SCF Done:  E(RB3LYP) =  -858.463178188     A.U. after   13 cycles
 SCF Done:  E(RB3LYP) =  -858.463130866     A.U. after   13 cycles
 SCF Done:  E(RB3LYP) =  -858.463477494     A.U. after   13 cycles
 SCF Done:  E(RB3LYP) =  -858.463505486     A.U. after   12 cycles
 SCF Done:  E(RB3LYP) =  -858.463517872     A.U. after   10 cycles
 SCF Done:  E(RB3LYP) =  -858.463522687     A.U. after    9 cycles
 SCF Done:  E(RB3LYP) =  -858.463523461     A.U. after    8 cycles
 Optimization completed.
    -- Stationary point found.
 Normal termination of Gaussian 16 at Mon Dec 14 18:51:50 2020.

 --------------------------------------------------------------------
 #N Geom=AllCheck Guess=TCheck SCRF=Check GenChk RB3LYP/6-31G(d) Freq
 --------------------------------------------------------------------

 Structure from the checkpoint file:  "JID_9453.chk"
 -------------------------------
 CID_150168496_JID_9453_neutraal
 -------------------------------
 Charge =  0 Multiplicity = 1

 SCF Done:  E(RB3LYP) =  -858.463523461     A.U. after    1 cycles

  Exact polarizability: 201.141  -5.464 166.587 -22.765 -10.126 121.467
 Approx polarizability: 262.701  -9.963 305.701 -27.121 -44.353 205.841

                      1                      2                      3
                      A                      A                      A
 Frequencies --     19.4193                27.2015                33.8414
 Red. masses --      6.4073                 6.1368                 4.8088
 Frc consts  --      0.0014                 0.0027                 0.0032
 IR Inten    --      0.2394                 0.1169                 0.1645

                      4                      5                      6
                      A                      A                      A
 Frequencies --     48.0202                60.8514                78.1143
 Red. masses --      5.1808                 6.4529                 7.1072
 Frc consts  --      0.0070                 0.0141                 0.0256
 IR Inten    --      0.6192                 0.3082                 2.6256

                      7                      8                      9
                      A                      A                      A
 Frequencies --    148.5087               159.5587               186.5347
 Red. masses --      5.1174                 5.8896                 4.3523
 Frc consts  --      0.0665                 0.0883                 0.0892
 IR Inten    --      0.2940                 2.3092                 1.0126

                     10                     11                     12
                      A                      A                      A
 Frequencies --    202.7285               224.8754               229.7708
 Red. masses --      3.8148                 3.3087                 3.6101
 Frc consts  --      0.0924                 0.0986                 0.1123
 IR Inten    --      1.8724                 1.2425                 0.8039

                     13                     14                     15
                      A                      A                      A
 Frequencies --    293.8579               356.8239               367.0937
 Red. masses --      3.6789                 3.6267                 2.7673
 Frc consts  --      0.1872                 0.2721                 0.2197
 IR Inten    --      0.8179                16.1880                 1.1700

                     16                     17                     18
                      A                      A                      A
 Frequencies --    385.2975               416.8686               417.9169
 Red. masses --      2.5205                 2.9793                 2.7563
 Frc consts  --      0.2205                 0.3050                 0.2836
 IR Inten    --      3.2697                 0.0453                 2.4003

                     19                     20                     21
                      A                      A                      A
 Frequencies --    438.4361               451.8303               481.6790
 Red. masses --      2.5912                 3.7817                 3.5349
 Frc consts  --      0.2935                 0.4549                 0.4832
 IR Inten    --      0.0854                 0.0647                 0.8854

                     22                     23                     24
                      A                      A                      A
 Frequencies --    497.2311               555.7984               572.4812
 Red. masses --      4.3110                 4.8658                13.3940
 Frc consts  --      0.6280                 0.8856                 2.5863
 IR Inten    --      4.7520                 3.6498                11.1116

                     25                     26                     27
                      A                      A                      A
 Frequencies --    594.2164               634.0802               690.8503
 Red. masses --      3.2032                 6.4018                 6.0262
 Frc consts  --      0.6664                 1.5165                 1.6946
 IR Inten    --      1.7496                 0.7260                 5.9875

                     28                     29                     30
                      A                      A                      A
 Frequencies --    698.4852               719.3054               751.2534
 Red. masses --      3.8048                 1.6490                 4.3484
 Frc consts  --      1.0937                 0.5027                 1.4459
 IR Inten    --      0.2352                74.4429                 8.7460

                     31                     32                     33
                      A                      A                      A
 Frequencies --    789.0860               792.6661               811.1006
 Red. masses --      2.7643                 1.6576                 2.6608
 Frc consts  --      1.0141                 0.6136                 1.0314
 IR Inten    --      9.0449                 3.6537                 2.5428

                     34                     35                     36
                      A                      A                      A
 Frequencies --    813.2216               838.5598               868.4230
 Red. masses --      2.7978                 4.0320                 1.2459
 Frc consts  --      1.0901                 1.6705                 0.5536
 IR Inten    --      0.6369                12.7194                 0.0523

                     37                     38                     39
                      A                      A                      A
 Frequencies --    900.8530               916.5032               954.6806
 Red. masses --      3.0534                 2.8142                 1.4066
 Frc consts  --      1.4600                 1.3928                 0.7553
 IR Inten    --      5.7313                 3.8110                 3.2953

                     40                     41                     42
                      A                      A                      A
 Frequencies --    955.9310               975.9933               984.5304
 Red. masses --      1.3994                 2.4505                 1.3493
 Frc consts  --      0.7534                 1.3753                 0.7706
 IR Inten    --      1.5185                 5.1498                 0.1204

                     43                     44                     45
                      A                      A                      A
 Frequencies --    985.4942              1006.3236              1008.8840
 Red. masses --      1.6474                 4.9532                 1.2743
 Frc consts  --      0.9426                 2.9553                 0.7642
 IR Inten    --      5.3802                24.7644                 0.0993

                     46                     47                     48
                      A                      A                      A
 Frequencies --   1023.5774              1052.9971              1058.0516
 Red. masses --      6.2550                 2.0141                 2.1815
 Frc consts  --      3.8612                 1.3158                 1.4388
 IR Inten    --      4.3665                12.4116                17.3724

                     49                     50                     51
                      A                      A                      A
 Frequencies --   1103.6994              1109.2582              1111.7699
 Red. masses --      2.3139                 1.6165                 1.5325
 Frc consts  --      1.6607                 1.1719                 1.1161
 IR Inten    --     12.8390                14.9279                21.7917

                     52                     53                     54
                      A                      A                      A
 Frequencies --   1124.6111              1138.6261              1169.1064
 Red. masses --      2.1644                 3.1382                 2.4716
 Frc consts  --      1.6128                 2.3971                 1.9904
 IR Inten    --      2.6182               161.8914                42.9024

                     55                     56                     57
                      A                      A                      A
 Frequencies --   1177.9082              1195.3678              1208.3423
 Red. masses --      1.5342                 1.1024                 1.1458
 Frc consts  --      1.2542                 0.9281                 0.9857
 IR Inten    --      4.7553                 0.2351                48.4077

                     58                     59                     60
                      A                      A                      A
 Frequencies --   1224.6217              1262.7800              1300.9410
 Red. masses --      1.3909                 1.3873                 3.5181
 Frc consts  --      1.2290                 1.3034                 3.5081
 IR Inten    --      3.2688                 0.2997               505.2775

                     61                     62                     63
                      A                      A                      A
 Frequencies --   1304.5615              1312.0268              1334.6965
 Red. masses --      1.2242                 1.5350                 1.6048
 Frc consts  --      1.2276                 1.5569                 1.6844
 IR Inten    --      8.1071                12.4434                55.5154

                     64                     65                     66
                      A                      A                      A
 Frequencies --   1343.9390              1352.9428              1359.8926
 Red. masses --      1.6542                 1.4835                 1.4387
 Frc consts  --      1.7603                 1.6000                 1.5676
 IR Inten    --     53.2704                12.7342                12.5989

                     67                     68                     69
                      A                      A                      A
 Frequencies --   1370.7204              1371.2569              1398.2947
 Red. masses --      4.1437                 1.4647                 1.3671
 Frc consts  --      4.5871                 1.6227                 1.5749
 IR Inten    --      2.3883                11.6442                 1.3599

                     70                     71                     72
                      A                      A                      A
 Frequencies --   1403.3069              1408.2764              1426.0110
 Red. masses --      1.5186                 1.3961                 1.4553
 Frc consts  --      1.7620                 1.6313                 1.7436
 IR Inten    --     14.5210                 0.1118                 9.3974

                     73                     74                     75
                      A                      A                      A
 Frequencies --   1433.4866              1437.5838              1499.5326
 Red. masses --      1.3887                 1.5361                 2.2611
 Frc consts  --      1.6813                 1.8705                 2.9955
 IR Inten    --     10.4804                 6.3151                14.7539

                     76                     77                     78
                      A                      A                      A
 Frequencies --   1504.9438              1515.4250              1518.3330
 Red. masses --      1.0881                 1.0886                 1.0954
 Frc consts  --      1.4520                 1.4730                 1.4879
 IR Inten    --      3.7162                 5.0483                 9.9718

                     79                     80                     81
                      A                      A                      A
 Frequencies --   1523.5003              1537.5738              1543.1882
 Red. masses --      1.0909                 1.0911                 2.2430
 Frc consts  --      1.4919                 1.5197                 3.1472
 IR Inten    --     12.0509                 7.4688                 1.1823

                     82                     83                     84
                      A                      A                      A
 Frequencies --   1644.8070              1664.9029              1799.4281
 Red. masses --      5.7723                 5.5944                11.6874
 Frc consts  --      9.2009                 9.1365                22.2966
 IR Inten    --      4.6879                15.1090               186.8404

                     85                     86                     87
                      A                      A                      A
 Frequencies --   2246.0891              3008.8019              3033.0248
 Red. masses --     13.7782                 1.0828                 1.0680
 Frc consts  --     40.9541                 5.7754                 5.7885
 IR Inten    --    378.3528                14.6042                11.2296

                     88                     89                     90
                      A                      A                      A
 Frequencies --   3038.4633              3048.4142              3070.0088
 Red. masses --      1.0677                 1.0623                 1.0619
 Frc consts  --      5.8079                 5.8161                 5.8966
 IR Inten    --     39.1271                25.4879                20.1106

                     91                     92                     93
                      A                      A                      A
 Frequencies --   3083.2653              3086.5629              3096.2751
 Red. masses --      1.0599                 1.0976                 1.0950
 Frc consts  --      5.9365                 6.1608                 6.1851
 IR Inten    --     37.0495                31.3942                28.7175

                     94                     95                     96
                      A                      A                      A
 Frequencies --   3098.4602              3101.7683              3111.0328
 Red. masses --      1.0996                 1.0865                 1.1033
 Frc consts  --      6.2200                 6.1590                 6.2916
 IR Inten    --     28.2952                38.8496                28.4245

                     97                     98                     99
                      A                      A                      A
 Frequencies --   3144.3988              3187.9215              3199.9973
 Red. masses --      1.1070                 1.0858                 1.0900
 Frc consts  --      6.4488                 6.5016                 6.5763
 IR Inten    --     12.0625                 0.2754                16.3952

                    100                    101                    102
                      A                      A                      A
 Frequencies --   3210.5587              3229.4285              3236.8862
 Red. masses --      1.0950                 1.0932                 1.0927
 Frc consts  --      6.6500                 6.7173                 6.7453
 IR Inten    --     26.5456                 5.2794                 3.4389

 - Thermochemistry -
 -------------------
 Temperature   298.150 Kelvin.  Pressure   1.00000 Atm.
 Atom     1 has atomic number  6 and mass  12.00000

 Molecular mass:   259.13208 amu.
 Principal axes and moments of inertia in atomic units:
                           1         2         3
     Eigenvalues --  2002.96949********************
           X            0.99993  -0.01159  -0.00335
           Y            0.01167   0.99964   0.02427
           Z            0.00307  -0.02431   0.99970
 This molecule is an asymmetric top.
 Rotational symmetry number  1.
 Warning -- assumption of classical behavior for rotation
           may cause significant error
 Rotational temperatures (Kelvin)      0.04324     0.00779     0.00750
 Rotational constants (GHZ):           0.90103     0.16238     0.15619
 Zero-point vibrational energy     788619.2 (Joules/Mol)
                                  188.48450 (Kcal/Mol)
 Warning -- explicit consideration of  25 degrees of freedom as
           vibrations may cause significant error
 Vibrational temperatures:     27.94    39.14    48.69    69.09    87.55
          (Kelvin)            112.39   213.67   229.57   268.38   291.68
                              323.55   330.59   422.80   513.39   528.17
                              554.36   599.78   601.29   630.81   650.08
                              693.03   715.40   799.67   823.67   854.94
                              912.30   993.98  1004.96  1034.92  1080.89
                             1135.32  1140.47  1166.99  1170.04  1206.50
                             1249.47  1296.13  1318.64  1373.57  1375.37
                             1404.24  1416.52  1417.91  1447.88  1451.56
                             1472.70  1515.03  1522.30  1587.98  1595.98
                             1599.59  1618.06  1638.23  1682.08  1694.75
                             1719.87  1738.54  1761.96  1816.86  1871.76
                             1876.97  1887.71  1920.33  1933.63  1946.58
                             1956.58  1972.16  1972.93  2011.83  2019.05
                             2026.20  2051.71  2062.47  2068.36  2157.49
                             2165.28  2180.36  2184.54  2191.98  2212.23
                             2220.30  2366.51  2395.42  2588.98  3231.62
                             4328.99  4363.85  4371.67  4385.99  4417.06
                             4436.13  4440.88  4454.85  4457.99  4462.75
                             4476.08  4524.09  4586.71  4604.08  4619.28
                             4646.43  4657.16

 Zero-point correction=                           0.300369 (Hartree/Particle)
 Thermal correction to Energy=                    0.317161
 Thermal correction to Enthalpy=                  0.318105
 Thermal correction to Gibbs Free Energy=         0.252870
 Sum of electronic and zero-point Energies=           -858.163154
 Sum of electronic and thermal Energies=              -858.146363
 Sum of electronic and thermal Enthalpies=            -858.145418
 Sum of electronic and thermal Free Energies=         -858.210654

                     E (Thermal)             CV                S
                      KCal/Mol        Cal/Mol-Kelvin    Cal/Mol-Kelvin
 Total                  199.021             64.191            137.299
 Electronic               0.000              0.000              0.000
 Translational            0.889              2.981             42.556
 Rotational               0.889              2.981             33.908
 Vibrational            197.244             58.230             60.835
 Vibration     1          0.593              1.986              6.693
 Vibration     2          0.593              1.984              6.024
 Vibration     3          0.594              1.983              5.590
 Vibration     4          0.595              1.978              4.897
 Vibration     5          0.597              1.973              4.429
 Vibration     6          0.599              1.964              3.938
 Vibration     7          0.618              1.904              2.691
 Vibration     8          0.621              1.892              2.555
 Vibration     9          0.632              1.858              2.262
 Vibration    10          0.639              1.836              2.108
 Vibration    11          0.650              1.803              1.919
 Vibration    12          0.652              1.796              1.881
 Vibration    13          0.689              1.685              1.452
 Vibration    14          0.732              1.561              1.136
 Vibration    15          0.740              1.540              1.092
 Vibration    16          0.754              1.502              1.018
 Vibration    17          0.780              1.434              0.903
 Vibration    18          0.781              1.431              0.899
 Vibration    19          0.799              1.386              0.832
 Vibration    20          0.810              1.357              0.790
 Vibration    21          0.838              1.291              0.706
 Vibration    22          0.853              1.256              0.665
 Vibration    23          0.911              1.127              0.532
 Vibration    24          0.929              1.091              0.499
 Vibration    25          0.952              1.044              0.460

                           ! Non-Optimized Parameters !
 Normal termination of Gaussian 16 at Mon Dec 14 19:09:53 2020.

 ----------------------------------------------------------------------
 # B3LYP/6-311++G(d,p) empiricaldispersion=gd3bj scf=xqc pop=npa geom=c
 heck
 ----------------------------------------------------------------------

 ---------------------------------------
 CID_150168496_JID_9453_Energie_neutraal
 ---------------------------------------
 Structure from the checkpoint file:  "JID_9453.chk"
 Charge =  0 Multiplicity = 1

 SCF Done:  E(RB3LYP) =  -858.694832224     A.U. after   16 cycles
 Normal termination of Gaussian 16 at Mon Dec 14 19:18:32 2020.

 ----------------------------------------------------------------------
 # B3LYP/6-311++G(d,p) empiricaldispersion=gd3bj scf=xqc pop=npa geom=c
 heck
 ----------------------------------------------------------------------

 -------------------------------------
 CID_150168496_JID_9453_Energie_kation
 -------------------------------------
 Structure from the checkpoint file:  "JID_9453.chk"
 Charge =  1 Multiplicity = 2

 SCF Done:  E(UB3LYP) =  -858.311245470     A.U. after   33 cycles
 SCF Done:  E(UB3LYP) =  -858.377413729     a.u. after   31 cycles
 Normal termination of Gaussian 16 at Mon Dec 14 22:35:03 2020.
 Gaussian 16:  ES64L-G16RevA.03 25-Dec-2016

 ----------------------------------------------------------------------
 # B3LYP/6-311++G(d,p) empiricaldispersion=gd3bj scf=xqc pop=npa geom=c
 heck
 ----------------------------------------------------------------------

 ------------------------------------
 CID_150168496_JID_9453_Energie_anion
 ------------------------------------
 Structure from the checkpoint file:  "JID_9453.chk"
 Charge = -1 Multiplicity = 2

                         Standard orientation:
 ---------------------------------------------------------------------
 Center     Atomic      Atomic             Coordinates (Angstroms)
 Number     Number       Type             X           Y           Z
 ---------------------------------------------------------------------
      1          6           0       -1.299754    0.044790   -0.702120
      2          6           0       -2.352296    0.367139   -1.771525
      3          6           0       -3.776279    0.512512   -1.208503
      4          6           0       -3.808695    1.465099   -0.000644
      5          6           0       -2.747355    1.142133    1.060881
      6          6           0       -1.337719    1.059919    0.451328
      7          6           0       -0.324084    0.734842    1.544666
      8          8           0        1.022572    0.794474    1.031779
      9          6           0        1.644889   -0.382805    0.777742
     10          8           0        1.146873   -1.471585    0.986427
     11          6           0        3.005416   -0.181518    0.209758
     12          6           0        3.761351   -1.321335   -0.092184
     13          6           0        5.038373   -1.188473   -0.629301
     14          6           0        5.565943    0.082885   -0.868194
     15          6           0        4.814090    1.221134   -0.568965
     16          6           0        3.535567    1.092710   -0.030818
     17          7           0       -4.429662   -0.796192   -0.935865
     18          7           0       -3.972880   -1.540183   -0.066651
     19          7           0       -3.682052   -2.339182    0.700088
     20          1           0       -0.308560    0.048862   -1.167765
     21          1           0       -1.442010   -0.965819   -0.303346
     22          1           0       -2.093842    1.321733   -2.251217
     23          1           0       -2.350866   -0.394387   -2.558727
     24          1           0       -4.417905    0.925911   -1.990745
     25          1           0       -4.811815    1.459317    0.439379
     26          1           0       -3.632859    2.480543   -0.381852
     27          1           0       -2.983210    0.194091    1.559515
     28          1           0       -2.774451    1.912764    1.841765
     29          1           0       -1.083539    2.050246    0.042553
     30          1           0       -0.363584    1.481565    2.343176
     31          1           0       -0.500912   -0.258174    1.964310
     32          1           0        3.328662   -2.296707    0.102126
     33          1           0        5.623002   -2.073620   -0.862248
     34          1           0        6.562793    0.186555   -1.287677
     35          1           0        5.225035    2.209169   -0.755111
     36          1           0        2.943970    1.969543    0.204494
 ---------------------------------------------------------------------

 SCF Done:  E(UB3LYP) =  -858.589626308     A.U. after   33 cycles
 SCF Done:  E(UB3LYP) =  -858.700837193     a.u. after   39 cycles

 The electronic state is 2-A.
 Alpha  occ. eigenvalues --  -19.03505 -18.96288 -14.36352 -14.26092 -14.24806
 Alpha  occ. eigenvalues --  -10.14943 -10.12300 -10.11394 -10.08257 -10.07843
 Alpha  occ. eigenvalues --  -10.07804 -10.07651 -10.06386 -10.05344 -10.05257
 Alpha  occ. eigenvalues --  -10.04789 -10.04563 -10.04541 -10.04457  -1.02608
 Alpha  occ. eigenvalues --   -0.97212  -0.88214  -0.86875  -0.74718  -0.73324
 Alpha  occ. eigenvalues --   -0.68402  -0.65606  -0.63950  -0.62494  -0.59955
 Alpha  occ. eigenvalues --   -0.54046  -0.52740  -0.50060  -0.48390  -0.47543
 Alpha  occ. eigenvalues --   -0.44461  -0.42108  -0.41494  -0.40316  -0.39838
 Alpha  occ. eigenvalues --   -0.37856  -0.36711  -0.36030  -0.35122  -0.34246
 Alpha  occ. eigenvalues --   -0.33901  -0.32930  -0.32690  -0.31525  -0.31201
 Alpha  occ. eigenvalues --   -0.30327  -0.29998  -0.28991  -0.28174  -0.27569
 Alpha  occ. eigenvalues --   -0.26080  -0.24505  -0.24158  -0.23498  -0.22826
 Alpha  occ. eigenvalues --   -0.22665  -0.21835  -0.21602  -0.18719  -0.17757
 Alpha  occ. eigenvalues --   -0.14620  -0.14608  -0.13863  -0.13709   0.03895
 Alpha virt. eigenvalues --    0.05265   0.06407   0.07726   0.07799   0.08633
 Alpha virt. eigenvalues --    0.09343   0.09519   0.10149   0.10446   0.10583
 Alpha virt. eigenvalues --    0.11026   0.11942   0.11994   0.12275   0.12534

  Beta  occ. eigenvalues --  -19.03452 -18.96058 -14.36204 -14.25912 -14.24831
  Beta  occ. eigenvalues --  -10.14734 -10.12257 -10.11396 -10.08245 -10.07835
  Beta  occ. eigenvalues --  -10.07802 -10.07645 -10.06385 -10.05386 -10.05296
  Beta  occ. eigenvalues --  -10.04673 -10.04424 -10.04309 -10.04286  -1.02326
  Beta  occ. eigenvalues --   -0.96985  -0.87867  -0.86737  -0.74680  -0.73040
  Beta  occ. eigenvalues --   -0.68326  -0.65584  -0.63537  -0.62269  -0.59817
  Beta  occ. eigenvalues --   -0.53859  -0.52722  -0.49609  -0.48304  -0.47442
  Beta  occ. eigenvalues --   -0.44303  -0.41924  -0.41276  -0.40205  -0.39612
  Beta  occ. eigenvalues --   -0.37619  -0.36562  -0.35740  -0.34969  -0.34175
  Beta  occ. eigenvalues --   -0.33537  -0.32751  -0.32368  -0.31302  -0.31058
  Beta  occ. eigenvalues --   -0.30277  -0.29815  -0.28957  -0.27926  -0.27209
  Beta  occ. eigenvalues --   -0.26064  -0.24256  -0.23782  -0.23278  -0.22630
  Beta  occ. eigenvalues --   -0.22494  -0.21758  -0.21554  -0.18344  -0.17106
  Beta  occ. eigenvalues --   -0.14567  -0.14369  -0.13184  -0.12400
  Beta virt. eigenvalues --    0.06038   0.07263   0.07757   0.07986   0.08576
  Beta virt. eigenvalues --    0.08780   0.09312   0.09535   0.10255   0.10427
  Beta virt. eigenvalues --    0.10805   0.11037   0.11927   0.11991   0.12274

 Mulliken charges and spin densities:
               1          2
     1  C    0.030899   0.021802
     2  C   -0.690798  -0.492385
     3  C    0.052559   0.310148
     4  C   -0.142945  -0.852828
     5  C   -0.423626   0.290295
     6  C    0.705666  -0.096746
     7  C   -0.566558   0.019128
     8  O    0.071366   0.008775
     9  C   -0.745981   0.044645
    10  O   -0.283912   0.084036
    11  C    0.836281   0.094540
    12  C   -0.131330   0.141736
    13  C   -0.422774  -0.019640
    14  C   -0.370354   0.210859
    15  C   -0.349355  -0.036322
    16  C   -0.166875   0.123861
    17  N   -0.588425   0.007926
    18  N    0.740783   0.051314
    19  N   -0.223989   0.029808
    20  H    0.202464  -0.032313
    21  H    0.165227   0.020988
    22  H    0.096276   0.032041
    23  H    0.100018   0.096528
    24  H   -0.319399   0.575373
    25  H   -0.027713   0.223169
    26  H    0.068416   0.048413
    27  H    0.132752  -0.006524
    28  H    0.098250   0.057101
    29  H    0.131875   0.049873
    30  H    0.114833   0.020073
    31  H    0.223986  -0.006134
    32  H    0.180770  -0.006577
    33  H    0.125175   0.001788
    34  H    0.103460  -0.017598
    35  H    0.127676   0.003324
    36  H    0.145306  -0.000479
 Sum of Mulliken charges =  -1.00000   1.00000

 Dipole moment (field-independent basis, Debye):
    X=             -0.7301    Y=              3.8064    Z=              0.2288  Tot=              3.8825
 Quadrupole moment (field-independent basis, Debye-Ang):
   XX=           -200.7362   YY=           -135.7038   ZZ=           -130.3773
   XY=             -5.2263   XZ=             -6.8349   YZ=              5.4180

 Summary of Natural Population Analysis:

                                       Natural Population
                Natural  -----------------------------------------------
    Atom  No    Charge         Core      Valence    Rydberg      Total
 -----------------------------------------------------------------------
      C    1   -0.19914      0.99961     2.18970    0.00983     3.19914
      C    2   -0.19430      0.99960     2.18565    0.00905     3.19430
      C    3   -0.01268      0.99954     1.99861    0.01453     3.01268
      C    4   -0.19432      0.99961     2.18549    0.00923     3.19432
      C    5   -0.19493      0.99961     2.18593    0.00939     3.19493
      C    6   -0.12078      0.99959     2.11035    0.01085     3.12078
      C    7   -0.01061      0.99952     2.00085    0.01023     3.01061
      O    8   -0.28686      0.99986     3.27880    0.00820     4.28686
      C    9    0.42413      0.99963     1.55290    0.02334     2.57587
      O   10   -0.29969      0.99987     3.29488    0.00494     4.29969
      C   11   -0.05584      0.99945     2.04701    0.00937     3.05584
      C   12   -0.05859      0.99954     2.05037    0.00868     3.05859
      C   13   -0.12280      0.99958     2.11384    0.00939     3.12280
      C   14   -0.05258      0.99958     2.04344    0.00957     3.05258
      C   15   -0.12394      0.99958     2.11491    0.00946     3.12394
      C   16   -0.06379      0.99954     2.05601    0.00823     3.06379
      N   17   -0.19183      0.99969     2.67729    0.01485     3.69183
      N   18    0.12230      0.99970     2.36233    0.01567     3.37770
      N   19   -0.03930      0.99982     2.52669    0.01279     3.53930
      H   20    0.10899      0.00000     0.39009    0.00092     0.39101
      H   21    0.10550      0.00000     0.39260    0.00189     0.39450
      H   22    0.09670      0.00000     0.40219    0.00111     0.40330
      H   23    0.10455      0.00000     0.39456    0.00088     0.39545
      H   24    0.10109      0.00000     0.39744    0.00147     0.39891
      H   25    0.10336      0.00000     0.39563    0.00100     0.39664
      H   26    0.09742      0.00000     0.40147    0.00111     0.40258
      H   27    0.10045      0.00000     0.39825    0.00130     0.39955
      H   28    0.09806      0.00000     0.40100    0.00094     0.40194
      H   29    0.09180      0.00000     0.40613    0.00206     0.40820
      H   30    0.08495      0.00000     0.41411    0.00094     0.41505
      H   31    0.10236      0.00000     0.39645    0.00120     0.39764
      H   32    0.10601      0.00000     0.39295    0.00103     0.39399
      H   33    0.09225      0.00000     0.40672    0.00102     0.40775
      H   34    0.08781      0.00000     0.41119    0.00101     0.41219
      H   35    0.09183      0.00000     0.40713    0.00105     0.40817
      H   36    0.10242      0.00000     0.39666    0.00092     0.39758
 =======================================================================
   * Total *    0.00000     18.99293    49.77962    0.22746    69.00000

 Normal termination of Gaussian 16 at Tue Dec 15 01:14:14 2020.
