 Gaussian 16, Revision A.03,

 -----------------------------------------------------------
 # opt freq B3LYP/6-31G(d) empiricaldispersion=gd3bj scf=xqc
 -----------------------------------------------------------

 -------------------------------
 CID_130005500_JID_2380_neutraal
 -------------------------------
 Symbolic Z-matrix:
 Charge =  0 Multiplicity = 1

 SCF Done:  E(RB3LYP) =  -593.164523731     A.U. after   15 cycles
 SCF Done:  E(RB3LYP) =  -593.167602409     A.U. after   12 cycles
 SCF Done:  E(RB3LYP) =  -593.167547784     A.U. after   12 cycles
 SCF Done:  E(RB3LYP) =  -593.168052487     A.U. after   12 cycles
 SCF Done:  E(RB3LYP) =  -593.168212787     A.U. after   11 cycles
 SCF Done:  E(RB3LYP) =  -593.168214872     A.U. after   12 cycles
 SCF Done:  E(RB3LYP) =  -593.168276072     A.U. after   10 cycles
 SCF Done:  E(RB3LYP) =  -593.168277825     A.U. after    9 cycles
 SCF Done:  E(RB3LYP) =  -593.168278237     A.U. after    8 cycles
 Optimization completed.
    -- Stationary point found.
 Normal termination of Gaussian 16 at Wed Dec  9 17:14:04 2020.

 --------------------------------------------------------------------
 #N Geom=AllCheck Guess=TCheck SCRF=Check GenChk RB3LYP/6-31G(d) Freq
 --------------------------------------------------------------------

 Structure from the checkpoint file:  "JID_2380.chk"
 -------------------------------
 CID_130005500_JID_2380_neutraal
 -------------------------------
 Charge =  0 Multiplicity = 1

 SCF Done:  E(RB3LYP) =  -593.168278237     A.U. after    1 cycles

  Exact polarizability: 113.440  -3.704  85.468  -1.482   5.755  83.322
 Approx polarizability: 154.135  -4.263 126.120   0.322  12.310 126.965

                      1                      2                      3
                      A                      A                      A
 Frequencies --     55.7749                65.2990                84.3785
 Red. masses --      4.6235                 5.4089                 4.4847
 Frc consts  --      0.0085                 0.0136                 0.0188
 IR Inten    --      0.0545                 1.7720                 2.9809

                      4                      5                      6
                      A                      A                      A
 Frequencies --    154.8585               185.3898               196.2172
 Red. masses --      3.7625                 3.4842                 1.0385
 Frc consts  --      0.0532                 0.0706                 0.0236
 IR Inten    --      3.2107                 1.1869                 0.7091

                      7                      8                      9
                      A                      A                      A
 Frequencies --    200.6202               222.0518               257.3152
 Red. masses --      1.3148                 2.5428                 1.1939
 Frc consts  --      0.0312                 0.0739                 0.0466
 IR Inten    --      0.8482                 3.6912                 0.4654

                     10                     11                     12
                      A                      A                      A
 Frequencies --    285.2085               309.7309               335.7466
 Red. masses --      4.0271                 2.1604                 3.3254
 Frc consts  --      0.1930                 0.1221                 0.2209
 IR Inten    --      3.7197                 1.7915                 0.9241

                     13                     14                     15
                      A                      A                      A
 Frequencies --    364.9613               433.6734               476.8716
 Red. masses --      2.5532                 2.8635                 2.4695
 Frc consts  --      0.2004                 0.3173                 0.3309
 IR Inten    --      0.7786                 4.7975                12.2798

                     16                     17                     18
                      A                      A                      A
 Frequencies --    519.1164               541.0853               578.0723
 Red. masses --      3.3885                 1.8976                 4.1682
 Frc consts  --      0.5380                 0.3273                 0.8207
 IR Inten    --     13.0618                26.6912                 1.8410

                     19                     20                     21
                      A                      A                      A
 Frequencies --    585.7083               642.3530               690.9769
 Red. masses --      4.2817                 1.7929                 7.4009
 Frc consts  --      0.8654                 0.4359                 2.0819
 IR Inten    --     12.6661                78.6329                 7.5051

                     22                     23                     24
                      A                      A                      A
 Frequencies --    735.5084               840.4924               855.9578
 Red. masses --      5.1692                 3.1564                 3.7702
 Frc consts  --      1.6476                 1.3137                 1.6275
 IR Inten    --      6.6785                 1.4259                 1.7584

                     25                     26                     27
                      A                      A                      A
 Frequencies --    888.7867               950.1256               953.2603
 Red. masses --      5.5618                 1.9004                 2.1308
 Frc consts  --      2.5886                 1.0108                 1.1408
 IR Inten    --      8.3791                 1.3503                 3.1252

                     28                     29                     30
                      A                      A                      A
 Frequencies --    979.7816              1005.2324              1043.6685
 Red. masses --      1.3975                 1.4850                 1.6059
 Frc consts  --      0.7904                 0.8841                 1.0306
 IR Inten    --      2.2760                 1.7070                31.4025

                     31                     32                     33
                      A                      A                      A
 Frequencies --   1048.8766              1063.7486              1075.2751
 Red. masses --      2.0256                 2.9951                 1.7260
 Frc consts  --      1.3130                 1.9968                 1.1758
 IR Inten    --     36.6156                51.4384                10.7436

                     34                     35                     36
                      A                      A                      A
 Frequencies --   1150.2997              1177.2599              1213.8082
 Red. masses --      3.4700                 3.1380                 1.8599
 Frc consts  --      2.7052                 2.5624                 1.6145
 IR Inten    --     39.9719               151.4714                32.7015

                     37                     38                     39
                      A                      A                      A
 Frequencies --   1221.7321              1267.4369              1294.9307
 Red. masses --      1.4158                 2.8964                 1.9418
 Frc consts  --      1.2451                 2.7413                 1.9185
 IR Inten    --      6.8061                 2.9009                25.2796

                     40                     41                     42
                      A                      A                      A
 Frequencies --   1307.6237              1346.0701              1358.3757
 Red. masses --      2.0319                 2.0427                 1.5394
 Frc consts  --      2.0470                 2.1807                 1.6736
 IR Inten    --     17.9371               150.9052                64.2121

                     43                     44                     45
                      A                      A                      A
 Frequencies --   1409.3992              1427.6681              1436.8051
 Red. masses --      1.5053                 1.4519                 1.2481
 Frc consts  --      1.7617                 1.7436                 1.5181
 IR Inten    --     17.1266                72.1053                 6.7530

                     46                     47                     48
                      A                      A                      A
 Frequencies --   1459.6876              1490.1309              1509.8350
 Red. masses --      1.2241                 1.5442                 1.0522
 Frc consts  --      1.5367                 2.0202                 1.4132
 IR Inten    --      5.1713                48.0501                 9.9548

                     49                     50                     51
                      A                      A                      A
 Frequencies --   1513.6816              1519.2500              1520.1162
 Red. masses --      1.0458                 1.0540                 1.0502
 Frc consts  --      1.4117                 1.4333                 1.4299
 IR Inten    --      1.1541                12.5607                 4.0750

                     52                     53                     54
                      A                      A                      A
 Frequencies --   1536.2061              1539.5842              1551.7215
 Red. masses --      1.0667                 1.0589                 1.0870
 Frc consts  --      1.4832                 1.4788                 1.5422
 IR Inten    --     12.4305                 9.7596                 1.8766

                     55                     56                     57
                      A                      A                      A
 Frequencies --   1807.0502              1880.0955              3051.5458
 Red. masses --      8.1719                12.5441                 1.0356
 Frc consts  --     15.7223                26.1246                 5.6818
 IR Inten    --    360.3136               321.4235                22.3569

                     58                     59                     60
                      A                      A                      A
 Frequencies --   3053.8303              3058.9991              3060.1299
 Red. masses --      1.0605                 1.0408                 1.0424
 Frc consts  --      5.8269                 5.7382                 5.7513
 IR Inten    --     19.5029                 6.5792                27.6770

                     61                     62                     63
                      A                      A                      A
 Frequencies --   3120.8579              3122.7570              3125.3620
 Red. masses --      1.1022                 1.1027                 1.1018
 Frc consts  --      6.3251                 6.3354                 6.3410
 IR Inten    --      3.1044                21.8780                18.2969

                     64                     65                     66
                      A                      A                      A
 Frequencies --   3127.8596              3132.9285              3136.4903
 Red. masses --      1.0978                 1.1009                 1.0991
 Frc consts  --      6.3283                 6.3663                 6.3703
 IR Inten    --      4.6289                35.5135                18.5852

                     67                     68                     69
                      A                      A                      A
 Frequencies --   3138.4224              3183.2525              3584.0908
 Red. masses --      1.0893                 1.1016                 1.0754
 Frc consts  --      6.3213                 6.5768                 8.1389
 IR Inten    --     19.5687                 6.5051                10.1288

 - Thermochemistry -
 -------------------
 Temperature   298.150 Kelvin.  Pressure   1.00000 Atm.
 Atom     1 has atomic number  6 and mass  12.00000

 Molecular mass:   171.08954 amu.
 Principal axes and moments of inertia in atomic units:
                           1         2         3
     Eigenvalues --  1323.430852531.025523045.33147
           X            0.99895  -0.04397  -0.01301
           Y            0.04413   0.99896   0.01190
           Z            0.01247  -0.01246   0.99984
 This molecule is an asymmetric top.
 Rotational symmetry number  1.
 Warning -- assumption of classical behavior for rotation
           may cause significant error
 Rotational temperatures (Kelvin)      0.06545     0.03422     0.02844
 Rotational constants (GHZ):           1.36368     0.71305     0.59263
 Zero-point vibrational energy     553042.1 (Joules/Mol)
                                  132.18023 (Kcal/Mol)
 Warning -- explicit consideration of  19 degrees of freedom as
           vibrations may cause significant error
 Vibrational temperatures:     80.25    93.95   121.40   222.81   266.73
          (Kelvin)            282.31   288.65   319.48   370.22   410.35
                              445.63   483.06   525.10   623.96   686.11
                              746.89   778.50   831.72   842.70   924.20
                              994.16  1058.23  1209.28  1231.53  1278.77
                             1367.02  1371.53  1409.69  1446.31  1501.61
                             1509.10  1530.50  1547.08  1655.02  1693.81
                             1746.40  1757.80  1823.56  1863.12  1881.38
                             1936.69  1954.40  2027.81  2054.10  2067.24
                             2100.16  2143.97  2172.32  2177.85  2185.86
                             2187.11  2210.26  2215.12  2232.58  2599.94
                             2705.04  4390.49  4393.78  4401.22  4402.84
                             4490.22  4492.95  4496.70  4500.29  4507.59
                             4512.71  4515.49  4579.99  5156.71

 Zero-point correction=                           0.210643 (Hartree/Particle)
 Thermal correction to Energy=                    0.223061
 Thermal correction to Enthalpy=                  0.224005
 Thermal correction to Gibbs Free Energy=         0.172201
 Sum of electronic and zero-point Energies=           -592.957636
 Sum of electronic and thermal Energies=              -592.945217
 Sum of electronic and thermal Enthalpies=            -592.944273
 Sum of electronic and thermal Free Energies=         -592.996078

                     E (Thermal)             CV                S
                      KCal/Mol        Cal/Mol-Kelvin    Cal/Mol-Kelvin
 Total                  139.973             46.239            109.032
 Electronic               0.000              0.000              0.000
 Translational            0.889              2.981             41.319
 Rotational               0.889              2.981             30.701
 Vibrational            138.196             40.278             37.012
 Vibration     1          0.596              1.975              4.601
 Vibration     2          0.597              1.971              4.290
 Vibration     3          0.601              1.960              3.786
 Vibration     4          0.620              1.897              2.612
 Vibration     5          0.631              1.860              2.273
 Vibration     6          0.636              1.845              2.168
 Vibration     7          0.638              1.839              2.127
 Vibration     8          0.648              1.807              1.942
 Vibration     9          0.667              1.750              1.680
 Vibration    10          0.683              1.701              1.502
 Vibration    11          0.699              1.655              1.364
 Vibration    12          0.717              1.604              1.232
 Vibration    13          0.738              1.544              1.101
 Vibration    14          0.794              1.397              0.847
 Vibration    15          0.833              1.301              0.719
 Vibration    16          0.874              1.208              0.612
 Vibration    17          0.896              1.159              0.563
 Vibration    18          0.935              1.079              0.489
 Vibration    19          0.943              1.062              0.475

                           ! Non-Optimized Parameters !
 Normal termination of Gaussian 16 at Wed Dec  9 17:20:01 2020.

 ----------------------------------------------------------------------
 # B3LYP/6-311++G(d,p) empiricaldispersion=gd3bj scf=xqc pop=npa geom=c
 heck
 ----------------------------------------------------------------------

 ---------------------------------------
 CID_130005500_JID_2380_Energie_neutraal
 ---------------------------------------
 Structure from the checkpoint file:  "JID_2380.chk"
 Charge =  0 Multiplicity = 1

 SCF Done:  E(RB3LYP) =  -593.346132101     A.U. after   14 cycles
 Normal termination of Gaussian 16 at Wed Dec  9 17:22:33 2020.

 ----------------------------------------------------------------------
 # B3LYP/6-311++G(d,p) empiricaldispersion=gd3bj scf=xqc pop=npa geom=c
 heck
 ----------------------------------------------------------------------

 -------------------------------------
 CID_130005500_JID_2380_Energie_kation
 -------------------------------------
 Structure from the checkpoint file:  "JID_2380.chk"
 Charge =  1 Multiplicity = 2

 SCF Done:  E(UB3LYP) =  -593.010885780     A.U. after   25 cycles
 Normal termination of Gaussian 16 at Wed Dec  9 17:27:15 2020.
 Gaussian 16:  ES64L-G16RevA.03 25-Dec-2016

 ----------------------------------------------------------------------
 # B3LYP/6-311++G(d,p) empiricaldispersion=gd3bj scf=xqc pop=npa geom=c
 heck
 ----------------------------------------------------------------------

 ------------------------------------
 CID_130005500_JID_2380_Energie_anion
 ------------------------------------
 Structure from the checkpoint file:  "JID_2380.chk"
 Charge = -1 Multiplicity = 2

                         Standard orientation:
 ---------------------------------------------------------------------
 Center     Atomic      Atomic             Coordinates (Angstroms)
 Number     Number       Type             X           Y           Z
 ---------------------------------------------------------------------
      1          6           0       -2.739757    0.161963    1.171370
      2          6           0       -2.327313   -0.484998   -0.136244
      3          8           0       -3.126037   -0.873796   -0.973286
      4          7           0       -0.968130   -0.654007   -0.347100
      5          6           0        0.102789   -0.016903    0.401494
      6          6           0        0.308127    1.430096   -0.091354
      7          8           0       -0.357568    2.399185    0.165319
      8          8           0        1.370961    1.467157   -0.941097
      9          6           0        1.950995    0.153649   -1.075906
     10          6           0        1.495059   -0.645217    0.164556
     11          6           0        1.498491   -2.154603   -0.073125
     12          6           0        2.397309   -0.291493    1.359981
     13          1           0       -3.829004    0.174962    1.211316
     14          1           0       -2.353195    1.184429    1.230806
     15          1           0       -2.355409   -0.398377    2.032094
     16          1           0       -0.765872   -0.962633   -1.290982
     17          1           0       -0.167396   -0.007109    1.457908
     18          1           0        1.591875   -0.290575   -2.012744
     19          1           0        3.034928    0.274676   -1.137525
     20          1           0        2.519964   -2.503361   -0.263297
     21          1           0        1.120392   -2.685420    0.806427
     22          1           0        0.880453   -2.446384   -0.926912
     23          1           0        2.038447   -0.779973    2.272193
     24          1           0        3.424016   -0.626347    1.177226
     25          1           0        2.424658    0.788824    1.541073
 ---------------------------------------------------------------------

 SCF Done:  E(UB3LYP) =  -593.340592422     A.U. after   32 cycles

 The electronic state is 2-A.
 Alpha  occ. eigenvalues --  -19.07527 -19.02139 -18.99863 -14.24665 -10.20565
 Alpha  occ. eigenvalues --  -10.18530 -10.13573 -10.13535 -10.10777 -10.07970
 Alpha  occ. eigenvalues --  -10.06907 -10.06623  -1.01568  -0.94997  -0.93935
 Alpha  occ. eigenvalues --   -0.83904  -0.73451  -0.65167  -0.63831  -0.60833
 Alpha  occ. eigenvalues --   -0.59889  -0.50435  -0.49442  -0.46285  -0.43439
 Alpha  occ. eigenvalues --   -0.40822  -0.39194  -0.38190  -0.37466  -0.35475
 Alpha  occ. eigenvalues --   -0.34218  -0.32910  -0.32022  -0.31461  -0.31019
 Alpha  occ. eigenvalues --   -0.30061  -0.29324  -0.28617  -0.27635  -0.26482
 Alpha  occ. eigenvalues --   -0.25102  -0.24194  -0.21010  -0.20370  -0.16914
 Alpha  occ. eigenvalues --   -0.15656   0.04065
 Alpha virt. eigenvalues --    0.06927   0.07272   0.08167   0.08602   0.09301
 Alpha virt. eigenvalues --    0.10087   0.10842   0.11135   0.11279   0.12161
 Alpha virt. eigenvalues --    0.12471   0.13465   0.13747   0.14533   0.14888

  Beta  occ. eigenvalues --  -19.07519 -19.02110 -18.99859 -14.24639 -10.20521
  Beta  occ. eigenvalues --  -10.18529 -10.13561 -10.13488 -10.10776 -10.07945
  Beta  occ. eigenvalues --  -10.06858 -10.06563  -1.01524  -0.94988  -0.93892
  Beta  occ. eigenvalues --   -0.83869  -0.73420  -0.65122  -0.63752  -0.60750
  Beta  occ. eigenvalues --   -0.59795  -0.50385  -0.49382  -0.46176  -0.43376
  Beta  occ. eigenvalues --   -0.40747  -0.39129  -0.38147  -0.37409  -0.35433
  Beta  occ. eigenvalues --   -0.34176  -0.32861  -0.31938  -0.31395  -0.30984
  Beta  occ. eigenvalues --   -0.30017  -0.29272  -0.28551  -0.27607  -0.26433
  Beta  occ. eigenvalues --   -0.25042  -0.24140  -0.20925  -0.20336  -0.16904
  Beta  occ. eigenvalues --   -0.15628
  Beta virt. eigenvalues --    0.06799   0.07855   0.07968   0.08836   0.09223
  Beta virt. eigenvalues --    0.10102   0.10565   0.11148   0.11537   0.11894
  Beta virt. eigenvalues --    0.12599   0.12775   0.13827   0.13988   0.14810

 Mulliken charges and spin densities:
               1          2
     1  C    0.081751  -0.549397
     2  C    0.103941   0.062457
     3  O   -0.332215  -0.005412
     4  N   -0.028478   0.040848
     5  C    1.373598  -1.855644
     6  C    0.142283  -0.039828
     7  O   -0.313109   0.009075
     8  O   -0.087989   0.041573
     9  C    1.085125  -1.551042
    10  C   -3.577934   3.915678
    11  C    1.423311  -1.856862
    12  C    1.363516  -1.954402
    13  H    0.172985   0.019266
    14  H    0.098820   0.086421
    15  H   -0.266994   0.420296
    16  H    0.225614   0.074826
    17  H    0.142226   0.140197
    18  H   -0.307828   0.506649
    19  H   -0.386398   0.605282
    20  H   -0.551985   0.724262
    21  H   -0.257148   0.438057
    22  H   -0.266757   0.387127
    23  H   -0.428592   0.587598
    24  H   -0.353292   0.519308
    25  H   -0.054450   0.233669
 Sum of Mulliken charges =  -1.00000   1.00000

 Dipole moment (field-independent basis, Debye):
    X=             -3.1077    Y=              2.9384    Z=              0.1104  Tot=              4.2783
 Quadrupole moment (field-independent basis, Debye-Ang):
   XX=           -133.4582   YY=           -117.7192   ZZ=           -109.6642
   XY=              5.4217   XZ=             -4.5126   YZ=              1.5571

 Summary of Natural Population Analysis:

                                       Natural Population
                Natural  -----------------------------------------------
    Atom  No    Charge         Core      Valence    Rydberg      Total
 -----------------------------------------------------------------------
      C    1   -0.34089      0.99962     2.33643    0.00483     3.34089
      C    2    0.34935      0.99970     1.62833    0.02262     2.65065
      O    3   -0.31751      0.99987     3.31192    0.00571     4.31751
      N    4   -0.32163      0.99967     2.81196    0.01000     3.82163
      C    5   -0.05624      0.99949     2.04181    0.01494     3.05624
      C    6    0.41022      0.99967     1.56344    0.02667     2.58978
      O    7   -0.29246      0.99986     3.28649    0.00610     4.29246
      O    8   -0.27336      0.99986     3.26597    0.00752     4.27336
      C    9   -0.00723      0.99952     1.99426    0.01346     3.00723
      C   10   -0.05994      0.99958     2.04559    0.01476     3.05994
      C   11   -0.28671      0.99962     2.27885    0.00825     3.28671
      C   12   -0.28394      0.99962     2.27675    0.00757     3.28394
      H   13    0.11068      0.00000     0.38858    0.00074     0.38932
      H   14    0.12062      0.00000     0.37835    0.00103     0.37938
      H   15    0.11073      0.00000     0.38810    0.00117     0.38927
      H   16    0.19696      0.00000     0.30030    0.00274     0.30304
      H   17    0.11697      0.00000     0.38068    0.00235     0.38303
      H   18    0.09085      0.00000     0.40710    0.00204     0.40915
      H   19    0.09958      0.00000     0.39848    0.00194     0.40042
      H   20    0.10837      0.00000     0.38888    0.00275     0.39163
      H   21    0.10856      0.00000     0.38953    0.00191     0.39144
      H   22    0.10247      0.00000     0.39567    0.00187     0.39753
      H   23    0.10647      0.00000     0.39164    0.00190     0.39353
      H   24    0.10717      0.00000     0.39118    0.00164     0.39283
      H   25    0.10088      0.00000     0.39751    0.00162     0.39912
 =======================================================================
   * Total *    0.00000     11.99607    33.83780    0.16613    46.00000

 Normal termination of Gaussian 16 at Wed Dec  9 17:33:22 2020.
