 Gaussian 16, Revision A.03,

 -----------------------------------------------------------
 # opt freq B3LYP/6-31G(d) empiricaldispersion=gd3bj scf=xqc
 -----------------------------------------------------------

 ------------------------------
 CID_130144096_JID_629_neutraal
 ------------------------------
 Symbolic Z-matrix:
 Charge =  0 Multiplicity = 1

 SCF Done:  E(RB3LYP) =  -499.633826994     A.U. after   14 cycles
 SCF Done:  E(RB3LYP) =  -499.636922270     A.U. after   13 cycles
 SCF Done:  E(RB3LYP) =  -499.634652228     A.U. after   13 cycles
 SCF Done:  E(RB3LYP) =  -499.635795561     A.U. after   13 cycles
 SCF Done:  E(RB3LYP) =  -499.637572771     A.U. after   10 cycles
 SCF Done:  E(RB3LYP) =  -499.638109886     A.U. after   12 cycles
 SCF Done:  E(RB3LYP) =  -499.638209583     A.U. after   13 cycles
 SCF Done:  E(RB3LYP) =  -499.638302881     A.U. after   13 cycles
 SCF Done:  E(RB3LYP) =  -499.638514166     A.U. after   12 cycles
 SCF Done:  E(RB3LYP) =  -499.638529179     A.U. after   12 cycles
 SCF Done:  E(RB3LYP) =  -499.638537938     A.U. after    9 cycles
 SCF Done:  E(RB3LYP) =  -499.638541021     A.U. after   10 cycles
 SCF Done:  E(RB3LYP) =  -499.638541807     A.U. after    9 cycles
 SCF Done:  E(RB3LYP) =  -499.638542423     A.U. after    8 cycles
 SCF Done:  E(RB3LYP) =  -499.638542687     A.U. after    8 cycles
 Optimization completed.
    -- Stationary point found.

 1\1\GINC-NODE315\FOpt\RB3LYP\6-31G(d)\C7H12O3\VSC10255\08-Dec-2020\0\\
 # opt freq B3LYP/6-31G(d) empiricaldispersion=gd3bj scf=xqc\\CID_13014
 4096_JID_629_neutraal\\0,1\C,1.0157848217,0.0366180614,-0.0101998253\C
 ,0.505416954,-1.011963196,0.9891235201\C,1.2721993194,-0.8768800628,2.
 3113981206\C,-1.0274330156,-0.9104405301,1.1367809099\C,-1.7372780783,
 -1.2950181867,-0.1685304188\O,-1.2253888043,-1.9596775797,-1.040368177
 \C,-1.6378336035,-1.8284344896,2.2525323572\C,-1.7142822739,-1.0840576
 726,3.5760191258\O,-2.7850541043,-0.9001164723,4.1203326811\O,-2.92879

 Normal termination of Gaussian 16 at Tue Dec  8 13:17:20 2020.

 --------------------------------------------------------------------
 #N Geom=AllCheck Guess=TCheck SCRF=Check GenChk RB3LYP/6-31G(d) Freq
 --------------------------------------------------------------------

 Structure from the checkpoint file:  "JID_629.chk"
 ------------------------------
 CID_130144096_JID_629_neutraal
 ------------------------------
 Charge =  0 Multiplicity = 1

 SCF Done:  E(RB3LYP) =  -499.638542687     A.U. after    1 cycles

  Exact polarizability:  93.798  -0.100  82.928  -6.381   1.469  64.378
 Approx polarizability: 132.389   3.671 113.741 -18.542  -2.811 102.162

                      1                      2                      3
                      A                      A                      A
 Frequencies --     51.3635                67.4491                86.4303
 Red. masses --      5.5091                 4.2746                 4.8543
 Frc consts  --      0.0086                 0.0115                 0.0214
 IR Inten    --      0.5412                 1.6463                 3.2296

                      4                      5                      6
                      A                      A                      A
 Frequencies --    109.1053               192.2873               224.8329
 Red. masses --      2.9704                 4.1023                 1.1536
 Frc consts  --      0.0208                 0.0894                 0.0344
 IR Inten    --      2.4733                 3.0207                 0.9227

                      7                      8                      9
                      A                      A                      A
 Frequencies --    248.8541               271.7839               303.1857
 Red. masses --      3.2955                 2.4558                 1.3902
 Frc consts  --      0.1202                 0.1069                 0.0753
 IR Inten    --     12.9773                 1.6384                 0.2793

                     10                     11                     12
                      A                      A                      A
 Frequencies --    332.7684               347.2627               358.9970
 Red. masses --      3.3999                 2.0126                 5.0921
 Frc consts  --      0.2218                 0.1430                 0.3867
 IR Inten    --     12.8951                 0.2317                19.3908

                     13                     14                     15
                      A                      A                      A
 Frequencies --    392.1597               432.4463               451.3254
 Red. masses --      3.0454                 2.0368                 1.5274
 Frc consts  --      0.2759                 0.2244                 0.1833
 IR Inten    --      3.3518                14.5699                51.1651

                     16                     17                     18
                      A                      A                      A
 Frequencies --    522.4276               691.1850               758.0055
 Red. masses --      1.8369                 4.5916                 3.2759
 Frc consts  --      0.2954                 1.2924                 1.1090
 IR Inten    --      9.9210                16.5411                 7.6105

                     19                     20                     21
                      A                      A                      A
 Frequencies --    807.8403               861.9827               906.4318
 Red. masses --      2.8080                 2.9791                 2.2916
 Frc consts  --      1.0797                 1.3042                 1.1093
 IR Inten    --      6.5087                27.2836                26.7256

                     22                     23                     24
                      A                      A                      A
 Frequencies --    945.2754               947.5133               976.9856
 Red. masses --      1.1760                 1.6691                 1.5458
 Frc consts  --      0.6191                 0.8829                 0.8693
 IR Inten    --      1.8386                 0.7035                 3.2859

                     25                     26                     27
                      A                      A                      A
 Frequencies --    997.8827              1016.3934              1058.4202
 Red. masses --      1.6674                 2.7869                 2.7324
 Frc consts  --      0.9783                 1.6963                 1.8035
 IR Inten    --     13.8473                14.5043                16.4917

                     28                     29                     30
                      A                      A                      A
 Frequencies --   1147.2115              1155.3284              1186.3688
 Red. masses --      2.5059                 2.1581                 2.5721
 Frc consts  --      1.9432                 1.6972                 2.1330
 IR Inten    --     29.0390                 1.1701                38.1232

                     31                     32                     33
                      A                      A                      A
 Frequencies --   1209.3777              1253.5728              1299.2121
 Red. masses --      1.7380                 1.4697                 1.3135
 Frc consts  --      1.4977                 1.3607                 1.3063
 IR Inten    --      9.0754                14.6311                25.8377

                     34                     35                     36
                      A                      A                      A
 Frequencies --   1311.3409              1362.6853              1365.6771
 Red. masses --      1.4103                 1.2191                 1.3555
 Frc consts  --      1.4289                 1.3338                 1.4895
 IR Inten    --      7.2857                 7.2634                 1.7517

                     37                     38                     39
                      A                      A                      A
 Frequencies --   1400.8448              1412.1626              1430.9541
 Red. masses --      1.3889                 1.2038                 1.2460
 Frc consts  --      1.6058                 1.4144                 1.5032
 IR Inten    --      3.9902                51.1263                 4.9460

                     40                     41                     42
                      A                      A                      A
 Frequencies --   1434.3862              1451.3849              1459.9847
 Red. masses --      1.2005                 1.2299                 1.3113
 Frc consts  --      1.4553                 1.5265                 1.6468
 IR Inten    --      9.9477                 1.6894                73.0837

                     43                     44                     45
                      A                      A                      A
 Frequencies --   1519.6450              1530.5621              1538.2830
 Red. masses --      1.0502                 1.0438                 1.0577
 Frc consts  --      1.4289                 1.4407                 1.4747
 IR Inten    --      1.2953                 4.1658                 2.1384

                     46                     47                     48
                      A                      A                      A
 Frequencies --   1549.4057              1803.6322              1828.8570
 Red. masses --      1.0448                 9.8051                 9.7488
 Frc consts  --      1.4778                18.7930                19.2115
 IR Inten    --     14.6602               191.6671               118.2587

                     49                     50                     51
                      A                      A                      A
 Frequencies --   2981.9063              3002.0193              3013.0966
 Red. masses --      1.0853                 1.0819                 1.0846
 Frc consts  --      5.6856                 5.7445                 5.8013
 IR Inten    --     66.0924                 3.8776                55.1143

                     52                     53                     54
                      A                      A                      A
 Frequencies --   3034.2190              3042.9919              3045.8825
 Red. masses --      1.0695                 1.0514                 1.0519
 Frc consts  --      5.8012                 5.7363                 5.7498
 IR Inten    --     23.7222                37.9358                38.9088

                     55                     56                     57
                      A                      A                      A
 Frequencies --   3061.5522              3105.2223              3111.8977
 Red. masses --      1.0776                 1.0992                 1.0994
 Frc consts  --      5.9508                 6.2445                 6.2729
 IR Inten    --     14.9060                 5.9072                51.8711

                     58                     59                     60
                      A                      A                      A
 Frequencies --   3116.9732              3149.1303              3595.0796
 Red. masses --      1.1008                 1.0991                 1.0644
 Frc consts  --      6.3010                 6.4222                 8.1056
 IR Inten    --     46.6941                16.5088                85.7185

 - Thermochemistry -
 -------------------
 Temperature   298.150 Kelvin.  Pressure   1.00000 Atm.
 Atom     1 has atomic number  6 and mass  12.00000

 Molecular mass:   144.07864 amu.
 Principal axes and moments of inertia in atomic units:
                           1         2         3
     Eigenvalues --  1038.611171807.704742576.77496
           X            0.99802  -0.06207   0.00978
           Y            0.06183   0.99782   0.02313
           Z           -0.01120  -0.02248   0.99968
 This molecule is an asymmetric top.
 Rotational symmetry number  1.
 Warning -- assumption of classical behavior for rotation
           may cause significant error
 Rotational temperatures (Kelvin)      0.08339     0.04791     0.03361
 Rotational constants (GHZ):           1.73765     0.99836     0.70039
 Zero-point vibrational energy     486111.2 (Joules/Mol)
                                  116.18336 (Kcal/Mol)
 Warning -- explicit consideration of  16 degrees of freedom as
           vibrations may cause significant error
 Vibrational temperatures:     73.90    97.04   124.35   156.98   276.66
          (Kelvin)            323.48   358.05   391.04   436.22   478.78
                              499.63   516.52   564.23   622.19   649.36
                              751.66   994.46  1090.60  1162.30  1240.20
                             1304.15  1360.04  1363.26  1405.66  1435.73
                             1462.36  1522.83  1650.58  1662.26  1706.92
                             1740.02  1803.61  1869.28  1886.73  1960.60
                             1964.90  2015.50  2031.79  2058.82  2063.76
                             2088.22  2100.59  2186.43  2202.14  2213.25
                             2229.25  2595.02  2631.32  4290.30  4319.24
                             4335.17  4365.56  4378.19  4382.35  4404.89
                             4467.72  4477.33  4484.63  4530.90  5172.52

 Zero-point correction=                           0.185150 (Hartree/Particle)
 Thermal correction to Energy=                    0.196529
 Thermal correction to Enthalpy=                  0.197473
 Thermal correction to Gibbs Free Energy=         0.147809
 Sum of electronic and zero-point Energies=           -499.453393
 Sum of electronic and thermal Energies=              -499.442014
 Sum of electronic and thermal Enthalpies=            -499.441070
 Sum of electronic and thermal Free Energies=         -499.490733

                     E (Thermal)             CV                S
                      KCal/Mol        Cal/Mol-Kelvin    Cal/Mol-Kelvin
 Total                  123.324             40.883            104.525
 Electronic               0.000              0.000              0.000
 Translational            0.889              2.981             40.807
 Rotational               0.889              2.981             29.960
 Vibrational            121.546             34.922             33.759
 Vibration     1          0.596              1.977              4.764
 Vibration     2          0.598              1.970              4.226
 Vibration     3          0.601              1.959              3.739
 Vibration     4          0.606              1.942              3.285
 Vibration     5          0.634              1.851              2.206
 Vibration     6          0.649              1.803              1.920
 Vibration     7          0.662              1.765              1.739
 Vibration     8          0.675              1.725              1.585
 Vibration     9          0.695              1.668              1.399
 Vibration    10          0.715              1.610              1.247
 Vibration    11          0.725              1.581              1.179
 Vibration    12          0.734              1.557              1.126
 Vibration    13          0.760              1.487              0.992
 Vibration    14          0.793              1.400              0.851
 Vibration    15          0.810              1.358              0.792
 Vibration    16          0.877              1.200              0.604

                           ! Non-Optimized Parameters !

 1\1\GINC-NODE315\Freq\RB3LYP\6-31G(d)\C7H12O3\VSC10255\08-Dec-2020\0\\
 #N Geom=AllCheck Guess=TCheck SCRF=Check GenChk RB3LYP/6-31G(d) Freq\\
 CID_130144096_JID_629_neutraal\\0,1\C,1.0157848217,0.0366180614,-0.010
 1998253\C,0.505416954,-1.011963196,0.9891235201\C,1.2721993194,-0.8768
 800628,2.3113981206\C,-1.0274330156,-0.9104405301,1.1367809099\C,-1.73
 72780783,-1.2950181867,-0.1685304188\O,-1.2253888043,-1.9596775797,-1.
 040368177\C,-1.6378336035,-1.8284344896,2.2525323572\C,-1.7142822739,-
 1.0840576726,3.5760191258\O,-2.7850541043,-0.9001164723,4.1203326811\O

 Normal termination of Gaussian 16 at Tue Dec  8 13:26:53 2020.

 ----------------------------------------------------------------------
 # B3LYP/6-311++G(d,p) empiricaldispersion=gd3bj scf=xqc pop=npa geom=c
 heck
 ----------------------------------------------------------------------

 --------------------------------------
 CID_130144096_JID_629_Energie_neutraal
 --------------------------------------
 Structure from the checkpoint file:  "JID_629.chk"
 Charge =  0 Multiplicity = 1

 SCF Done:  E(RB3LYP) =  -499.798437847     A.U. after   14 cycles
 Normal termination of Gaussian 16 at Tue Dec  8 13:29:29 2020.

 ----------------------------------------------------------------------
 # B3LYP/6-311++G(d,p) empiricaldispersion=gd3bj scf=xqc pop=npa geom=c
 heck
 ----------------------------------------------------------------------

 ------------------------------------
 CID_130144096_JID_629_Energie_kation
 ------------------------------------
 Structure from the checkpoint file:  "JID_629.chk"
 Charge =  1 Multiplicity = 2

 SCF Done:  E(UB3LYP) =  -499.451461691     A.U. after   22 cycles
 Normal termination of Gaussian 16 at Tue Dec  8 13:35:18 2020.
 Gaussian 16:  ES64L-G16RevA.03 25-Dec-2016

 -----------------------------------
 CID_130144096_JID_629_Energie_anion
 -----------------------------------
 Structure from the checkpoint file:  "JID_629.chk"
 Charge = -1 Multiplicity = 2

                         Standard orientation:
 ---------------------------------------------------------------------
 Center     Atomic      Atomic             Coordinates (Angstroms)
 Number     Number       Type             X           Y           Z
 ---------------------------------------------------------------------
      1          6           0        2.632723   -0.666641    0.649534
      2          6           0        1.404948   -0.675788   -0.273033
      3          6           0        0.983672   -2.124577   -0.552588
      4          6           0        0.283028    0.203286    0.318798
      5          6           0        0.692000    1.682382    0.343977
      6          8           0        1.565477    2.149250   -0.350989
      7          6           0       -1.076268    0.139383   -0.461224
      8          6           0       -1.971815   -0.947587    0.111531
      9          8           0       -3.057658   -0.669645    0.580953
     10          8           0       -1.764769    1.366721   -0.407845
     11          1           0        2.391024   -1.112790    1.623144
     12          1           0        3.004427    0.347090    0.816090
     13          1           0        3.446516   -1.253471    0.209854
     14          1           0        1.691402   -0.209518   -1.223868
     15          1           0        0.658732   -2.632254    0.364682
     16          1           0        0.178253   -2.199164   -1.291181
     17          1           0        1.834417   -2.687953   -0.950724
     18          1           0        0.096415   -0.082438    1.366364
     19          1           0        0.124077    2.315236    1.050523
     20          1           0       -0.848005   -0.106141   -1.510562
     21          1           0       -1.596904   -1.984435    0.109406
     22          1           0       -2.614481    1.172471    0.037354
 ---------------------------------------------------------------------

 SCF Done:  E(UB3LYP) =  -499.798497648     A.U. after   33 cycles
 SCF Done:  E(UB3LYP) =  -499.798497648     a.u. after    1 cycles

 The electronic state is 2-A.
 Alpha  occ. eigenvalues --  -18.98252 -18.96743 -18.94859 -10.09897 -10.08806
 Alpha  occ. eigenvalues --  -10.06915 -10.05651 -10.04766 -10.04519 -10.04231
 Alpha  occ. eigenvalues --   -0.90854  -0.90097  -0.86873  -0.69544  -0.61732
 Alpha  occ. eigenvalues --   -0.57235  -0.53588  -0.47263  -0.43729  -0.40806
 Alpha  occ. eigenvalues --   -0.36687  -0.35426  -0.34327  -0.33505  -0.31123
 Alpha  occ. eigenvalues --   -0.29810  -0.28284  -0.27661  -0.26831  -0.26332
 Alpha  occ. eigenvalues --   -0.23850  -0.22835  -0.22282  -0.21416  -0.21195
 Alpha  occ. eigenvalues --   -0.20159  -0.14441  -0.11700  -0.10278   0.05893
 Alpha virt. eigenvalues --    0.08006   0.09654   0.10182   0.10553   0.11191
 Alpha virt. eigenvalues --    0.11775   0.12907   0.13215   0.13523   0.14236
 Alpha virt. eigenvalues --    0.14969   0.16087   0.16598   0.18060   0.18864

  Beta  occ. eigenvalues --  -18.98247 -18.96513 -18.94335 -10.09655 -10.08819
  Beta  occ. eigenvalues --  -10.06453 -10.05646 -10.04717 -10.04519 -10.04210
  Beta  occ. eigenvalues --   -0.90490  -0.89635  -0.86235  -0.69462  -0.61514
  Beta  occ. eigenvalues --   -0.57161  -0.53018  -0.47033  -0.43149  -0.40340
  Beta  occ. eigenvalues --   -0.36371  -0.35288  -0.34108  -0.33159  -0.30970
  Beta  occ. eigenvalues --   -0.29507  -0.27912  -0.27425  -0.26621  -0.26094
  Beta  occ. eigenvalues --   -0.22926  -0.22217  -0.21570  -0.21142  -0.20155
  Beta  occ. eigenvalues --   -0.19532  -0.14344  -0.11432  -0.09894
  Beta virt. eigenvalues --    0.08192   0.09795   0.10492   0.11147   0.11608
  Beta virt. eigenvalues --    0.12150   0.12735   0.13149   0.13377   0.13978
  Beta virt. eigenvalues --    0.14778   0.15261   0.16265   0.16732   0.18112

 Mulliken charges and spin densities:
               1          2
     1  C   -0.572195  -0.071552
     2  C   -0.196903   0.390108
     3  C    0.196268  -0.926307
     4  C    0.606300  -0.000993
     5  C   -0.333426   0.174247
     6  O   -0.309639   0.068604
     7  C   -0.352763  -0.029694
     8  C   -0.228478   0.336296
     9  O   -0.369250   0.145832
    10  O   -0.261001  -0.003460
    11  H    0.111373   0.004733
    12  H    0.148955   0.005347
    13  H    0.085913   0.027296
    14  H    0.201428  -0.006477
    15  H    0.115313   0.030425
    16  H   -0.357269   0.511740
    17  H   -0.109411   0.224921
    18  H    0.154351  -0.002363
    19  H    0.105589  -0.012072
    20  H    0.224487  -0.016192
    21  H   -0.091953   0.152927
    22  H    0.232311  -0.003367
 Sum of Mulliken charges =  -1.00000   1.00000

 Dipole moment (field-independent basis, Debye):
    X=              3.2354    Y=              0.4253    Z=              2.1172  Tot=              3.8899
 Quadrupole moment (field-independent basis, Debye-Ang):
   XX=            -99.0188   YY=            -94.8929   ZZ=            -73.5376
   XY=             -8.9353   XZ=              2.7701   YZ=             -1.7296

 Summary of Natural Population Analysis:

                                       Natural Population
                Natural  -----------------------------------------------
    Atom  No    Charge         Core      Valence    Rydberg      Total
 -----------------------------------------------------------------------
      C    1   -0.28353      0.99965     2.27833    0.00555     3.28353
      C    2   -0.11609      0.99960     2.10624    0.01025     3.11609
      C    3   -0.28725      0.99965     2.28059    0.00701     3.28725
      C    4   -0.15239      0.99955     2.14099    0.01186     3.15239
      C    5    0.26823      0.99973     1.71078    0.02127     2.73177
      O    6   -0.27780      0.99988     3.27090    0.00702     4.27780
      C    7    0.02402      0.99956     1.95980    0.01662     2.97598
      C    8    0.26657      0.99973     1.71204    0.02166     2.73343
      O    9   -0.26173      0.99988     3.25429    0.00756     4.26173
      O   10   -0.38046      0.99989     3.37454    0.00603     4.38046
      H   11    0.09047      0.00000     0.40870    0.00082     0.40953
      H   12    0.10687      0.00000     0.39238    0.00075     0.39313
      H   13    0.09316      0.00000     0.40612    0.00072     0.40684
      H   14    0.10107      0.00000     0.39690    0.00203     0.39893
      H   15    0.09436      0.00000     0.40474    0.00090     0.40564
      H   16    0.10445      0.00000     0.39378    0.00176     0.39555
      H   17    0.09458      0.00000     0.40456    0.00086     0.40542
      H   18    0.09754      0.00000     0.40136    0.00110     0.40246
      H   19    0.04544      0.00000     0.45224    0.00232     0.45456
      H   20    0.08712      0.00000     0.41137    0.00152     0.41288
      H   21    0.04730      0.00000     0.45031    0.00239     0.45270
      H   22    0.23807      0.00000     0.25852    0.00340     0.26193
 =======================================================================
   * Total *   -0.00000      9.99711    28.86948    0.13340    39.00000

 Normal termination of Gaussian 16 at Tue Dec  8 13:43:25 2020.
