 Gaussian 16, Revision A.03,

 -----------------------------------------------------------
 # opt freq B3LYP/6-31G(d) empiricaldispersion=gd3bj scf=xqc
 -----------------------------------------------------------

 ------------------------------
 CID_24254518_JID_5741_neutraal
 ------------------------------
 Symbolic Z-matrix:
 Charge =  0 Multiplicity = 1

 SCF Done:  E(RB3LYP) =  -1026.56579005     A.U. after   15 cycles
 SCF Done:  E(RB3LYP) =  -1026.57154268     A.U. after   12 cycles
 SCF Done:  E(RB3LYP) =  -1026.57305810     A.U. after   12 cycles
 SCF Done:  E(RB3LYP) =  -1026.57356933     A.U. after   13 cycles
 SCF Done:  E(RB3LYP) =  -1026.57369280     A.U. after   12 cycles
 SCF Done:  E(RB3LYP) =  -1026.57373433     A.U. after   11 cycles
 SCF Done:  E(RB3LYP) =  -1026.57374155     A.U. after   10 cycles
 SCF Done:  E(RB3LYP) =  -1026.57375038     A.U. after   10 cycles
 SCF Done:  E(RB3LYP) =  -1026.57375664     A.U. after   10 cycles
 SCF Done:  E(RB3LYP) =  -1026.57376460     A.U. after   11 cycles
 SCF Done:  E(RB3LYP) =  -1026.57453739     A.U. after   11 cycles
 SCF Done:  E(RB3LYP) =  -1026.57454970     A.U. after   12 cycles
 SCF Done:  E(RB3LYP) =  -1026.57455686     A.U. after   10 cycles
 SCF Done:  E(RB3LYP) =  -1026.57455751     A.U. after    8 cycles
 SCF Done:  E(RB3LYP) =  -1026.57455767     A.U. after    9 cycles
 Optimization completed.
    -- Stationary point found.
 Normal termination of Gaussian 16 at Thu Dec 10 16:48:25 2020.

 --------------------------------------------------------------------
 #N Geom=AllCheck Guess=TCheck SCRF=Check GenChk RB3LYP/6-31G(d) Freq
 --------------------------------------------------------------------

 Structure from the checkpoint file:  "JID_5741.chk"
 ------------------------------
 CID_24254518_JID_5741_neutraal
 ------------------------------
 Charge =  0 Multiplicity = 1

 SCF Done:  E(RB3LYP) =  -1026.57455767     A.U. after    1 cycles

  Exact polarizability: 146.256  -9.188 141.888 -21.728  -6.074 106.548
 Approx polarizability: 200.431 -13.752 224.871 -50.598 -15.895 195.891

                      1                      2                      3
                      A                      A                      A
 Frequencies --     12.9351                24.2953                47.5515
 Red. masses --      5.1036                 4.0272                 5.5844
 Frc consts  --      0.0005                 0.0014                 0.0074
 IR Inten    --      0.4254                 0.5721                 2.2402

                      4                      5                      6
                      A                      A                      A
 Frequencies --     56.9904                96.5183               128.1915
 Red. masses --      7.9361                 4.3496                 6.1719
 Frc consts  --      0.0152                 0.0239                 0.0598
 IR Inten    --      1.7890                 0.2489                 0.2978

                      7                      8                      9
                      A                      A                      A
 Frequencies --    139.7779               188.9520               226.1546
 Red. masses --      3.8682                 2.8432                 4.4280
 Frc consts  --      0.0445                 0.0598                 0.1334
 IR Inten    --      2.4955                 6.9182                 1.1806

                     10                     11                     12
                      A                      A                      A
 Frequencies --    278.4830               306.3612               316.4083
 Red. masses --      2.5673                 3.9776                 2.3336
 Frc consts  --      0.1173                 0.2200                 0.1377
 IR Inten    --      7.6861                 0.4235                 5.3515

                     13                     14                     15
                      A                      A                      A
 Frequencies --    344.9343               390.4563               425.6305
 Red. masses --      1.1987                 2.8102                 3.3151
 Frc consts  --      0.0840                 0.2524                 0.3538
 IR Inten    --     65.7630                13.7154                 1.9931

                     16                     17                     18
                      A                      A                      A
 Frequencies --    501.3615               516.2446               563.1580
 Red. masses --      3.2629                 4.7885                 3.8500
 Frc consts  --      0.4832                 0.7519                 0.7194
 IR Inten    --      2.4685                 8.1332                 2.4296

                     19                     20                     21
                      A                      A                      A
 Frequencies --    608.1606               639.7295               667.7687
 Red. masses --      3.5016                 3.7648                 4.4538
 Frc consts  --      0.7631                 0.9078                 1.1701
 IR Inten    --      1.5549                 2.7348                 3.8035

                     22                     23                     24
                      A                      A                      A
 Frequencies --    684.0175               706.5663               717.9809
 Red. masses --      6.3242                 1.2020                 4.7785
 Frc consts  --      1.7434                 0.3536                 1.4513
 IR Inten    --      2.7531                61.7926                 8.7211

                     25                     26                     27
                      A                      A                      A
 Frequencies --    737.8570               749.8767               835.6138
 Red. masses --      3.2002                 6.9473                 1.2954
 Frc consts  --      1.0265                 2.3017                 0.5329
 IR Inten    --      2.0628                 0.9063                 6.8457

                     28                     29                     30
                      A                      A                      A
 Frequencies --    857.7483               878.8349               906.0096
 Red. masses --      3.8094                 2.0933                 1.6347
 Frc consts  --      1.6513                 0.9526                 0.7906
 IR Inten    --      8.4927                20.9418                 2.6548

                     31                     32                     33
                      A                      A                      A
 Frequencies --    910.4408               917.5167               935.3464
 Red. masses --      1.8492                 1.4370                 1.7744
 Frc consts  --      0.9031                 0.7128                 0.9146
 IR Inten    --      8.0263                59.9384                50.3187

                     34                     35                     36
                      A                      A                      A
 Frequencies --    953.6127               993.0891              1007.4410
 Red. masses --      2.6623                 5.7614                 4.6170
 Frc consts  --      1.4264                 3.3477                 2.7609
 IR Inten    --      4.7029                 5.7527                 3.8408

                     37                     38                     39
                      A                      A                      A
 Frequencies --   1021.8111              1067.2247              1079.7702
 Red. masses --      3.6608                 2.1339                 2.3206
 Frc consts  --      2.2520                 1.4320                 1.5941
 IR Inten    --     18.1147                15.8498                11.9987

                     40                     41                     42
                      A                      A                      A
 Frequencies --   1085.4060              1113.8196              1133.3475
 Red. masses --      2.9009                 1.2401                 1.8498
 Frc consts  --      2.0136                 0.9064                 1.3999
 IR Inten    --      6.7119                 1.8761                 9.1252

                     43                     44                     45
                      A                      A                      A
 Frequencies --   1157.1625              1185.0823              1190.3091
 Red. masses --      2.0176                 1.8374                 1.7088
 Frc consts  --      1.5917                 1.5204                 1.4264
 IR Inten    --      6.2270                31.1388                 3.5120

                     46                     47                     48
                      A                      A                      A
 Frequencies --   1226.1344              1243.9236              1253.8157
 Red. masses --      1.7236                 1.2939                 1.3362
 Frc consts  --      1.5267                 1.1796                 1.2376
 IR Inten    --     29.9666                 3.7081                10.9743

                     49                     50                     51
                      A                      A                      A
 Frequencies --   1290.0784              1325.8752              1370.8447
 Red. masses --      1.3710                 1.6925                 1.1912
 Frc consts  --      1.3443                 1.7530                 1.3189
 IR Inten    --      8.1302                 2.8600                 3.3957

                     52                     53                     54
                      A                      A                      A
 Frequencies --   1376.7885              1388.5790              1408.8073
 Red. masses --      1.3552                 1.6430                 2.1049
 Frc consts  --      1.5135                 1.8665                 2.4614
 IR Inten    --      8.1455                 4.0234                 0.4155

                     55                     56                     57
                      A                      A                      A
 Frequencies --   1435.9945              1452.8323              1494.1248
 Red. masses --      2.0840                 1.4938                 1.1545
 Frc consts  --      2.5319                 1.8577                 1.5185
 IR Inten    --     17.3014                25.7758                 2.7374

                     58                     59                     60
                      A                      A                      A
 Frequencies --   1501.9138              1504.3844              1513.9493
 Red. masses --      2.4866                 1.5161                 1.1533
 Frc consts  --      3.3048                 2.0216                 1.5575
 IR Inten    --      7.4094                 5.3846                 3.4132

                     61                     62                     63
                      A                      A                      A
 Frequencies --   1535.7859              1606.1953              1616.1943
 Red. masses --      1.0883                 5.4823                 9.5272
 Frc consts  --      1.5124                 8.3332                14.6623
 IR Inten    --      2.2526                 0.7977                40.7815

                     64                     65                     66
                      A                      A                      A
 Frequencies --   1631.2236              1703.5485              2978.9602
 Red. masses --      9.1921                 1.0870                 1.0725
 Frc consts  --     14.4109                 1.8586                 5.6077
 IR Inten    --     33.1215                48.9804                63.6495

                     67                     68                     69
                      A                      A                      A
 Frequencies --   3053.0052              3065.2923              3080.7098
 Red. masses --      1.0601                 1.0601                 1.0606
 Frc consts  --      5.8217                 5.8689                 5.9306
 IR Inten    --      7.2366                21.7797                19.3230

                     70                     71                     72
                      A                      A                      A
 Frequencies --   3083.2814              3092.3658              3109.4523
 Red. masses --      1.0895                 1.1031                 1.1046
 Frc consts  --      6.1024                 6.2148                 6.2927
 IR Inten    --     45.2172                12.8211                10.0776

                     73                     74                     75
                      A                      A                      A
 Frequencies --   3135.3266              3207.9016              3227.1562
 Red. masses --      1.1046                 1.0899                 1.0939
 Frc consts  --      6.3977                 6.6083                 6.7121
 IR Inten    --     10.5092                 7.7306                 9.0247

                     76                     77                     78
                      A                      A                      A
 Frequencies --   3270.5718              3467.5914              3552.9912
 Red. masses --      1.0971                 1.0501                 1.0923
 Frc consts  --      6.9140                 7.4393                 8.1242
 IR Inten    --      1.2656                13.5124                 3.6538

 - Thermochemistry -
 -------------------
 Temperature   298.150 Kelvin.  Pressure   1.00000 Atm.
 Atom     1 has atomic number  6 and mass  12.00000

 Molecular mass:   223.07793 amu.
 Principal axes and moments of inertia in atomic units:
                           1         2         3
     Eigenvalues --  1886.261685211.905646235.11280
           X            0.99963  -0.02648  -0.00693
           Y            0.02644   0.99963  -0.00582
           Z            0.00708   0.00564   0.99996
 This molecule is an asymmetric top.
 Rotational symmetry number  1.
 Warning -- assumption of classical behavior for rotation
           may cause significant error
 Rotational temperatures (Kelvin)      0.04592     0.01662     0.01389
 Rotational constants (GHZ):           0.95678     0.34627     0.28945
 Zero-point vibrational energy     595211.2 (Joules/Mol)
                                  142.25890 (Kcal/Mol)
 Warning -- explicit consideration of  19 degrees of freedom as
           vibrations may cause significant error
 Vibrational temperatures:     18.61    34.96    68.42    82.00   138.87
          (Kelvin)            184.44   201.11   271.86   325.39   400.67
                              440.79   455.24   496.28   561.78   612.39
                              721.35   742.76   810.26   875.01   920.43
                              960.77   984.15  1016.59  1033.01  1061.61
                             1078.91  1202.26  1234.11  1264.45  1303.55
                             1309.92  1320.10  1345.75  1372.04  1428.83
                             1449.48  1470.16  1535.50  1553.55  1561.66
                             1602.54  1630.63  1664.90  1705.07  1712.59
                             1764.13  1789.73  1803.96  1856.14  1907.64
                             1972.34  1980.89  1997.86  2026.96  2066.08
                             2090.30  2149.71  2160.92  2164.47  2178.24
                             2209.65  2310.96  2325.34  2346.97  2451.03
                             4286.06  4392.59  4410.27  4432.45  4436.15
                             4449.22  4473.81  4511.04  4615.45  4643.16
                             4705.62  4989.09  5111.96

 Zero-point correction=                           0.226704 (Hartree/Particle)
 Thermal correction to Energy=                    0.240852
 Thermal correction to Enthalpy=                  0.241796
 Thermal correction to Gibbs Free Energy=         0.182323
 Sum of electronic and zero-point Energies=          -1026.347854
 Sum of electronic and thermal Energies=             -1026.333706
 Sum of electronic and thermal Enthalpies=           -1026.332762
 Sum of electronic and thermal Free Energies=        -1026.392235

                     E (Thermal)             CV                S
                      KCal/Mol        Cal/Mol-Kelvin    Cal/Mol-Kelvin
 Total                  151.137             52.448            125.172
 Electronic               0.000              0.000              0.000
 Translational            0.889              2.981             42.110
 Rotational               0.889              2.981             32.483
 Vibrational            149.359             46.487             50.579
 Vibration     1          0.593              1.987              7.500
 Vibration     2          0.593              1.985              6.248
 Vibration     3          0.595              1.979              4.917
 Vibration     4          0.596              1.975              4.559
 Vibration     5          0.603              1.952              3.523
 Vibration     6          0.611              1.925              2.973
 Vibration     7          0.615              1.914              2.807
 Vibration     8          0.633              1.855              2.238
 Vibration     9          0.650              1.801              1.909
 Vibration    10          0.679              1.713              1.543
 Vibration    11          0.697              1.662              1.382
 Vibration    12          0.703              1.642              1.329
 Vibration    13          0.723              1.586              1.189
 Vibration    14          0.758              1.491              0.998
 Vibration    15          0.787              1.414              0.873
 Vibration    16          0.857              1.247              0.655
 Vibration    17          0.871              1.214              0.619
 Vibration    18          0.919              1.111              0.518
 Vibration    19          0.967              1.015              0.436

                           ! Non-Optimized Parameters !
 Normal termination of Gaussian 16 at Thu Dec 10 16:56:43 2020.

 ----------------------------------------------------------------------
 # B3LYP/6-311++G(d,p) empiricaldispersion=gd3bj scf=xqc pop=npa geom=c
 heck
 ----------------------------------------------------------------------

 --------------------------------------
 CID_24254518_JID_5741_Energie_neutraal
 --------------------------------------
 Structure from the checkpoint file:  "JID_5741.chk"
 Charge =  0 Multiplicity = 1

 SCF Done:  E(RB3LYP) =  -1026.77876453     A.U. after   16 cycles
 Normal termination of Gaussian 16 at Thu Dec 10 17:00:37 2020.

 ----------------------------------------------------------------------
 # B3LYP/6-311++G(d,p) empiricaldispersion=gd3bj scf=xqc pop=npa geom=c
 heck
 ----------------------------------------------------------------------

 ------------------------------------
 CID_24254518_JID_5741_Energie_kation
 ------------------------------------
 Structure from the checkpoint file:  "JID_5741.chk"
 Charge =  1 Multiplicity = 2

 SCF Done:  E(UB3LYP) =  -1026.47802904     A.U. after   32 cycles
 Normal termination of Gaussian 16 at Thu Dec 10 17:22:21 2020.
 Gaussian 16:  ES64L-G16RevA.03 25-Dec-2016

 ----------------------------------------------------------------------
 # B3LYP/6-311++G(d,p) empiricaldispersion=gd3bj scf=xqc pop=npa geom=c
 heck
 ----------------------------------------------------------------------

 -----------------------------------
 CID_24254518_JID_5741_Energie_anion
 -----------------------------------
 Structure from the checkpoint file:  "JID_5741.chk"
 Charge = -1 Multiplicity = 2

                         Standard orientation:
 ---------------------------------------------------------------------
 Center     Atomic      Atomic             Coordinates (Angstroms)
 Number     Number       Type             X           Y           Z
 ---------------------------------------------------------------------
      1          6           0       -3.185720   -1.813907    0.678485
      2          6           0       -2.279930   -2.232041   -0.255955
      3         16           0       -1.541660   -0.890545   -1.073009
      4          6           0       -2.469844    0.260474   -0.139157
      5          6           0       -3.290918   -0.390755    0.743891
      6          6           0       -2.268311    1.738430   -0.301204
      7          6           0       -1.093838    2.294302    0.547616
      8          6           0        0.191284    1.624018    0.208523
      9          7           0        0.910357    1.749846   -0.860848
     10          7           0        1.949540    0.814865   -0.748496
     11          6           0        1.774469    0.196169    0.377274
     12          8           0        0.678537    0.660410    1.048089
     13          6           0        2.581578   -0.898046    0.984963
     14          6           0        3.672001   -1.413202    0.038976
     15          7           0        4.676449   -0.375473   -0.196883
     16          1           0       -3.764144   -2.492004    1.296199
     17          1           0       -2.010382   -3.244707   -0.523225
     18          1           0       -3.955618    0.135515    1.421705
     19          1           0       -2.082729    1.990668   -1.350477
     20          1           0       -3.185790    2.256643   -0.000645
     21          1           0       -0.994340    3.368761    0.362902
     22          1           0       -1.300104    2.145335    1.611048
     23          1           0        3.048328   -0.529302    1.906880
     24          1           0        1.901841   -1.712536    1.265003
     25          1           0        4.162610   -2.262949    0.526795
     26          1           0        3.188320   -1.796415   -0.875883
     27          1           0        5.440807   -0.764879   -0.745633
     28          1           0        4.250425    0.353996   -0.768125
 ---------------------------------------------------------------------

 SCF Done:  E(UB3LYP) =  -1026.76719128     A.U. after   33 cycles
 SCF Done:  E(UB3LYP) =  -1026.76719128     a.u. after    1 cycles

 The electronic state is 2-A.
 Alpha  occ. eigenvalues --  -88.77369 -19.11902 -14.24593 -14.24443 -14.20161
 Alpha  occ. eigenvalues --  -10.17938 -10.17705 -10.10949 -10.10410 -10.10255
 Alpha  occ. eigenvalues --  -10.10217 -10.09740 -10.09578 -10.07887 -10.07420
 Alpha  occ. eigenvalues --   -7.86005  -5.82285  -5.81919  -5.81615  -1.06806
 Alpha  occ. eigenvalues --   -0.88786  -0.80088  -0.78524  -0.76436  -0.70383
 Alpha  occ. eigenvalues --   -0.66561  -0.63568  -0.62934  -0.57873  -0.55832
 Alpha  occ. eigenvalues --   -0.51078  -0.49987  -0.46505  -0.44034  -0.42352
 Alpha  occ. eigenvalues --   -0.41819  -0.40683  -0.39537  -0.38462  -0.36940
 Alpha  occ. eigenvalues --   -0.34972  -0.34344  -0.32211  -0.30785  -0.30378
 Alpha  occ. eigenvalues --   -0.30029  -0.29355  -0.27958  -0.27606  -0.26907
 Alpha  occ. eigenvalues --   -0.26458  -0.25501  -0.24162  -0.23233  -0.19461
 Alpha  occ. eigenvalues --   -0.17978  -0.15784  -0.15656  -0.13672   0.04121
 Alpha virt. eigenvalues --    0.05503   0.06532   0.06881   0.07801   0.08064
 Alpha virt. eigenvalues --    0.08371   0.08488   0.09256   0.09723   0.10374
 Alpha virt. eigenvalues --    0.10853   0.11229   0.11649   0.11935   0.12503

  Beta  occ. eigenvalues --  -88.77355 -19.11896 -14.24590 -14.24437 -14.20148
  Beta  occ. eigenvalues --  -10.17937 -10.17698 -10.10926 -10.10363 -10.10227
  Beta  occ. eigenvalues --  -10.10203 -10.09688 -10.09559 -10.07883 -10.07393
  Beta  occ. eigenvalues --   -7.85991  -5.82276  -5.81912  -5.81580  -1.06797
  Beta  occ. eigenvalues --   -0.88778  -0.80064  -0.78458  -0.76413  -0.70328
  Beta  occ. eigenvalues --   -0.66523  -0.63501  -0.62862  -0.57834  -0.55780
  Beta  occ. eigenvalues --   -0.51028  -0.49965  -0.46427  -0.43940  -0.42313
  Beta  occ. eigenvalues --   -0.41788  -0.40629  -0.39499  -0.38426  -0.36910
  Beta  occ. eigenvalues --   -0.34917  -0.34318  -0.32144  -0.30742  -0.30326
  Beta  occ. eigenvalues --   -0.29977  -0.29320  -0.27913  -0.27532  -0.26811
  Beta  occ. eigenvalues --   -0.26409  -0.25481  -0.24104  -0.23218  -0.19449
  Beta  occ. eigenvalues --   -0.17945  -0.15752  -0.15528  -0.13429
  Beta virt. eigenvalues --    0.06249   0.06773   0.06982   0.07186   0.08295
  Beta virt. eigenvalues --    0.08391   0.08725   0.09063   0.09719   0.10001
  Beta virt. eigenvalues --    0.10685   0.11060   0.11476   0.12014   0.12363

 Mulliken charges and spin densities:
               1          2
     1  C    1.121023  -1.650076
     2  C   -0.453637   0.289489
     3  S    0.596717  -0.408339
     4  C   -0.798478   0.877034
     5  C   -0.567357   0.532722
     6  C    0.674430  -1.076580
     7  C    0.740151  -0.702646
     8  C    0.564008  -0.606284
     9  N   -0.001876   0.041181
    10  N   -0.047071   0.014442
    11  C    0.101401  -0.397723
    12  O    0.097029   0.021705
    13  C   -1.396179   0.919590
    14  C    0.892312  -1.476257
    15  N   -0.498580   0.123316
    16  H   -0.123632   0.259549
    17  H   -0.342276   0.587424
    18  H   -0.649550   0.817850
    19  H    0.080085   0.115539
    20  H   -0.647313   0.854132
    21  H   -0.145995   0.337797
    22  H   -0.074345   0.255040
    23  H    0.057406   0.138860
    24  H    0.052181   0.099440
    25  H   -0.507724   0.691870
    26  H    0.008376   0.135894
    27  H    0.054555   0.176421
    28  H    0.214339   0.028610
 Sum of Mulliken charges =  -1.00000   1.00000

 Dipole moment (field-independent basis, Debye):
    X=              1.6613    Y=             -0.4416    Z=             -0.6083  Tot=              1.8234
 Quadrupole moment (field-independent basis, Debye-Ang):
   XX=           -183.1248   YY=           -146.7287   ZZ=           -124.2129
   XY=             14.1416   XZ=              4.3822   YZ=              0.8983

 Summary of Natural Population Analysis:

                                       Natural Population
                Natural  -----------------------------------------------
    Atom  No    Charge         Core      Valence    Rydberg      Total
 -----------------------------------------------------------------------
      C    1   -0.12712      0.99953     2.11741    0.01018     3.12712
      C    2   -0.18974      0.99954     2.17885    0.01135     3.18974
      S    3    0.20931      4.99940     2.77107    0.02022     7.79069
      C    4   -0.09669      0.99950     2.08309    0.01410     3.09669
      C    5   -0.12590      0.99944     2.11461    0.01184     3.12590
      C    6   -0.19956      0.99956     2.18838    0.01162     3.19956
      C    7   -0.21463      0.99957     2.20507    0.00998     3.21463
      C    8    0.25989      0.99959     1.71974    0.02078     2.74011
      N    9   -0.16492      0.99966     2.65378    0.01148     3.66492
      N   10   -0.17755      0.99965     2.66628    0.01162     3.67755
      C   11    0.26587      0.99959     1.71602    0.01851     2.73413
      O   12   -0.23786      0.99985     3.23092    0.00709     4.23786
      C   13   -0.22442      0.99958     2.21481    0.01003     3.22442
      C   14   -0.08666      0.99965     2.07511    0.01190     3.08666
      N   15   -0.42956      0.99977     2.91925    0.01054     3.92956
      H   16    0.10524      0.00000     0.39377    0.00099     0.39476
      H   17    0.10909      0.00000     0.38978    0.00113     0.39091
      H   18    0.10892      0.00000     0.38908    0.00200     0.39108
      H   19    0.10758      0.00000     0.39114    0.00128     0.39242
      H   20    0.11448      0.00000     0.38186    0.00366     0.38552
      H   21    0.11634      0.00000     0.38202    0.00165     0.38366
      H   22    0.11257      0.00000     0.38590    0.00153     0.38743
      H   23    0.11320      0.00000     0.38542    0.00138     0.38680
      H   24    0.11601      0.00000     0.38255    0.00144     0.38399
      H   25    0.09414      0.00000     0.40389    0.00197     0.40586
      H   26    0.08452      0.00000     0.41365    0.00183     0.41548
      H   27    0.17341      0.00000     0.32512    0.00148     0.32659
      H   28    0.18404      0.00000     0.31334    0.00262     0.31596
 =======================================================================
   * Total *   -0.00000     18.99388    39.79190    0.21422    59.00000

 Normal termination of Gaussian 16 at Thu Dec 10 17:34:57 2020.
