 Gaussian 16, Revision A.03,

 -----------------------------------------------------------
 # opt freq B3LYP/6-31G(d) empiricaldispersion=gd3bj scf=xqc
 -----------------------------------------------------------

 -----------------------------
 CID_123322480_JID_83_neutraal
 -----------------------------
 Symbolic Z-matrix:
 Charge =  0 Multiplicity = 1

 SCF Done:  E(RB3LYP) =  -497.137941973     A.U. after   14 cycles
 SCF Done:  E(RB3LYP) =  -497.139360381     A.U. after   13 cycles
 SCF Done:  E(RB3LYP) =  -497.139849024     A.U. after   12 cycles
 SCF Done:  E(RB3LYP) =  -497.139886707     A.U. after   11 cycles
 SCF Done:  E(RB3LYP) =  -497.139909543     A.U. after   11 cycles
 SCF Done:  E(RB3LYP) =  -497.139938061     A.U. after   12 cycles
 SCF Done:  E(RB3LYP) =  -497.139956226     A.U. after   12 cycles
 SCF Done:  E(RB3LYP) =  -497.140003865     A.U. after   12 cycles
 SCF Done:  E(RB3LYP) =  -497.140038232     A.U. after   12 cycles
 SCF Done:  E(RB3LYP) =  -497.140047217     A.U. after   11 cycles
 SCF Done:  E(RB3LYP) =  -497.140049708     A.U. after   10 cycles
 SCF Done:  E(RB3LYP) =  -497.140051518     A.U. after   10 cycles
 SCF Done:  E(RB3LYP) =  -497.140051940     A.U. after    9 cycles
 SCF Done:  E(RB3LYP) =  -497.140051999     A.U. after    8 cycles
 Optimization completed.
    -- Stationary point found.
 Normal termination of Gaussian 16 at Tue Dec  8 10:16:24 2020.

 --------------------------------------------------------------------
 #N Geom=AllCheck Guess=TCheck SCRF=Check GenChk RB3LYP/6-31G(d) Freq
 --------------------------------------------------------------------

 Structure from the checkpoint file:  "JID_83.chk"
 -----------------------------
 CID_123322480_JID_83_neutraal
 -----------------------------
 Charge =  0 Multiplicity = 1

 SCF Done:  E(RB3LYP) =  -497.140051999     A.U. after    1 cycles

  Exact polarizability: 120.107  -0.770  87.835   1.629  -0.254  39.167
 Approx polarizability: 173.808  -4.652 152.108   0.497   0.506  57.615

                      1                      2                      3
                      A                      A                      A
 Frequencies --     31.5211                79.5367               152.3748
 Red. masses --      5.7420                 3.3242                 4.4849
 Frc consts  --      0.0034                 0.0124                 0.0614
 IR Inten    --      5.7248                 2.8300                 7.1120

                      4                      5                      6
                      A                      A                      A
 Frequencies --    192.6764               219.1882               262.8304
 Red. masses --      3.5203                 1.1814                 1.1472
 Frc consts  --      0.0770                 0.0334                 0.0467
 IR Inten    --      2.3814               135.0465                 5.7697

                      7                      8                      9
                      A                      A                      A
 Frequencies --    302.1821               370.0657               372.0100
 Red. masses --      4.3168                 7.2748                 5.7701
 Frc consts  --      0.2322                 0.5870                 0.4705
 IR Inten    --      0.5511                 4.4745                 0.3981

                     10                     11                     12
                      A                      A                      A
 Frequencies --    428.4212               516.1556               527.8530
 Red. masses --      3.3879                 3.9875                 2.4041
 Frc consts  --      0.3664                 0.6259                 0.3947
 IR Inten    --      0.4387                 0.0264                 6.2427

                     13                     14                     15
                      A                      A                      A
 Frequencies --    560.8360               647.8829               704.4835
 Red. masses --      7.6114                 7.0369                 4.3148
 Frc consts  --      1.4105                 1.7403                 1.2617
 IR Inten    --      8.8582                 0.3445                 0.0956

                     16                     17                     18
                      A                      A                      A
 Frequencies --    749.0206               815.2138               840.0344
 Red. masses --      5.7523                 1.2490                 1.6782
 Frc consts  --      1.9014                 0.4890                 0.6977
 IR Inten    --     39.3903                 2.0881                63.8120

                     19                     20                     21
                      A                      A                      A
 Frequencies --    854.3825               930.6676               947.2653
 Red. masses --      6.5602                 1.2866                 1.2755
 Frc consts  --      2.8215                 0.6566                 0.6743
 IR Inten    --      2.6313                 0.7890                 0.0303

                     22                     23                     24
                      A                      A                      A
 Frequencies --    969.5279              1029.4138              1086.0390
 Red. masses --     12.4473                 2.5282                 6.0283
 Frc consts  --      6.8936                 1.5785                 4.1892
 IR Inten    --      4.8731                 0.5468                60.3144

                     25                     26                     27
                      A                      A                      A
 Frequencies --   1139.4381              1187.6807              1187.7943
 Red. masses --      1.2461                 1.2720                 1.2811
 Frc consts  --      0.9532                 1.0572                 1.0649
 IR Inten    --     10.9900                 0.8381                 3.8440

                     28                     29                     30
                      A                      A                      A
 Frequencies --   1220.6294              1238.6907              1295.5850
 Red. masses --      1.3851                 2.9216                 5.3134
 Frc consts  --      1.2159                 2.6412                 5.2547
 IR Inten    --      8.4643               115.6429               189.8635

                     31                     32                     33
                      A                      A                      A
 Frequencies --   1337.7121              1374.9694              1411.6943
 Red. masses --      1.3162                 5.7330                 1.2104
 Frc consts  --      1.3877                 6.3859                 1.4212
 IR Inten    --      3.3834                23.5716                59.2780

                     34                     35                     36
                      A                      A                      A
 Frequencies --   1468.8685              1499.8662              1520.2187
 Red. masses --      3.3422                 1.2044                 1.0478
 Frc consts  --      4.2486                 1.5963                 1.4267
 IR Inten    --      0.1695                29.3537                 5.2859

                     37                     38                     39
                      A                      A                      A
 Frequencies --   1536.2749              1557.0382              1651.7021
 Red. masses --      1.0907                 2.2729                 7.1970
 Frc consts  --      1.5167                 3.2466                11.5682
 IR Inten    --     68.7145               180.4568                22.4165

                     40                     41                     42
                      A                      A                      A
 Frequencies --   1679.1543              3020.1455              3076.3465
 Red. masses --      6.0358                 1.0352                 1.1064
 Frc consts  --     10.0269                 5.5634                 6.1691
 IR Inten    --      3.7560                54.5289                48.2425

                     43                     44                     45
                      A                      A                      A
 Frequencies --   3157.0039              3208.7145              3223.5155
 Red. masses --      1.0991                 1.0874                 1.0949
 Frc consts  --      6.4542                 6.5962                 6.7033
 IR Inten    --     27.8431                 5.7403                 6.3431

                     46                     47                     48
                      A                      A                      A
 Frequencies --   3226.6279              3255.3433              3680.6089
 Red. masses --      1.0886                 1.0918                 1.0688
 Frc consts  --      6.6773                 6.8166                 8.5309
 IR Inten    --      9.3371                 1.0757                33.8113

 - Thermochemistry -
 -------------------
 Temperature   298.150 Kelvin.  Pressure   1.00000 Atm.
 Atom     1 has atomic number  6 and mass  12.00000

 Molecular mass:   140.04734 amu.
 Principal axes and moments of inertia in atomic units:
                           1         2         3
     Eigenvalues --   455.453322555.258582993.11427
           X            0.99989   0.01387   0.00426
           Y           -0.01384   0.99989  -0.00513
           Z           -0.00433   0.00507   0.99998
 This molecule is an asymmetric top.
 Rotational symmetry number  1.
 Warning -- assumption of classical behavior for rotation
           may cause significant error
 Rotational temperatures (Kelvin)      0.19017     0.03390     0.02894
 Rotational constants (GHZ):           3.96252     0.70629     0.60296
 Zero-point vibrational energy     369318.3 (Joules/Mol)
                                   88.26920 (Kcal/Mol)
 Warning -- explicit consideration of  13 degrees of freedom as
           vibrations may cause significant error
 Vibrational temperatures:     45.35   114.44   219.23   277.22   315.36
          (Kelvin)            378.15   434.77   532.44   535.24   616.40
                              742.63   759.46   806.92   932.16  1013.59
                             1077.67  1172.91  1208.62  1229.27  1339.02
                             1362.90  1394.93  1481.10  1562.57  1639.40
                             1708.81  1708.97  1756.21  1782.20  1864.06
                             1924.67  1978.27  2031.11  2113.37  2157.97
                             2187.26  2210.36  2240.23  2376.43  2415.93
                             4345.32  4426.18  4542.22  4616.62  4637.92
                             4642.40  4683.71  5295.58

 Zero-point correction=                           0.140666 (Hartree/Particle)
 Thermal correction to Energy=                    0.150227
 Thermal correction to Enthalpy=                  0.151171
 Thermal correction to Gibbs Free Energy=         0.105119
 Sum of electronic and zero-point Energies=           -496.999386
 Sum of electronic and thermal Energies=              -496.989825
 Sum of electronic and thermal Enthalpies=            -496.988881
 Sum of electronic and thermal Free Energies=         -497.034933

                     E (Thermal)             CV                S
                      KCal/Mol        Cal/Mol-Kelvin    Cal/Mol-Kelvin
 Total                   94.269             35.072             96.925
 Electronic               0.000              0.000              0.000
 Translational            0.889              2.981             40.722
 Rotational               0.889              2.981             29.634
 Vibrational             92.491             29.110             26.570
 Vibration     1          0.594              1.983              5.731
 Vibration     2          0.600              1.963              3.902
 Vibration     3          0.619              1.900              2.642
 Vibration     4          0.635              1.850              2.202
 Vibration     5          0.647              1.812              1.966
 Vibration     6          0.670              1.741              1.643
 Vibration     7          0.694              1.670              1.405
 Vibration     8          0.742              1.534              1.080
 Vibration     9          0.744              1.530              1.071
 Vibration    10          0.790              1.408              0.864
 Vibration    11          0.871              1.214              0.619
 Vibration    12          0.883              1.188              0.592
 Vibration    13          0.916              1.116              0.522

 Optimization completed.
    -- Stationary point found.
 Normal termination of Gaussian 16 at Tue Dec  8 10:18:55 2020.

 ----------------------------------------------------------------------
 # B3LYP/6-311++G(d,p) empiricaldispersion=gd3bj scf=xqc pop=npa geom=c
 heck
 ----------------------------------------------------------------------

 -------------------------------------
 CID_123322480_JID_83_Energie_neutraal
 -------------------------------------
 Structure from the checkpoint file:  "JID_83.chk"
 Charge =  0 Multiplicity = 1

 SCF Done:  E(RB3LYP) =  -497.288461750     A.U. after   14 cycles
 Normal termination of Gaussian 16 at Tue Dec  8 10:19:41 2020.

 ----------------------------------------------------------------------
 # B3LYP/6-311++G(d,p) empiricaldispersion=gd3bj scf=xqc pop=npa geom=c
 heck
 ----------------------------------------------------------------------

 -----------------------------------
 CID_123322480_JID_83_Energie_kation
 -----------------------------------
 Structure from the checkpoint file:  "JID_83.chk"
 Charge =  1 Multiplicity = 2

 SCF Done:  E(UB3LYP) =  -497.000181555     A.U. after   19 cycles
 Normal termination of Gaussian 16 at Tue Dec  8 10:21:09 2020.
 Gaussian 16:  ES64L-G16RevA.03 25-Dec-2016

 ----------------------------------------------------------------------
 # B3LYP/6-311++G(d,p) empiricaldispersion=gd3bj scf=xqc pop=npa geom=c
 heck
 ----------------------------------------------------------------------

 ----------------------------------
 CID_123322480_JID_83_Energie_anion
 ----------------------------------
 Structure from the checkpoint file:  "JID_83.chk"
 Charge = -1 Multiplicity = 2

                         Standard orientation:
 ---------------------------------------------------------------------
 Center     Atomic      Atomic             Coordinates (Angstroms)
 Number     Number       Type             X           Y           Z
 ---------------------------------------------------------------------
      1          6           0       -3.506676   -0.810095    0.006568
      2          8           0       -2.745789    0.383659    0.021698
      3          6           0       -1.382513    0.266515    0.005212
      4          6           0       -0.667723    1.473703    0.011233
      5          6           0        0.718375    1.470942   -0.003228
      6          6           0        1.408064    0.252184   -0.022907
      7          6           0        0.715565   -0.950548   -0.032865
      8          6           0       -0.684972   -0.942095   -0.017325
      9          8           0        2.789399    0.376351   -0.032722
     10          8           0        3.424721   -0.920110   -0.052174
     11          1           0       -4.553355   -0.501180    0.020222
     12          1           0       -3.300375   -1.432030    0.888379
     13          1           0       -3.314044   -1.400370   -0.899630
     14          1           0       -1.222321    2.406131    0.026995
     15          1           0        1.278208    2.400555    0.000504
     16          1           0        1.258336   -1.885800   -0.060778
     17          1           0       -1.209908   -1.889843   -0.027139
     18          1           0        3.716087   -0.980297    0.876912
 ---------------------------------------------------------------------

 SCF Done:  E(UB3LYP) =  -497.276196079     A.U. after   32 cycles

 The electronic state is 2-A.
 Alpha  occ. eigenvalues --  -19.08654 -19.06979 -19.04963 -10.12827 -10.12600
 Alpha  occ. eigenvalues --  -10.11689 -10.07801 -10.07558 -10.07251 -10.06922
 Alpha  occ. eigenvalues --   -1.02920  -0.96569  -0.82686  -0.74632  -0.65578
 Alpha  occ. eigenvalues --   -0.64318  -0.58756  -0.52272  -0.49007  -0.44556
 Alpha  occ. eigenvalues --   -0.42732  -0.40003  -0.37900  -0.36612  -0.35203
 Alpha  occ. eigenvalues --   -0.33784  -0.32928  -0.30652  -0.29919  -0.28490
 Alpha  occ. eigenvalues --   -0.26311  -0.24822  -0.23110  -0.20152  -0.18988
 Alpha  occ. eigenvalues --   -0.15851  -0.10587   0.04632
 Alpha virt. eigenvalues --    0.06241   0.08266   0.08340   0.08820   0.10167
 Alpha virt. eigenvalues --    0.10333   0.11137   0.11574   0.11834   0.13220
 Alpha virt. eigenvalues --    0.14310   0.15894   0.16648   0.17123   0.18186

  Beta  occ. eigenvalues --  -19.08531 -19.06827 -19.04953 -10.12828 -10.12601
  Beta  occ. eigenvalues --  -10.11637 -10.07800 -10.07552 -10.07235 -10.06901
  Beta  occ. eigenvalues --   -1.02557  -0.96548  -0.82412  -0.74587  -0.65548
  Beta  occ. eigenvalues --   -0.64273  -0.58681  -0.52212  -0.48949  -0.44455
  Beta  occ. eigenvalues --   -0.42637  -0.39930  -0.37792  -0.36579  -0.35172
  Beta  occ. eigenvalues --   -0.33642  -0.32874  -0.30587  -0.29842  -0.28405
  Beta  occ. eigenvalues --   -0.26262  -0.24718  -0.23066  -0.20020  -0.18867
  Beta  occ. eigenvalues --   -0.15839  -0.10551
  Beta virt. eigenvalues --    0.07294   0.08210   0.08334   0.08523   0.09824
  Beta virt. eigenvalues --    0.10443   0.10889   0.11383   0.12150   0.12454
  Beta virt. eigenvalues --    0.13492   0.14988   0.16151   0.16463   0.17106

 Mulliken charges and spin densities:
               1          2
     1  C    1.332591  -1.647347
     2  O   -0.235731   0.062023
     3  C   -0.727079   0.307313
     4  C   -1.054706   0.651522
     5  C    0.044346  -0.041698
     6  C    0.564888  -0.915435
     7  C    0.406613  -0.417689
     8  C    1.146669  -0.714811
     9  O   -0.197552   0.051000
    10  O   -0.058868  -0.077899
    11  H   -0.693109   0.862398
    12  H   -0.346266   0.501017
    13  H   -0.300792   0.453090
    14  H    0.087124   0.079185
    15  H    0.119719   0.056241
    16  H   -0.654443   0.878422
    17  H   -0.101439   0.296583
    18  H   -0.331967   0.616086
 Sum of Mulliken charges =  -1.00000   1.00000

 Dipole moment (field-independent basis, Debye):
    X=             -0.0380    Y=              5.5695    Z=             -1.0144  Tot=              5.6613
 Quadrupole moment (field-independent basis, Debye-Ang):
   XX=           -143.9057   YY=            -87.7329   ZZ=            -81.1115
   XY=              1.9672   XZ=             -3.1129   YZ=              2.1120

 Summary of Natural Population Analysis:

                                       Natural Population
                Natural  -----------------------------------------------
    Atom  No    Charge         Core      Valence    Rydberg      Total
 -----------------------------------------------------------------------
      C    1   -0.10037      0.99960     2.09144    0.00932     3.10037
      O    2   -0.27646      0.99986     3.26642    0.01018     4.27646
      C    3    0.14484      0.99938     1.84178    0.01400     2.85516
      C    4   -0.11353      0.99953     2.10494    0.00906     3.11353
      C    5   -0.11913      0.99951     2.11095    0.00867     3.11913
      C    6    0.13760      0.99936     1.84789    0.01515     2.86240
      C    7   -0.12464      0.99952     2.11503    0.01010     3.12464
      C    8   -0.13315      0.99953     2.12463    0.00900     3.13315
      O    9   -0.13974      0.99986     3.12896    0.01092     4.13974
      O   10   -0.21000      0.99991     3.20328    0.00681     4.21000
      H   11    0.09444      0.00000     0.40372    0.00184     0.40556
      H   12    0.08532      0.00000     0.41251    0.00218     0.41468
      H   13    0.08461      0.00000     0.41338    0.00201     0.41539
      H   14    0.10410      0.00000     0.39488    0.00102     0.39590
      H   15    0.10456      0.00000     0.39448    0.00096     0.39544
      H   16    0.11823      0.00000     0.37966    0.00211     0.38177
      H   17    0.10817      0.00000     0.39019    0.00164     0.39183
      H   18    0.23518      0.00000     0.23876    0.02606     0.26482
 =======================================================================
   * Total *   -0.00000      9.99606    26.86290    0.14104    37.00000

 Normal termination of Gaussian 16 at Tue Dec  8 10:23:29 2020.
