 Gaussian 16, Revision A.03,

 -----------------------------------------------------------
 # opt freq B3LYP/6-31G(d) empiricaldispersion=gd3bj scf=xqc
 -----------------------------------------------------------

 --------------------------------
 CID_122106673_JID_10211_neutraal
 --------------------------------
 Symbolic Z-matrix:
 Charge =  0 Multiplicity = 1

 SCF Done:  E(RB3LYP) =  -913.890202940     A.U. after   15 cycles
 SCF Done:  E(RB3LYP) =  -913.897618777     A.U. after   13 cycles
 SCF Done:  E(RB3LYP) =  -913.898041490     A.U. after   13 cycles
 SCF Done:  E(RB3LYP) =  -913.900568472     A.U. after   13 cycles
 SCF Done:  E(RB3LYP) =  -913.901324488     A.U. after   13 cycles
 SCF Done:  E(RB3LYP) =  -913.901840974     A.U. after   11 cycles
 SCF Done:  E(RB3LYP) =  -913.902009179     A.U. after   12 cycles
 SCF Done:  E(RB3LYP) =  -913.902070548     A.U. after   12 cycles
 SCF Done:  E(RB3LYP) =  -913.902104847     A.U. after   10 cycles
 SCF Done:  E(RB3LYP) =  -913.902129034     A.U. after   10 cycles
 SCF Done:  E(RB3LYP) =  -913.902329892     A.U. after    9 cycles
 SCF Done:  E(RB3LYP) =  -913.902331027     A.U. after    9 cycles
 SCF Done:  E(RB3LYP) =  -913.902332782     A.U. after   10 cycles
 SCF Done:  E(RB3LYP) =  -913.902332863     A.U. after    8 cycles
 SCF Done:  E(RB3LYP) =  -913.902332891     A.U. after    7 cycles
 Optimization completed.
    -- Stationary point found.
 Normal termination of Gaussian 16 at Sun Dec 13 13:02:02 2020.

 --------------------------------------------------------------------
 #N Geom=AllCheck Guess=TCheck SCRF=Check GenChk RB3LYP/6-31G(d) Freq
 --------------------------------------------------------------------

 Structure from the checkpoint file:  "JID_10211.chk"
 --------------------------------
 CID_122106673_JID_10211_neutraal
 --------------------------------
 Charge =  0 Multiplicity = 1

 SCF Done:  E(RB3LYP) =  -913.902332891     A.U. after    1 cycles

  Exact polarizability: 211.408  10.750 201.323  11.253   1.507 113.220
 Approx polarizability: 308.770  22.436 315.471  17.697   1.856 177.282

                      1                      2                      3
                      A                      A                      A
 Frequencies --     20.5530                25.4474                56.4743
 Red. masses --      6.3356                 6.1010                 3.6425
 Frc consts  --      0.0016                 0.0023                 0.0068
 IR Inten    --      1.2112                 0.2015                 0.6604

                      4                      5                      6
                      A                      A                      A
 Frequencies --     71.6593                90.6811               121.4075
 Red. masses --      1.1184                 4.5961                 4.3401
 Frc consts  --      0.0034                 0.0223                 0.0377
 IR Inten    --      1.0514                 0.0779                 1.2587

                      7                      8                      9
                      A                      A                      A
 Frequencies --    143.1036               153.6640               160.3628
 Red. masses --      4.1302                 4.2343                 4.1323
 Frc consts  --      0.0498                 0.0589                 0.0626
 IR Inten    --      1.2169                 1.4148                 3.4621

                     10                     11                     12
                      A                      A                      A
 Frequencies --    235.5203               243.8391               251.5058
 Red. masses --      6.9984                 3.4090                 1.3701
 Frc consts  --      0.2287                 0.1194                 0.0511
 IR Inten    --      0.9168                 1.1486                 0.3442

                     13                     14                     15
                      A                      A                      A
 Frequencies --    265.2792               285.3426               326.4321
 Red. masses --      2.3732                 4.1687                 3.9164
 Frc consts  --      0.0984                 0.2000                 0.2459
 IR Inten    --      0.3365                 8.3978                 3.7972

                     16                     17                     18
                      A                      A                      A
 Frequencies --    332.5243               342.3167               354.1781
 Red. masses --      2.9154                 3.4680                 3.0363
 Frc consts  --      0.1899                 0.2394                 0.2244
 IR Inten    --      0.7258                 3.0685                 5.0448

                     19                     20                     21
                      A                      A                      A
 Frequencies --    402.8977               428.8804               466.7256
 Red. masses --      2.2672                 1.8697                 3.3290
 Frc consts  --      0.2168                 0.2026                 0.4273
 IR Inten    --      2.0254                 4.1156                 7.8701

                     22                     23                     24
                      A                      A                      A
 Frequencies --    486.3791               503.9219               525.3294
 Red. masses --      1.3816                 2.8968                 4.4950
 Frc consts  --      0.1926                 0.4334                 0.7309
 IR Inten    --     79.4064                16.1050                 2.1363

                     25                     26                     27
                      A                      A                      A
 Frequencies --    543.7173               571.4712               611.2432
 Red. masses --      5.3311                 4.3809                 4.0690
 Frc consts  --      0.9286                 0.8430                 0.8957
 IR Inten    --      0.6695                15.1707                 9.3763

                     28                     29                     30
                      A                      A                      A
 Frequencies --    620.1359               639.4825               653.0423
 Red. masses --      2.8240                 1.8979                 4.0571
 Frc consts  --      0.6399                 0.4573                 1.0194
 IR Inten    --      6.9341                47.3658                 0.7376

                     31                     32                     33
                      A                      A                      A
 Frequencies --    664.7235               686.0004               716.8132
 Red. masses --      4.2556                 5.3704                 2.7257
 Frc consts  --      1.1079                 1.4890                 0.8252
 IR Inten    --     18.3585                 1.8413                61.2273

                     34                     35                     36
                      A                      A                      A
 Frequencies --    730.1231               752.2833               794.1670
 Red. masses --      1.4241                 3.3389                 2.9363
 Frc consts  --      0.4473                 1.1133                 1.0911
 IR Inten    --     65.2214                 7.7555                 3.6912

                     37                     38                     39
                      A                      A                      A
 Frequencies --    813.8276               816.2259               858.2083
 Red. masses --      6.3015                 6.7942                 1.4808
 Frc consts  --      2.4590                 2.6669                 0.6426
 IR Inten    --      4.0164                16.9281                 3.0596

                     40                     41                     42
                      A                      A                      A
 Frequencies --    864.0573               885.7826               910.0124
 Red. masses --      2.6288                 2.3773                 1.8498
 Frc consts  --      1.1564                 1.0990                 0.9025
 IR Inten    --      4.5624                 7.9343                20.0968

                     43                     44                     45
                      A                      A                      A
 Frequencies --    924.9441               927.9599               978.7185
 Red. masses --      2.3068                 4.1325                 2.1963
 Frc consts  --      1.1628                 2.0966                 1.2395
 IR Inten    --     10.1970                19.5254                 7.3263

                     46                     47                     48
                      A                      A                      A
 Frequencies --    997.3348              1002.7850              1030.6483
 Red. masses --      1.9621                 2.5881                 2.6690
 Frc consts  --      1.1499                 1.5334                 1.6704
 IR Inten    --      0.1769                 5.9934                 2.0257

                     49                     50                     51
                      A                      A                      A
 Frequencies --   1038.5148              1075.1671              1080.9574
 Red. masses --      1.7413                 1.5900                 1.8704
 Frc consts  --      1.1065                 1.0829                 1.2876
 IR Inten    --     47.4075                 3.8225                53.7614

                     52                     53                     54
                      A                      A                      A
 Frequencies --   1099.5753              1105.7936              1121.6858
 Red. masses --      1.6743                 1.6986                 1.5589
 Frc consts  --      1.1927                 1.2237                 1.1556
 IR Inten    --     38.5612                28.7816                 8.6613

                     55                     56                     57
                      A                      A                      A
 Frequencies --   1144.8482              1158.3467              1165.1269
 Red. masses --      1.4722                 1.8475                 2.0437
 Frc consts  --      1.1369                 1.4606                 1.6346
 IR Inten    --     20.9018                36.9263                51.8621

                     58                     59                     60
                      A                      A                      A
 Frequencies --   1186.0465              1205.1461              1233.4954
 Red. masses --      2.1509                 2.1481                 2.4251
 Frc consts  --      1.7827                 1.8382                 2.1740
 IR Inten    --     65.4485                48.2061                28.4623

                     61                     62                     63
                      A                      A                      A
 Frequencies --   1273.1597              1288.7922              1308.0792
 Red. masses --      2.0213                 1.2034                 1.7792
 Frc consts  --      1.9304                 1.1777                 1.7936
 IR Inten    --     35.8427                 4.2078                 6.2499

                     64                     65                     66
                      A                      A                      A
 Frequencies --   1322.8351              1333.1326              1344.2580
 Red. masses --      1.6831                 1.6577                 2.3059
 Frc consts  --      1.7353                 1.7358                 2.4551
 IR Inten    --    143.3568                30.4675                 5.4696

                     67                     68                     69
                      A                      A                      A
 Frequencies --   1347.8831              1357.9844              1377.7432
 Red. masses --      3.6767                 2.0135                 1.3100
 Frc consts  --      3.9357                 2.1878                 1.4651
 IR Inten    --      2.9205                 6.8896                 2.0288

                     70                     71                     72
                      A                      A                      A
 Frequencies --   1393.4311              1404.6096              1410.6046
 Red. masses --      1.6607                 1.3992                 1.7635
 Frc consts  --      1.8998                 1.6265                 2.0675
 IR Inten    --     22.3165                20.2504                18.0907

                     73                     74                     75
                      A                      A                      A
 Frequencies --   1415.3931              1430.2023              1438.1830
 Red. masses --      2.1608                 1.8974                 2.0191
 Frc consts  --      2.5504                 2.2867                 2.4606
 IR Inten    --     13.1104               115.9930                38.9096

                     76                     77                     78
                      A                      A                      A
 Frequencies --   1438.9131              1447.7868              1492.9179
 Red. masses --      2.2413                 1.2721                 1.8541
 Frc consts  --      2.7341                 1.5710                 2.4348
 IR Inten    --     18.7458                10.7258                85.4841

                     79                     80                     81
                      A                      A                      A
 Frequencies --   1505.9159              1508.5116              1509.5084
 Red. masses --      2.2217                 1.0467                 1.4724
 Frc consts  --      2.9685                 1.4033                 1.9768
 IR Inten    --    114.1292                 5.9449                 1.2027

                     82                     83                     84
                      A                      A                      A
 Frequencies --   1517.9778              1521.9673              1526.0776
 Red. masses --      1.0741                 1.4085                 1.1694
 Frc consts  --      1.4583                 1.9222                 1.6046
 IR Inten    --     36.3095               132.1933                45.4008

                     85                     86                     87
                      A                      A                      A
 Frequencies --   1538.0054              1542.1610              1553.4134
 Red. masses --      1.1263                 1.1310                 4.6854
 Frc consts  --      1.5697                 1.5848                 6.6615
 IR Inten    --      2.2044                 9.5879                49.0162

                     88                     89                     90
                      A                      A                      A
 Frequencies --   1608.8966              1638.3017              1844.0487
 Red. masses --      6.4748                 6.0494                 9.8651
 Frc consts  --      9.8749                 9.5664                19.7651
 IR Inten    --    376.8172               154.4354               251.2757

                     91                     92                     93
                      A                      A                      A
 Frequencies --   2973.7364              2982.0338              3019.4733
 Red. masses --      1.0763                 1.0746                 1.0812
 Frc consts  --      5.6076                 5.6300                 5.8078
 IR Inten    --     43.1049                77.4360                15.4180

                     94                     95                     96
                      A                      A                      A
 Frequencies --   3031.6791              3051.5402              3057.9163
 Red. masses --      1.0822                 1.0690                 1.0378
 Frc consts  --      5.8606                 5.8652                 5.7176
 IR Inten    --     29.5736                78.8947                18.4228

                     97                     98                     99
                      A                      A                      A
 Frequencies --   3059.0515              3112.2409              3117.8972
 Red. masses --      1.0425                 1.1003                 1.0956
 Frc consts  --      5.7475                 6.2790                 6.2749
 IR Inten    --     19.7783                15.5332                13.7234

                    100                    101                    102
                      A                      A                      A
 Frequencies --   3125.1270              3146.0276              3163.1043
 Red. masses --      1.0982                 1.1019                 1.1017
 Frc consts  --      6.3195                 6.4254                 6.4942
 IR Inten    --     29.3336                31.3110                13.5400

                    103                    104                    105
                      A                      A                      A
 Frequencies --   3176.2318              3227.9100              3276.4309
 Red. masses --      1.0885                 1.0860                 1.0926
 Frc consts  --      6.4697                 6.6670                 6.9108
 IR Inten    --      5.6302                 3.6299                 1.1455

                    106                    107                    108
                      A                      A                      A
 Frequencies --   3301.6807              3667.5489              3686.9856
 Red. masses --      1.1001                 1.0803                 1.0641
 Frc consts  --      7.0655                 8.5616                 8.5226
 IR Inten    --      4.9567                81.5914                54.9672

 - Thermochemistry -
 -------------------
 Temperature   298.150 Kelvin.  Pressure   1.00000 Atm.
 Atom     1 has atomic number  6 and mass  12.00000

 Molecular mass:   274.14298 amu.
 Principal axes and moments of inertia in atomic units:
                           1         2         3
     Eigenvalues --  3249.823066910.598739186.95140
           X            0.99996   0.00715   0.00494
           Y           -0.00711   0.99993  -0.00943
           Z           -0.00500   0.00939   0.99994
 This molecule is an asymmetric top.
 Rotational symmetry number  1.
 Warning -- assumption of classical behavior for rotation
           may cause significant error
 Rotational temperatures (Kelvin)      0.02665     0.01253     0.00943
 Rotational constants (GHZ):           0.55534     0.26116     0.19645
 Zero-point vibrational energy     835712.1 (Joules/Mol)
                                  199.73998 (Kcal/Mol)
 Warning -- explicit consideration of  28 degrees of freedom as
           vibrations may cause significant error
 Vibrational temperatures:     29.57    36.61    81.25   103.10   130.47
          (Kelvin)            174.68   205.89   221.09   230.73   338.86
                              350.83   361.86   381.68   410.54   469.66
                              478.43   492.52   509.58   579.68   617.06
                              671.51   699.79   725.03   755.83   782.29
                              822.22   879.44   892.24   920.07   939.58
                              956.39   987.00  1031.33  1050.48  1082.37
                             1142.63  1170.92  1174.37  1234.77  1243.19
                             1274.44  1309.30  1330.79  1335.13  1408.16
                             1434.94  1442.78  1482.87  1494.19  1546.93
                             1555.26  1582.04  1590.99  1613.86  1647.18
                             1666.60  1676.36  1706.46  1733.94  1774.72
                             1831.79  1854.28  1882.03  1903.26  1918.08
                             1934.09  1939.30  1953.84  1982.27  2004.84
                             2020.92  2029.55  2036.43  2057.74  2069.22
                             2070.28  2083.04  2147.98  2166.68  2170.41
                             2171.85  2184.03  2189.77  2195.69  2212.85
                             2218.83  2235.02  2314.84  2357.15  2653.17
                             4278.54  4290.48  4344.35  4361.91  4390.49
                             4399.66  4401.29  4477.82  4485.96  4496.36
                             4526.43  4551.00  4569.89  4644.24  4714.05
                             4750.38  5276.78  5304.75

 Zero-point correction=                           0.318306 (Hartree/Particle)
 Thermal correction to Energy=                    0.335950
 Thermal correction to Enthalpy=                  0.336895
 Thermal correction to Gibbs Free Energy=         0.271592
 Sum of electronic and zero-point Energies=           -913.584027
 Sum of electronic and thermal Energies=              -913.566382
 Sum of electronic and thermal Enthalpies=            -913.565438
 Sum of electronic and thermal Free Energies=         -913.630741

                     E (Thermal)             CV                S
                      KCal/Mol        Cal/Mol-Kelvin    Cal/Mol-Kelvin
 Total                  210.812             69.031            137.441
 Electronic               0.000              0.000              0.000
 Translational            0.889              2.981             42.724
 Rotational               0.889              2.981             33.689
 Vibrational            209.035             63.070             61.028
 Vibration     1          0.593              1.986              6.580
 Vibration     2          0.593              1.985              6.156
 Vibration     3          0.596              1.975              4.577
 Vibration     4          0.598              1.968              4.107
 Vibration     5          0.602              1.956              3.645
 Vibration     6          0.609              1.931              3.078
 Vibration     7          0.616              1.910              2.762
 Vibration     8          0.619              1.899              2.626
 Vibration     9          0.622              1.891              2.546
 Vibration    10          0.655              1.786              1.836
 Vibration    11          0.659              1.773              1.775
 Vibration    12          0.663              1.760              1.720
 Vibration    13          0.671              1.737              1.627
 Vibration    14          0.683              1.701              1.501
 Vibration    15          0.710              1.623              1.278
 Vibration    16          0.714              1.611              1.248
 Vibration    17          0.721              1.591              1.201
 Vibration    18          0.730              1.567              1.148
 Vibration    19          0.768              1.464              0.952
 Vibration    20          0.790              1.407              0.862
 Vibration    21          0.824              1.324              0.747
 Vibration    22          0.842              1.280              0.693
 Vibration    23          0.859              1.241              0.648
 Vibration    24          0.880              1.194              0.598
 Vibration    25          0.899              1.153              0.557
 Vibration    26          0.928              1.093              0.501
 Vibration    27          0.970              1.008              0.431
 Vibration    28          0.980              0.989              0.416

 Optimization completed.
    -- Stationary point found.
 Normal termination of Gaussian 16 at Sun Dec 13 13:26:18 2020.

 ----------------------------------------------------------------------
 # B3LYP/6-311++G(d,p) empiricaldispersion=gd3bj scf=xqc pop=npa geom=c
 heck
 ----------------------------------------------------------------------

 ----------------------------------------
 CID_122106673_JID_10211_Energie_neutraal
 ----------------------------------------
 Structure from the checkpoint file:  "JID_10211.chk"
 Charge =  0 Multiplicity = 1

 SCF Done:  E(RB3LYP) =  -914.156745155     A.U. after   15 cycles
 Normal termination of Gaussian 16 at Sun Dec 13 13:36:47 2020.

 ----------------------------------------------------------------------
 # B3LYP/6-311++G(d,p) empiricaldispersion=gd3bj scf=xqc pop=npa geom=c
 heck
 ----------------------------------------------------------------------

 --------------------------------------
 CID_122106673_JID_10211_Energie_kation
 --------------------------------------
 Structure from the checkpoint file:  "JID_10211.chk"
 Charge =  1 Multiplicity = 2

 SCF Done:  E(UB3LYP) =  -913.890340298     A.U. after   23 cycles
 Normal termination of Gaussian 16 at Sun Dec 13 13:59:54 2020.
 Gaussian 16:  ES64L-G16RevA.03 25-Dec-2016

 ----------------------------------------------------------------------
 # B3LYP/6-311++G(d,p) empiricaldispersion=gd3bj scf=xqc pop=npa geom=c
 heck
 ----------------------------------------------------------------------

 -------------------------------------
 CID_122106673_JID_10211_Energie_anion
 -------------------------------------
 Structure from the checkpoint file:  "JID_10211.chk"
 Charge = -1 Multiplicity = 2

                         Standard orientation:
 ---------------------------------------------------------------------
 Center     Atomic      Atomic             Coordinates (Angstroms)
 Number     Number       Type             X           Y           Z
 ---------------------------------------------------------------------
      1          6           0       -2.444171   -1.734207    1.530151
      2          6           0       -2.458855   -1.945685    0.010455
      3          6           0       -3.322871   -0.931283   -0.766449
      4          6           0       -2.669345    0.454757   -0.904239
      5          6           0       -1.204141    0.328881   -1.354815
      6          7           0       -0.466802   -0.600264   -0.507128
      7          6           0       -1.028874   -1.952524   -0.548114
      8          6           0        0.884929   -0.434885   -0.264356
      9          7           0        1.608868   -1.549798   -0.090839
     10          6           0        2.931860   -1.470813    0.153793
     11          7           0        3.657934   -0.354804    0.228192
     12          6           0        2.919044    0.752365    0.077574
     13          6           0        1.522739    0.832237   -0.151913
     14          6           0        1.188766    2.234671   -0.163760
     15          6           0        2.355713    2.926597    0.030667
     16          7           0        3.403158    2.030356    0.166053
     17          6           0        3.646160   -2.781571    0.343384
     18          6           0       -2.865557    1.307703    0.338622
     19          8           0       -3.687288    1.120196    1.206961
     20          8           0       -2.055948    2.399910    0.349019
     21          1           0       -1.963626   -2.588583    2.020879
     22          1           0       -3.456820   -1.627416    1.929340
     23          1           0       -1.882654   -0.837731    1.805430
     24          1           0       -2.882832   -2.939936   -0.186134
     25          1           0       -3.478193   -1.318778   -1.781707
     26          1           0       -4.307458   -0.828251   -0.301978
     27          1           0       -3.194169    1.012209   -1.695131
     28          1           0       -0.714499    1.296241   -1.373679
     29          1           0       -1.206309   -0.055517   -2.389411
     30          1           0       -0.379195   -2.606939    0.029547
     31          1           0       -1.024733   -2.319796   -1.588543
     32          1           0        0.211727    2.681637   -0.253715
     33          1           0        2.530484    3.990822    0.091790
     34          1           0        4.369866    2.250378    0.350604
     35          1           0        4.710857   -2.611312    0.513697
     36          1           0        3.224009   -3.324503    1.196835
     37          1           0        3.514869   -3.419388   -0.537854
     38          1           0       -2.279909    2.890128    1.162253
 ---------------------------------------------------------------------

 SCF Done:  E(UB3LYP) =  -914.150594710     A.U. after   33 cycles
 SCF Done:  E(UB3LYP) =  -914.150594710     a.u. after    1 cycles

 The electronic state is 2-A.
 Alpha  occ. eigenvalues --  -19.07532 -19.01673 -14.26378 -14.23820 -14.20105
 Alpha  occ. eigenvalues --  -14.19350 -10.20479 -10.15119 -10.13808 -10.13647
 Alpha  occ. eigenvalues --  -10.10952 -10.10768 -10.09678 -10.09604 -10.08196
 Alpha  occ. eigenvalues --  -10.07770 -10.07346 -10.07345 -10.06906 -10.05930
 Alpha  occ. eigenvalues --   -1.01488  -0.92442  -0.90763  -0.87735  -0.84540
 Alpha  occ. eigenvalues --   -0.77283  -0.72155  -0.69839  -0.68892  -0.66613
 Alpha  occ. eigenvalues --   -0.61107  -0.59592  -0.58897  -0.57654  -0.53083
 Alpha  occ. eigenvalues --   -0.50970  -0.50277  -0.49788  -0.46698  -0.44901
 Alpha  occ. eigenvalues --   -0.42950  -0.40087  -0.39687  -0.38747  -0.38266
 Alpha  occ. eigenvalues --   -0.37090  -0.35789  -0.35374  -0.34710  -0.33690
 Alpha  occ. eigenvalues --   -0.33112  -0.32797  -0.32499  -0.32365  -0.31414
 Alpha  occ. eigenvalues --   -0.30605  -0.30010  -0.29699  -0.28736  -0.27643
 Alpha  occ. eigenvalues --   -0.27039  -0.26386  -0.24512  -0.23504  -0.23115
 Alpha  occ. eigenvalues --   -0.22413  -0.22123  -0.19775  -0.18573  -0.15970
 Alpha  occ. eigenvalues --   -0.15379  -0.15225  -0.10748   0.03779
 Alpha virt. eigenvalues --    0.05434   0.06645   0.07083   0.07374   0.07766
 Alpha virt. eigenvalues --    0.08553   0.09037   0.09344   0.09622   0.09820
 Alpha virt. eigenvalues --    0.10474   0.10764   0.11111   0.11950   0.12424

  Beta  occ. eigenvalues --  -19.07503 -19.01623 -14.26364 -14.23837 -14.20050
  Beta  occ. eigenvalues --  -14.19351 -10.20397 -10.15036 -10.13791 -10.13645
  Beta  occ. eigenvalues --  -10.10920 -10.10722 -10.09671 -10.09592 -10.08193
  Beta  occ. eigenvalues --  -10.07767 -10.07346 -10.07326 -10.06900 -10.05922
  Beta  occ. eigenvalues --   -1.01396  -0.92357  -0.90714  -0.87690  -0.84498
  Beta  occ. eigenvalues --   -0.77216  -0.72106  -0.69792  -0.68850  -0.66569
  Beta  occ. eigenvalues --   -0.61065  -0.59565  -0.58820  -0.57534  -0.53046
  Beta  occ. eigenvalues --   -0.50900  -0.50246  -0.49730  -0.46647  -0.44842
  Beta  occ. eigenvalues --   -0.42888  -0.40039  -0.39593  -0.38637  -0.38196
  Beta  occ. eigenvalues --   -0.37039  -0.35669  -0.35288  -0.34670  -0.33648
  Beta  occ. eigenvalues --   -0.33076  -0.32748  -0.32456  -0.32318  -0.31368
  Beta  occ. eigenvalues --   -0.30549  -0.29977  -0.29676  -0.28682  -0.27552
  Beta  occ. eigenvalues --   -0.26963  -0.26358  -0.24448  -0.23359  -0.23065
  Beta  occ. eigenvalues --   -0.22336  -0.21946  -0.19714  -0.18512  -0.15884
  Beta  occ. eigenvalues --   -0.15348  -0.15166  -0.10626
  Beta virt. eigenvalues --    0.06119   0.06511   0.07153   0.07438   0.07801
  Beta virt. eigenvalues --    0.08183   0.08999   0.09334   0.09706   0.09922
  Beta virt. eigenvalues --    0.10175   0.10688   0.11025   0.11093   0.11920

 Mulliken charges and spin densities:
               1          2
     1  C   -0.418669  -0.216564
     2  C    0.204146   0.178655
     3  C    0.354364  -1.137751
     4  C    0.723953  -0.097072
     5  C   -0.421673  -0.214828
     6  N    0.479414  -0.097294
     7  C   -0.312518  -0.156921
     8  C    0.348336  -0.675185
     9  N   -0.032166  -0.025890
    10  C    0.120441  -0.281920
    11  N   -0.094522   0.009483
    12  C   -0.578297   0.775811
    13  C    0.191409   0.216998
    14  C    0.145142  -0.843668
    15  C    0.187127  -0.517035
    16  N   -0.240196   0.054320
    17  C   -0.159792  -0.161757
    18  C   -0.211119  -0.188605
    19  O   -0.261888   0.022803
    20  O   -0.152046   0.009067
    21  H    0.083331   0.028703
    22  H    0.139342   0.023382
    23  H    0.115842   0.077512
    24  H   -0.028753   0.222711
    25  H   -0.099521   0.251593
    26  H    0.132955   0.066077
    27  H   -0.697071   0.978243
    28  H   -0.199563   0.368328
    29  H   -0.373746   0.574530
    30  H    0.245203  -0.023146
    31  H    0.004223   0.146416
    32  H    0.403663  -0.205110
    33  H   -0.969699   1.156751
    34  H   -0.022581   0.336901
    35  H    0.150660  -0.003244
    36  H    0.133674   0.015366
    37  H    0.134583   0.021431
    38  H   -0.023988   0.310908
 Sum of Mulliken charges =  -1.00000   1.00000

 Dipole moment (field-independent basis, Debye):
    X=              1.4877    Y=             -4.3737    Z=              2.5264  Tot=              5.2655
 Quadrupole moment (field-independent basis, Debye-Ang):
   XX=           -193.3564   YY=           -166.8678   ZZ=           -153.3644
   XY=             -5.7962   XZ=             -5.2762   YZ=              0.7088

 Summary of Natural Population Analysis:

                                       Natural Population
                Natural  -----------------------------------------------
    Atom  No    Charge         Core      Valence    Rydberg      Total
 -----------------------------------------------------------------------
      C    1   -0.28522      0.99965     2.28053    0.00505     3.28522
      C    2   -0.11599      0.99959     2.10562    0.01077     3.11599
      C    3   -0.18755      0.99960     2.17687    0.01108     3.18755
      C    4   -0.16214      0.99953     2.14926    0.01335     3.16214
      C    5   -0.07898      0.99958     2.06744    0.01196     3.07898
      N    6   -0.25244      0.99964     2.74219    0.01061     3.75244
      C    7   -0.08437      0.99959     2.07349    0.01129     3.08437
      C    8    0.25040      0.99949     1.73680    0.01332     2.74960
      N    9   -0.29642      0.99963     2.78745    0.00934     3.79642
      C   10    0.22082      0.99964     1.76332    0.01621     2.77918
      N   11   -0.27337      0.99964     2.76448    0.00925     3.77337
      C   12    0.19616      0.99950     1.78845    0.01589     2.80384
      C   13   -0.09839      0.99945     2.09066    0.00829     3.09839
      C   14   -0.14158      0.99954     2.13300    0.00904     3.14158
      C   15    0.00121      0.99957     1.98652    0.01270     2.99879
      N   16   -0.27452      0.99965     2.76523    0.00964     3.77452
      C   17   -0.29993      0.99963     2.29502    0.00528     3.29993
      C   18    0.42225      0.99968     1.55215    0.02593     2.57775
      O   19   -0.30675      0.99987     3.30104    0.00584     4.30675
      O   20   -0.35026      0.99987     3.34358    0.00681     4.35026
      H   21    0.09421      0.00000     0.40500    0.00079     0.40579
      H   22    0.10215      0.00000     0.39711    0.00074     0.39785
      H   23    0.10296      0.00000     0.39602    0.00102     0.39704
      H   24    0.09685      0.00000     0.40226    0.00089     0.40315
      H   25    0.10186      0.00000     0.39661    0.00153     0.39814
      H   26    0.10926      0.00000     0.38965    0.00109     0.39074
      H   27    0.12426      0.00000     0.37135    0.00439     0.37574
      H   28    0.11238      0.00000     0.38495    0.00267     0.38762
      H   29    0.09259      0.00000     0.40543    0.00199     0.40741
      H   30    0.11627      0.00000     0.38231    0.00142     0.38373
      H   31    0.09029      0.00000     0.40840    0.00132     0.40971
      H   32    0.11632      0.00000     0.38228    0.00141     0.38368
      H   33    0.10207      0.00000     0.39581    0.00212     0.39793
      H   34    0.20313      0.00000     0.29382    0.00305     0.29687
      H   35    0.10367      0.00000     0.39550    0.00083     0.39633
      H   36    0.10339      0.00000     0.39557    0.00104     0.39661
      H   37    0.10400      0.00000     0.39490    0.00109     0.39600
      H   38    0.24144      0.00000     0.25481    0.00375     0.25856
 =======================================================================
   * Total *   -0.00000     19.99236    52.75486    0.25279    73.00000

 Normal termination of Gaussian 16 at Sun Dec 13 14:34:01 2020.
