 Gaussian 16, Revision A.03,

 -----------------------------------------------------------
 # opt freq B3LYP/6-31G(d) empiricaldispersion=gd3bj scf=xqc
 -----------------------------------------------------------

 ------------------------------
 CID_82502552_JID_1421_neutraal
 ------------------------------
 Symbolic Z-matrix:
 Charge =  0 Multiplicity = 1

 SCF Done:  E(RB3LYP) =  -476.914826407     A.U. after   14 cycles
 SCF Done:  E(RB3LYP) =  -476.917755228     A.U. after   12 cycles
 SCF Done:  E(RB3LYP) =  -476.918086340     A.U. after   11 cycles
 SCF Done:  E(RB3LYP) =  -476.918317994     A.U. after   11 cycles
 SCF Done:  E(RB3LYP) =  -476.918432785     A.U. after   11 cycles
 SCF Done:  E(RB3LYP) =  -476.918461045     A.U. after   11 cycles
 SCF Done:  E(RB3LYP) =  -476.918595960     A.U. after   11 cycles
 SCF Done:  E(RB3LYP) =  -476.918813233     A.U. after   12 cycles
 SCF Done:  E(RB3LYP) =  -476.918834166     A.U. after   10 cycles
 SCF Done:  E(RB3LYP) =  -476.918848862     A.U. after   10 cycles
 SCF Done:  E(RB3LYP) =  -476.918857660     A.U. after    8 cycles
 SCF Done:  E(RB3LYP) =  -476.918857852     A.U. after    8 cycles
 SCF Done:  E(RB3LYP) =  -476.918857928     A.U. after    8 cycles
 SCF Done:  E(RB3LYP) =  -476.918857988     A.U. after    8 cycles
 SCF Done:  E(RB3LYP) =  -476.918858003     A.U. after    7 cycles
 Optimization completed.
    -- Stationary point found.

 1\1\GINC-NODE120\FOpt\RB3LYP\6-31G(d)\C8H13N3\VSC10255\08-Dec-2020\0\\
 # opt freq B3LYP/6-31G(d) empiricaldispersion=gd3bj scf=xqc\\CID_82502
 552_JID_1421_neutraal\\0,1\C,1.0525206515,0.2850267297,-0.132231681\C,
 0.8458456376,1.1877663413,1.0471033821\C,-0.0266392773,2.1946031925,1.
 0991857579\C,-0.2069341561,3.0836067369,2.2983124963\N,0.082233178,4.4
 825392227,2.0059169836\C,-0.8009809861,5.4702581688,1.6945917929\C,-0.
 059602633,6.5977834476,1.3864511096\C,1.2833960316,6.1742953992,1.5463
 470407\N,1.3669108035,4.8958827693,1.9135037529\C,-0.5551746569,7.9560

 Normal termination of Gaussian 16 at Tue Dec  8 19:59:13 2020.

 --------------------------------------------------------------------
 #N Geom=AllCheck Guess=TCheck SCRF=Check GenChk RB3LYP/6-31G(d) Freq
 --------------------------------------------------------------------

 Structure from the checkpoint file:  "JID_1421.chk"
 ------------------------------
 CID_82502552_JID_1421_neutraal
 ------------------------------
 Charge =  0 Multiplicity = 1

 SCF Done:  E(RB3LYP) =  -476.918858003     A.U. after    1 cycles

  Exact polarizability: 144.900  -4.069  87.489   8.681  -5.936  76.659
 Approx polarizability: 178.174  -7.108 143.922  20.895 -15.648 114.817

                      1                      2                      3
                      A                      A                      A
 Frequencies --     24.6526                38.0133                57.3316
 Red. masses --      3.9616                 3.4556                 2.7477
 Frc consts  --      0.0014                 0.0029                 0.0053
 IR Inten    --      2.2880                 2.0600                 0.2223

                      4                      5                      6
                      A                      A                      A
 Frequencies --     95.8792               153.9326               198.7862
 Red. masses --      1.8676                 3.0867                 3.1062
 Frc consts  --      0.0101                 0.0431                 0.0723
 IR Inten    --      0.2676                 1.6940                 1.5438

                      7                      8                      9
                      A                      A                      A
 Frequencies --    210.2048               226.0555               271.1287
 Red. masses --      1.2845                 2.3674                 2.1274
 Frc consts  --      0.0334                 0.0713                 0.0921
 IR Inten    --      0.6629                 9.8423                11.8896

                     10                     11                     12
                      A                      A                      A
 Frequencies --    315.4043               351.5816               381.0773
 Red. masses --      1.5512                 3.2476                 2.7818
 Frc consts  --      0.0909                 0.2365                 0.2380
 IR Inten    --     37.9229                 2.3389                 3.5402

                     13                     14                     15
                      A                      A                      A
 Frequencies --    464.7020               510.4151               633.6445
 Red. masses --      3.6230                 2.5555                 3.1815
 Frc consts  --      0.4610                 0.3923                 0.7526
 IR Inten    --     12.4371                 2.3291                 6.2759

                     16                     17                     18
                      A                      A                      A
 Frequencies --    651.7131               695.4462               739.6253
 Red. masses --      5.0959                 3.2667                 2.3516
 Frc consts  --      1.2752                 0.9309                 0.7580
 IR Inten    --      2.4648                 6.8957                15.2693

                     19                     20                     21
                      A                      A                      A
 Frequencies --    780.4778               811.8949               872.6394
 Red. masses --      1.3472                 2.1002                 1.2414
 Frc consts  --      0.4835                 0.8156                 0.5570
 IR Inten    --     20.6358                15.2566                76.3415

                     22                     23                     24
                      A                      A                      A
 Frequencies --    883.5748               919.7246               974.7520
 Red. masses --      1.3496                 1.9995                 1.5720
 Frc consts  --      0.6208                 0.9965                 0.8800
 IR Inten    --     52.7783                 7.0039                 1.8027

                     25                     26                     27
                      A                      A                      A
 Frequencies --   1006.2316              1010.1165              1016.0429
 Red. masses --      1.0825                 2.7781                 1.9478
 Frc consts  --      0.6458                 1.6701                 1.1847
 IR Inten    --     31.5716                35.8025                40.1488

                     28                     29                     30
                      A                      A                      A
 Frequencies --   1031.2044              1074.3964              1080.3311
 Red. masses --      4.2487                 2.4345                 1.5613
 Frc consts  --      2.6619                 1.6557                 1.0736
 IR Inten    --      3.0924                 4.3626                 0.2955

                     31                     32                     33
                      A                      A                      A
 Frequencies --   1090.2863              1142.6309              1177.3845
 Red. masses --      3.5838                 1.8128                 1.5619
 Frc consts  --      2.5100                 1.3945                 1.2757
 IR Inten    --      2.6839                 1.4761                30.7279

                     34                     35                     36
                      A                      A                      A
 Frequencies --   1199.9844              1205.4886              1240.9541
 Red. masses --      1.5685                 1.3977                 1.5434
 Frc consts  --      1.3307                 1.1967                 1.4004
 IR Inten    --      4.8551                 1.9848                 1.1660

                     37                     38                     39
                      A                      A                      A
 Frequencies --   1307.4734              1324.1732              1346.2336
 Red. masses --      1.4268                 1.3494                 1.3219
 Frc consts  --      1.4370                 1.3940                 1.4116
 IR Inten    --     14.2110                17.0287                 1.0776

                     40                     41                     42
                      A                      A                      A
 Frequencies --   1376.0866              1399.8561              1408.8916
 Red. masses --      1.8650                 1.8982                 1.7826
 Frc consts  --      2.0807                 2.1916                 2.0847
 IR Inten    --     20.6191                 0.9355                50.2592

                     43                     44                     45
                      A                      A                      A
 Frequencies --   1433.4256              1442.1456              1454.9452
 Red. masses --      3.3913                 1.2759                 2.1480
 Frc consts  --      4.1055                 1.5635                 2.6790
 IR Inten    --      9.6057                 6.1071                50.6770

                     46                     47                     48
                      A                      A                      A
 Frequencies --   1485.6234              1500.8026              1509.4335
 Red. masses --      3.0843                 1.1533                 1.0450
 Frc consts  --      4.0107                 1.5306                 1.4028
 IR Inten    --     10.7139                 7.9300                 5.8615

                     49                     50                     51
                      A                      A                      A
 Frequencies --   1520.9778              1542.3439              1624.1186
 Red. masses --      1.0549                 1.0910                 5.0986
 Frc consts  --      1.4378                 1.5292                 7.9238
 IR Inten    --      9.2678                 0.2381                26.5965

                     52                     53                     54
                      A                      A                      A
 Frequencies --   1689.7615              1765.1815              2950.4003
 Red. masses --      1.1001                 5.8386                 1.0744
 Frc consts  --      1.8507                10.7185                 5.5105
 IR Inten    --     28.3258                 6.6408                89.1822

                     55                     56                     57
                      A                      A                      A
 Frequencies --   3035.5453              3038.1130              3059.4386
 Red. masses --      1.0373                 1.0865                 1.0638
 Frc consts  --      5.6316                 5.9086                 5.8669
 IR Inten    --     33.2710                42.8592                30.5875

                     58                     59                     60
                      A                      A                      A
 Frequencies --   3083.7918              3119.3715              3123.1913
 Red. masses --      1.1000                 1.0990                 1.0994
 Frc consts  --      6.1632                 6.3008                 6.3183
 IR Inten    --     22.1544                13.5116                 3.5690

                     61                     62                     63
                      A                      A                      A
 Frequencies --   3146.3808              3155.4720              3263.2001
 Red. masses --      1.0926                 1.0882                 1.0969
 Frc consts  --      6.3726                 6.3841                 6.8821
 IR Inten    --     12.9033                36.4771                 2.1819

                     64                     65                     66
                      A                      A                      A
 Frequencies --   3269.4910              3461.7675              3551.9646
 Red. masses --      1.0962                 1.0493                 1.0930
 Frc consts  --      6.9043                 7.4091                 8.1247
 IR Inten    --      3.0505                 5.8283                 1.8679

 - Thermochemistry -
 -------------------
 Temperature   298.150 Kelvin.  Pressure   1.00000 Atm.
 Atom     1 has atomic number  6 and mass  12.00000

 Molecular mass:   151.11095 amu.
 Principal axes and moments of inertia in atomic units:
                           1         2         3
     Eigenvalues --   505.362284287.528824359.04345
           X            0.99998  -0.00650  -0.00184
           Y            0.00658   0.99900   0.04411
           Z            0.00155  -0.04412   0.99902
 This molecule is an asymmetric top.
 Rotational symmetry number  1.
 Warning -- assumption of classical behavior for rotation
           may cause significant error
 Rotational temperatures (Kelvin)      0.17139     0.02020     0.01987
 Rotational constants (GHZ):           3.57118     0.42093     0.41402
 Zero-point vibrational energy     543866.1 (Joules/Mol)
                                  129.98712 (Kcal/Mol)
 Warning -- explicit consideration of  14 degrees of freedom as
           vibrations may cause significant error
 Vibrational temperatures:     35.47    54.69    82.49   137.95   221.47
          (Kelvin)            286.01   302.44   325.24   390.09   453.80
                              505.85   548.29   668.60   734.37   911.67
                              937.67  1000.59  1064.16  1122.93  1168.14
                             1255.53  1271.27  1323.28  1402.45  1447.74
                             1453.33  1461.86  1483.67  1545.82  1554.36
                             1568.68  1643.99  1693.99  1726.51  1734.43
                             1785.46  1881.16  1905.19  1936.93  1979.88
                             2014.08  2027.08  2062.38  2074.93  2093.34
                             2137.48  2159.32  2171.74  2188.35  2219.09
                             2336.74  2431.19  2539.70  4244.97  4367.47
                             4371.17  4401.85  4436.89  4488.08  4493.58
                             4526.94  4540.02  4695.02  4704.07  4980.71
                             5110.48

 Zero-point correction=                           0.207148 (Hartree/Particle)
 Thermal correction to Energy=                    0.218835
 Thermal correction to Enthalpy=                  0.219779
 Thermal correction to Gibbs Free Energy=         0.167625
 Sum of electronic and zero-point Energies=           -476.711710
 Sum of electronic and thermal Energies=              -476.700023
 Sum of electronic and thermal Enthalpies=            -476.699079
 Sum of electronic and thermal Free Energies=         -476.751233

                     E (Thermal)             CV                S
                      KCal/Mol        Cal/Mol-Kelvin    Cal/Mol-Kelvin
 Total                  137.321             41.826            109.767
 Electronic               0.000              0.000              0.000
 Translational            0.889              2.981             40.949
 Rotational               0.889              2.981             30.625
 Vibrational            135.543             35.865             38.194
 Vibration     1          0.593              1.985              6.219
 Vibration     2          0.594              1.982              5.360
 Vibration     3          0.596              1.975              4.547
 Vibration     4          0.603              1.952              3.536
 Vibration     5          0.619              1.898              2.623
 Vibration     6          0.637              1.842              2.144
 Vibration     7          0.642              1.825              2.042
 Vibration     8          0.650              1.801              1.910
 Vibration     9          0.675              1.726              1.589
 Vibration    10          0.703              1.644              1.334
 Vibration    11          0.728              1.572              1.159
 Vibration    12          0.751              1.511              1.035
 Vibration    13          0.822              1.328              0.753
 Vibration    14          0.866              1.227              0.633

 Optimization completed.
    -- Stationary point found.

 1\1\GINC-NODE120\Freq\RB3LYP\6-31G(d)\C8H13N3\VSC10255\08-Dec-2020\0\\
 #N Geom=AllCheck Guess=TCheck SCRF=Check GenChk RB3LYP/6-31G(d) Freq\\
 CID_82502552_JID_1421_neutraal\\0,1\C,1.0525206515,0.2850267297,-0.132
 231681\C,0.8458456376,1.1877663413,1.0471033821\C,-0.0266392773,2.1946
 031925,1.0991857579\C,-0.2069341561,3.0836067369,2.2983124963\N,0.0822
 33178,4.4825392227,2.0059169836\C,-0.8009809861,5.4702581688,1.6945917
 929\C,-0.059602633,6.5977834476,1.3864511096\C,1.2833960316,6.17429539
 92,1.5463470407\N,1.3669108035,4.8958827693,1.9135037529\C,-0.55517465

 Normal termination of Gaussian 16 at Tue Dec  8 20:03:41 2020.

 ----------------------------------------------------------------------
 # B3LYP/6-311++G(d,p) empiricaldispersion=gd3bj scf=xqc pop=npa geom=c
 heck
 ----------------------------------------------------------------------

 --------------------------------------
 CID_82502552_JID_1421_Energie_neutraal
 --------------------------------------
 Structure from the checkpoint file:  "JID_1421.chk"
 Charge =  0 Multiplicity = 1

 SCF Done:  E(RB3LYP) =  -477.058434107     A.U. after   14 cycles
 Normal termination of Gaussian 16 at Tue Dec  8 20:05:30 2020.

 ----------------------------------------------------------------------
 # B3LYP/6-311++G(d,p) empiricaldispersion=gd3bj scf=xqc pop=npa geom=c
 heck
 ----------------------------------------------------------------------

 ------------------------------------
 CID_82502552_JID_1421_Energie_kation
 ------------------------------------
 Structure from the checkpoint file:  "JID_1421.chk"
 Charge =  1 Multiplicity = 2

 SCF Done:  E(UB3LYP) =  -476.758446533     A.U. after   23 cycles
 Normal termination of Gaussian 16 at Tue Dec  8 20:09:41 2020.
 Gaussian 16:  ES64L-G16RevA.03 25-Dec-2016

 -----------------------------------
 CID_82502552_JID_1421_Energie_anion
 -----------------------------------
 Structure from the checkpoint file:  "JID_1421.chk"
 Charge = -1 Multiplicity = 2

                         Standard orientation:
 ---------------------------------------------------------------------
 Center     Atomic      Atomic             Coordinates (Angstroms)
 Number     Number       Type             X           Y           Z
 ---------------------------------------------------------------------
      1          6           0       -4.582237    0.634816    0.854731
      2          6           0       -3.536588    0.182099   -0.120026
      3          6           0       -2.445779   -0.517134    0.194414
      4          6           0       -1.414206   -0.953355   -0.808734
      5          7           0       -0.094115   -0.400392   -0.529957
      6          6           0        0.938185   -0.995087    0.128277
      7          6           0        1.941689   -0.049727    0.251483
      8          6           0        1.402722    1.100347   -0.377325
      9          7           0        0.171738    0.888676   -0.842074
     10          6           0        3.290828   -0.204345    0.886034
     11          7           0        4.326441    0.406853    0.040685
     12          1           0       -4.343921    0.318907    1.875592
     13          1           0       -5.570112    0.232431    0.593742
     14          1           0       -4.675710    1.728678    0.848567
     15          1           0       -3.694404    0.461414   -1.162898
     16          1           0       -2.251875   -0.793808    1.231144
     17          1           0       -1.302238   -2.044326   -0.812341
     18          1           0       -1.698104   -0.637600   -1.816154
     19          1           0        0.885608   -2.027240    0.446503
     20          1           0        1.881901    2.059189   -0.519886
     21          1           0        3.317133    0.320354    1.851130
     22          1           0        3.458524   -1.272961    1.113318
     23          1           0        5.240930    0.281872    0.472340
     24          1           0        4.356125   -0.078549   -0.854771
 ---------------------------------------------------------------------

 SCF Done:  E(UB3LYP) =  -477.043196554     A.U. after   33 cycles
 SCF Done:  E(UB3LYP) =  -477.043196554     a.u. after    1 cycles

 The electronic state is 2-A.
 Alpha  occ. eigenvalues --  -14.28568 -14.22408 -14.19310 -10.12279 -10.10019
 Alpha  occ. eigenvalues --  -10.09668 -10.08531 -10.08191 -10.07912 -10.07706
 Alpha  occ. eigenvalues --  -10.06653  -0.94702  -0.78420  -0.75049  -0.70282
 Alpha  occ. eigenvalues --   -0.68500  -0.63190  -0.57903  -0.55355  -0.48006
 Alpha  occ. eigenvalues --   -0.47334  -0.46386  -0.42240  -0.38900  -0.38163
 Alpha  occ. eigenvalues --   -0.36555  -0.35139  -0.33174  -0.32622  -0.32068
 Alpha  occ. eigenvalues --   -0.30904  -0.29733  -0.29090  -0.27979  -0.26918
 Alpha  occ. eigenvalues --   -0.26008  -0.19226  -0.16870  -0.15417  -0.14890
 Alpha  occ. eigenvalues --   -0.13395   0.04414
 Alpha virt. eigenvalues --    0.05813   0.06926   0.07935   0.08812   0.09113
 Alpha virt. eigenvalues --    0.09199   0.09734   0.10431   0.10628   0.10727
 Alpha virt. eigenvalues --    0.11440   0.12042   0.12634   0.13449   0.14610

  Beta  occ. eigenvalues --  -14.28570 -14.22398 -14.19275 -10.12263 -10.09997
  Beta  occ. eigenvalues --  -10.09638 -10.08527 -10.08182 -10.07901 -10.07672
  Beta  occ. eigenvalues --  -10.06656  -0.94693  -0.78360  -0.75030  -0.70262
  Beta  occ. eigenvalues --   -0.68473  -0.63151  -0.57840  -0.55300  -0.47972
  Beta  occ. eigenvalues --   -0.47293  -0.46340  -0.42200  -0.38856  -0.38135
  Beta  occ. eigenvalues --   -0.36510  -0.35068  -0.33140  -0.32586  -0.32026
  Beta  occ. eigenvalues --   -0.30870  -0.29700  -0.29049  -0.27943  -0.26889
  Beta  occ. eigenvalues --   -0.25965  -0.19208  -0.16850  -0.15396  -0.14855
  Beta  occ. eigenvalues --   -0.13372
  Beta virt. eigenvalues --    0.06565   0.07086   0.07824   0.08345   0.09031
  Beta virt. eigenvalues --    0.09441   0.09814   0.10117   0.10720   0.10972
  Beta virt. eigenvalues --    0.11062   0.11559   0.12403   0.13282   0.13772

 Mulliken charges and spin densities:
               1          2
     1  C    1.382888  -2.094534
     2  C   -1.137408   1.118029
     3  C    0.511426  -0.149594
     4  C    0.148484  -0.834069
     5  N    0.420144  -0.014315
     6  C   -0.157062  -0.250224
     7  C   -1.055081   1.771492
     8  C   -0.387464   0.233633
     9  N   -0.376946   0.136430
    10  C    2.872039  -3.912224
    11  N   -0.522032   0.167676
    12  H   -0.293321   0.436211
    13  H   -0.319497   0.460425
    14  H   -0.038508   0.179968
    15  H   -0.176837   0.301091
    16  H   -0.089552   0.246851
    17  H   -0.450554   0.626001
    18  H    0.169784   0.002307
    19  H   -0.845982   1.010826
    20  H    0.157516  -0.006476
    21  H   -0.108973   0.264284
    22  H   -0.673056   0.843598
    23  H   -0.060417   0.286146
    24  H    0.030409   0.176470
 Sum of Mulliken charges =  -1.00000   1.00000

 Dipole moment (field-independent basis, Debye):
    X=             -1.5801    Y=              2.8980    Z=             -2.4390  Tot=              4.1042
 Quadrupole moment (field-independent basis, Debye-Ang):
   XX=           -164.4626   YY=           -106.9914   ZZ=            -94.3945
   XY=              4.2960   XZ=             -0.0092   YZ=              3.9764

 Summary of Natural Population Analysis:

                                       Natural Population
                Natural  -----------------------------------------------
    Atom  No    Charge         Core      Valence    Rydberg      Total
 -----------------------------------------------------------------------
      C    1   -0.30081      0.99965     2.29524    0.00592     3.30081
      C    2   -0.07849      0.99952     2.06957    0.00940     3.07849
      C    3   -0.09797      0.99949     2.08903    0.00945     3.09797
      C    4   -0.09431      0.99959     2.08141    0.01331     3.09431
      N    5   -0.10828      0.99966     2.59465    0.01397     3.60828
      C    6   -0.00415      0.99949     1.99249    0.01216     3.00415
      C    7   -0.07974      0.99953     2.06878    0.01143     3.07974
      C    8   -0.00689      0.99958     1.99346    0.01385     3.00689
      N    9   -0.15266      0.99973     2.64199    0.01094     3.65266
      C   10   -0.09382      0.99960     2.08206    0.01216     3.09382
      N   11   -0.42072      0.99978     2.91025    0.01069     3.92072
      H   12    0.10211      0.00000     0.39671    0.00118     0.39789
      H   13    0.10403      0.00000     0.39454    0.00144     0.39597
      H   14    0.10273      0.00000     0.39625    0.00102     0.39727
      H   15    0.08969      0.00000     0.40912    0.00120     0.41031
      H   16    0.09453      0.00000     0.40414    0.00133     0.40547
      H   17    0.10487      0.00000     0.39340    0.00172     0.39513
      H   18    0.10346      0.00000     0.39493    0.00161     0.39654
      H   19    0.10792      0.00000     0.38940    0.00269     0.39208
      H   20    0.10064      0.00000     0.39838    0.00099     0.39936
      H   21    0.09296      0.00000     0.40572    0.00132     0.40704
      H   22    0.08687      0.00000     0.40929    0.00383     0.41313
      H   23    0.17518      0.00000     0.32229    0.00253     0.32482
      H   24    0.17284      0.00000     0.32522    0.00193     0.32716
 =======================================================================
   * Total *   -0.00000     10.99562    29.85833    0.14605    41.00000

 Normal termination of Gaussian 16 at Tue Dec  8 20:15:58 2020.
