 Gaussian 16, Revision A.03,

 -----------------------------------------------------------
 # opt freq B3LYP/6-31G(d) empiricaldispersion=gd3bj scf=xqc
 -----------------------------------------------------------

 -------------------------------
 CID_147468777_JID_2856_neutraal
 -------------------------------
 Symbolic Z-matrix:
 Charge =  0 Multiplicity = 1

 SCF Done:  E(RB3LYP) =  -486.576542712     A.U. after   13 cycles
 SCF Done:  E(RB3LYP) =  -486.585086610     A.U. after   10 cycles
 SCF Done:  E(RB3LYP) =  -486.585788514     A.U. after   10 cycles
 SCF Done:  E(RB3LYP) =  -486.585876653     A.U. after   10 cycles
 SCF Done:  E(RB3LYP) =  -486.586006192     A.U. after   10 cycles
 SCF Done:  E(RB3LYP) =  -486.586037084     A.U. after    9 cycles
 SCF Done:  E(RB3LYP) =  -486.586041901     A.U. after    8 cycles
 SCF Done:  E(RB3LYP) =  -486.586043020     A.U. after    7 cycles
 SCF Done:  E(RB3LYP) =  -486.586046373     A.U. after    8 cycles
 SCF Done:  E(RB3LYP) =  -486.586052102     A.U. after    9 cycles
 SCF Done:  E(RB3LYP) =  -486.586053875     A.U. after    8 cycles
 SCF Done:  E(RB3LYP) =  -486.586058592     A.U. after    8 cycles
 SCF Done:  E(RB3LYP) =  -486.586067430     A.U. after    9 cycles
 SCF Done:  E(RB3LYP) =  -486.586072577     A.U. after    9 cycles
 SCF Done:  E(RB3LYP) =  -486.586073724     A.U. after    8 cycles
 SCF Done:  E(RB3LYP) =  -486.586073979     A.U. after    7 cycles
 Optimization completed.
    -- Stationary point found.
 Normal termination of Gaussian 16 at Wed Dec  9 18:16:10 2020.

 --------------------------------------------------------------------
 #N Geom=AllCheck Guess=TCheck SCRF=Check GenChk RB3LYP/6-31G(d) Freq
 --------------------------------------------------------------------

 Structure from the checkpoint file:  "JID_2856.chk"
 -------------------------------
 CID_147468777_JID_2856_neutraal
 -------------------------------
 Charge =  0 Multiplicity = 1

 SCF Done:  E(RB3LYP) =  -486.586073979     A.U. after    1 cycles

  Exact polarizability: 142.171   0.940 107.206  -0.408  -1.181 106.690
 Approx polarizability: 161.707  -0.099 157.719   0.906  -1.643 161.603

                      1                      2                      3
                      A                      A                      A
 Frequencies --     30.3934                43.6302                55.3118
 Red. masses --      2.4579                 2.3250                 3.0925
 Frc consts  --      0.0013                 0.0026                 0.0056
 IR Inten    --      0.0427                 0.0818                 0.0998

                      4                      5                      6
                      A                      A                      A
 Frequencies --     77.1156               107.4854               168.0712
 Red. masses --      2.3552                 3.0526                 2.4853
 Frc consts  --      0.0083                 0.0208                 0.0414
 IR Inten    --      0.0838                 0.4924                 0.0267

                      7                      8                      9
                      A                      A                      A
 Frequencies --    190.3728               236.2640               267.3210
 Red. masses --      2.3186                 1.1605                 2.2864
 Frc consts  --      0.0495                 0.0382                 0.0963
 IR Inten    --      0.1197                 0.6971                 0.5854

                     10                     11                     12
                      A                      A                      A
 Frequencies --    282.0198               332.7873               349.9129
 Red. masses --      2.0775                 2.2651                 2.2956
 Frc consts  --      0.0974                 0.1478                 0.1656
 IR Inten    --      0.2556                 1.3331                 5.0932

                     13                     14                     15
                      A                      A                      A
 Frequencies --    417.4813               422.3649               506.7735
 Red. masses --      2.3247                 1.7736                 2.1578
 Frc consts  --      0.2387                 0.1864                 0.3265
 IR Inten    --      0.3434                 0.9389                 1.2365

                     16                     17                     18
                      A                      A                      A
 Frequencies --    571.5310               616.2380               627.7498
 Red. masses --      2.8299                 2.4661                 2.9626
 Frc consts  --      0.5446                 0.5518                 0.6878
 IR Inten    --      0.5066                 0.6421                 2.8931

                     19                     20                     21
                      A                      A                      A
 Frequencies --    775.7283               783.5664               815.4307
 Red. masses --      2.0195                 1.3368                 2.2736
 Frc consts  --      0.7160                 0.4836                 0.8907
 IR Inten    --      9.0359                 1.0370                 0.5024

                     22                     23                     24
                      A                      A                      A
 Frequencies --    866.0078               880.2102               890.3940
 Red. masses --      2.6071                 1.7947                 1.8587
 Frc consts  --      1.1520                 0.8193                 0.8682
 IR Inten    --      0.4341                 2.2396                 1.4566

                     25                     26                     27
                      A                      A                      A
 Frequencies --    902.2176               909.8978               950.4664
 Red. masses --      2.5540                 1.2160                 2.1548
 Frc consts  --      1.2249                 0.5931                 1.1469
 IR Inten    --      0.7327                 1.4033                 0.1953

                     28                     29                     30
                      A                      A                      A
 Frequencies --    964.0379               980.6114               989.3674
 Red. masses --      2.1939                 2.1291                 1.7884
 Frc consts  --      1.2013                 1.2063                 1.0314
 IR Inten    --      0.1682                 3.4841                 2.1170

                     31                     32                     33
                      A                      A                      A
 Frequencies --   1001.8278              1007.1728              1045.6911
 Red. masses --      2.2371                 1.5220                 2.1158
 Frc consts  --      1.3229                 0.9096                 1.3631
 IR Inten    --     14.4568                 0.7376                 0.1221

                     34                     35                     36
                      A                      A                      A
 Frequencies --   1052.2971              1083.1708              1106.8044
 Red. masses --      2.2220                 1.9789                 1.5664
 Frc consts  --      1.4497                 1.3679                 1.1305
 IR Inten    --      0.7127                 0.5626                 0.9603

                     37                     38                     39
                      A                      A                      A
 Frequencies --   1129.5912              1138.1626              1144.8046
 Red. masses --      2.1007                 1.3419                 1.3781
 Frc consts  --      1.5793                 1.0242                 1.0641
 IR Inten    --      1.0132                 1.2471                 0.8814

                     40                     41                     42
                      A                      A                      A
 Frequencies --   1152.8956              1202.6290              1212.2851
 Red. masses --      1.4857                 1.7109                 1.3716
 Frc consts  --      1.1635                 1.4579                 1.1876
 IR Inten    --      2.4588                12.2232                 4.3554

                     43                     44                     45
                      A                      A                      A
 Frequencies --   1221.2384              1235.3839              1240.6055
 Red. masses --      1.4579                 1.7139                 1.6815
 Frc consts  --      1.2811                 1.5412                 1.5248
 IR Inten    --      1.8039                 9.0006                 4.1447

                     46                     47                     48
                      A                      A                      A
 Frequencies --   1243.8876              1256.6785              1287.0119
 Red. masses --      2.1262                 1.3161                 1.3662
 Frc consts  --      1.9383                 1.2246                 1.3333
 IR Inten    --     23.3327                 1.3470                 4.2565

                     49                     50                     51
                      A                      A                      A
 Frequencies --   1293.6682              1300.3543              1311.2749
 Red. masses --      1.3418                 1.1898                 1.3557
 Frc consts  --      1.3231                 1.1854                 1.3734
 IR Inten    --      2.2299                 1.2026                 2.1375

                     52                     53                     54
                      A                      A                      A
 Frequencies --   1317.3229              1333.9131              1346.4510
 Red. masses --      1.4359                 1.2769                 1.5256
 Frc consts  --      1.4681                 1.3386                 1.6296
 IR Inten    --      0.5456                 0.9013                15.3786

                     55                     56                     57
                      A                      A                      A
 Frequencies --   1349.3234              1362.4510              1372.8808
 Red. masses --      1.3266                 1.3111                 1.4649
 Frc consts  --      1.4231                 1.4340                 1.6267
 IR Inten    --      5.3310                 2.1787                 0.4746

                     58                     59                     60
                      A                      A                      A
 Frequencies --   1386.4050              1397.6152              1421.2044
 Red. masses --      1.4319                 1.4825                 1.4503
 Frc consts  --      1.6216                 1.7061                 1.7259
 IR Inten    --      0.9658                 0.9198                10.5708

                     61                     62                     63
                      A                      A                      A
 Frequencies --   1429.2346              1474.7101              1514.9146
 Red. masses --      1.6009                 1.1828                 1.0569
 Frc consts  --      1.9267                 1.5156                 1.4291
 IR Inten    --      1.0063                 4.7439                13.4506

                     64                     65                     66
                      A                      A                      A
 Frequencies --   1516.5563              1517.3159              1521.1320
 Red. masses --      1.0804                 1.0811                 1.0841
 Frc consts  --      1.4640                 1.4665                 1.4779
 IR Inten    --      5.3414                 0.8926                 1.6823

                     67                     68                     69
                      A                      A                      A
 Frequencies --   1524.4317              1527.8588              1528.0615
 Red. masses --      1.0914                 1.0474                 1.0873
 Frc consts  --      1.4943                 1.4405                 1.4959
 IR Inten    --      2.0574                 1.9939                 3.0072

                     70                     71                     72
                      A                      A                      A
 Frequencies --   1532.2645              1549.8914              1559.5513
 Red. masses --      1.0848                 1.1049                 1.1186
 Frc consts  --      1.5006                 1.5638                 1.6030
 IR Inten    --      4.2577                 1.9684                 9.8072

                     73                     74                     75
                      A                      A                      A
 Frequencies --   2926.3705              2949.6922              2962.2737
 Red. masses --      1.0617                 1.0685                 1.0716
 Frc consts  --      5.3569                 5.4776                 5.5405
 IR Inten    --     77.1926                55.0881                82.3433

                     76                     77                     78
                      A                      A                      A
 Frequencies --   3002.4489              3028.2832              3032.2302
 Red. masses --      1.0815                 1.0618                 1.0653
 Frc consts  --      5.7441                 5.7368                 5.7707
 IR Inten    --     15.7835                35.8407                13.2020

                     79                     80                     81
                      A                      A                      A
 Frequencies --   3045.0488              3048.7689              3051.7680
 Red. masses --      1.0659                 1.0630                 1.0652
 Frc consts  --      5.8231                 5.8214                 5.8448
 IR Inten    --     29.3683                28.2094                69.2394

                     82                     83                     84
                      A                      A                      A
 Frequencies --   3061.5498              3062.8053              3067.5018
 Red. masses --      1.0977                 1.0981                 1.0659
 Frc consts  --      6.0618                 6.0693                 5.9091
 IR Inten    --     26.6367                32.1753                59.7090

                     85                     86                     87
                      A                      A                      A
 Frequencies --   3068.1508              3070.3489              3071.9152
 Red. masses --      1.0844                 1.0906                 1.0778
 Frc consts  --      6.0145                 6.0573                 5.9923
 IR Inten    --     14.1387                72.0226                54.3330

                     88                     89                     90
                      A                      A                      A
 Frequencies --   3085.9050              3095.0249              3099.7806
 Red. masses --      1.1002                 1.0993                 1.1019
 Frc consts  --      6.1727                 6.2041                 6.2381
 IR Inten    --     21.4158                35.9386                18.8904

                     91                     92                     93
                      A                      A                      A
 Frequencies --   3110.9571              3113.2021              3114.6224
 Red. masses --      1.0889                 1.1040                 1.1039
 Frc consts  --      6.2091                 6.3045                 6.3096
 IR Inten    --     47.2231                25.5094                95.5041

 - Thermochemistry -
 -------------------
 Temperature   298.150 Kelvin.  Pressure   1.00000 Atm.
 Atom     1 has atomic number  6 and mass  12.00000

 Molecular mass:   167.16740 amu.
 Principal axes and moments of inertia in atomic units:
                           1         2         3
     Eigenvalues --   721.578995019.882445175.04570
           X            0.99998   0.00559   0.00022
           Y           -0.00559   0.99998  -0.00316
           Z           -0.00023   0.00316   0.99999
 This molecule is an asymmetric top.
 Rotational symmetry number  1.
 Warning -- assumption of classical behavior for rotation
           may cause significant error
 Rotational temperatures (Kelvin)      0.12003     0.01725     0.01674
 Rotational constants (GHZ):           2.50110     0.35952     0.34874
 Zero-point vibrational energy     808857.0 (Joules/Mol)
                                  193.32147 (Kcal/Mol)
 Warning -- explicit consideration of  17 degrees of freedom as
           vibrations may cause significant error
 Vibrational temperatures:     43.73    62.77    79.58   110.95   154.65
          (Kelvin)            241.82   273.90   339.93   384.62   405.76
                              478.81   503.45   600.66   607.69   729.13
                              822.31   886.63   903.19  1116.10  1127.38
                             1173.22  1245.99  1266.43  1281.08  1298.09
                             1309.14  1367.51  1387.04  1410.88  1423.48
                             1441.41  1449.10  1504.52  1514.02  1558.44
                             1592.44  1625.23  1637.56  1647.12  1658.76
                             1730.31  1744.21  1757.09  1777.44  1784.95
                             1789.68  1808.08  1851.72  1861.30  1870.92
                             1886.63  1895.33  1919.20  1937.24  1941.38
                             1960.26  1975.27  1994.73  2010.86  2044.80
                             2056.35  2121.78  2179.62  2181.99  2183.08
                             2188.57  2193.32  2198.25  2198.54  2204.59
                             2229.95  2243.85  4210.39  4243.95  4262.05
                             4319.85  4357.02  4362.70  4381.15  4386.50
                             4390.81  4404.89  4406.69  4413.45  4414.38
                             4417.55  4419.80  4439.93  4453.05  4459.89
                             4475.97  4479.20  4481.25

 Zero-point correction=                           0.308077 (Hartree/Particle)
 Thermal correction to Energy=                    0.320815
 Thermal correction to Enthalpy=                  0.321759
 Thermal correction to Gibbs Free Energy=         0.267445
 Sum of electronic and zero-point Energies=           -486.277997
 Sum of electronic and thermal Energies=              -486.265259
 Sum of electronic and thermal Enthalpies=            -486.264315
 Sum of electronic and thermal Free Energies=         -486.318628

                     E (Thermal)             CV                S
                      KCal/Mol        Cal/Mol-Kelvin    Cal/Mol-Kelvin
 Total                  201.314             48.102            114.312
 Electronic               0.000              0.000              0.000
 Translational            0.889              2.981             41.250
 Rotational               0.889              2.981             31.306
 Vibrational            199.537             42.141             41.756
 Vibration     1          0.594              1.984              5.804
 Vibration     2          0.595              1.980              5.087
 Vibration     3          0.596              1.975              4.618
 Vibration     4          0.599              1.964              3.963
 Vibration     5          0.606              1.943              3.314
 Vibration     6          0.625              1.882              2.457
 Vibration     7          0.634              1.853              2.224
 Vibration     8          0.655              1.785              1.831
 Vibration     9          0.672              1.733              1.613
 Vibration    10          0.681              1.707              1.521
 Vibration    11          0.715              1.610              1.247
 Vibration    12          0.727              1.575              1.167
 Vibration    13          0.781              1.432              0.901
 Vibration    14          0.785              1.422              0.884
 Vibration    15          0.862              1.235              0.641
 Vibration    16          0.928              1.093              0.501
 Vibration    17          0.976              0.998              0.423

                           ! Non-Optimized Parameters !
 Normal termination of Gaussian 16 at Wed Dec  9 18:25:14 2020.

 ----------------------------------------------------------------------
 # B3LYP/6-311++G(d,p) empiricaldispersion=gd3bj scf=xqc pop=npa geom=c
 heck
 ----------------------------------------------------------------------

 ---------------------------------------
 CID_147468777_JID_2856_Energie_neutraal
 ---------------------------------------
 Structure from the checkpoint file:  "JID_2856.chk"
 Charge =  0 Multiplicity = 1

 SCF Done:  E(RB3LYP) =  -486.716939244     A.U. after   13 cycles
 Normal termination of Gaussian 16 at Wed Dec  9 18:29:11 2020.

 ----------------------------------------------------------------------
 # B3LYP/6-311++G(d,p) empiricaldispersion=gd3bj scf=xqc pop=npa geom=c
 heck
 ----------------------------------------------------------------------

 -------------------------------------
 CID_147468777_JID_2856_Energie_kation
 -------------------------------------
 Structure from the checkpoint file:  "JID_2856.chk"
 Charge =  1 Multiplicity = 2

 SCF Done:  E(UB3LYP) =  -486.417435030     A.U. after   19 cycles
 Normal termination of Gaussian 16 at Wed Dec  9 18:37:18 2020.
 Gaussian 16:  ES64L-G16RevA.03 25-Dec-2016

 ----------------------------------------------------------------------
 # B3LYP/6-311++G(d,p) empiricaldispersion=gd3bj scf=xqc pop=npa geom=c
 heck
 ----------------------------------------------------------------------

 ------------------------------------
 CID_147468777_JID_2856_Energie_anion
 ------------------------------------
 Structure from the checkpoint file:  "JID_2856.chk"
 Charge = -1 Multiplicity = 2

                         Standard orientation:
 ---------------------------------------------------------------------
 Center     Atomic      Atomic             Coordinates (Angstroms)
 Number     Number       Type             X           Y           Z
 ---------------------------------------------------------------------
      1          6           0        4.724427   -0.139756    0.015751
      2          7           0        3.369418   -0.628038   -0.106613
      3          6           0        2.483712   -0.526622    1.069797
      4          6           0        1.310103   -0.178021    0.122377
      5          6           0        2.415702    0.162082   -0.909839
      6          6           0        0.338212    0.919501    0.533425
      7          6           0       -0.650281    1.320712   -0.580890
      8          6           0       -1.991164    0.568609   -0.605857
      9          6           0       -1.951958   -0.968334   -0.556167
     10          6           0       -3.423320   -1.341318   -0.325409
     11          6           0       -3.936176   -0.272688    0.674937
     12          6           0       -2.950988    0.924621    0.553180
     13          1           0        5.283990   -0.771842    0.714865
     14          1           0        4.778728    0.906610    0.378491
     15          1           0        5.224758   -0.188628   -0.958267
     16          1           0        2.417081   -1.435384    1.680194
     17          1           0        2.735095    0.326108    1.727353
     18          1           0        0.780189   -1.085301   -0.179097
     19          1           0        2.643424    1.244208   -0.910583
     20          1           0        2.295395   -0.173961   -1.946703
     21          1           0       -0.208215    0.606470    1.433971
     22          1           0        0.924165    1.798828    0.831380
     23          1           0       -0.875628    2.391909   -0.495145
     24          1           0       -0.151806    1.200613   -1.552673
     25          1           0       -2.494737    0.843309   -1.545173
     26          1           0       -1.522035   -1.419736   -1.457614
     27          1           0       -1.351602   -1.301916    0.300033
     28          1           0       -3.556781   -2.364388    0.041231
     29          1           0       -3.971258   -1.264163   -1.272967
     30          1           0       -3.933600   -0.668725    1.696241
     31          1           0       -4.968152    0.018919    0.455041
     32          1           0       -2.383364    1.043512    1.483946
     33          1           0       -3.461184    1.877107    0.373944
 ---------------------------------------------------------------------

 SCF Done:  E(UB3LYP) =  -486.699953850     A.U. after   30 cycles

 The electronic state is 2-A.
 Alpha  occ. eigenvalues --  -14.20331 -10.09178 -10.09049 -10.08762 -10.07421
 Alpha  occ. eigenvalues --  -10.06747 -10.06583 -10.06385 -10.06308 -10.06254
 Alpha  occ. eigenvalues --  -10.06022 -10.05976  -0.84405  -0.74012  -0.69326
 Alpha  occ. eigenvalues --   -0.65104  -0.60684  -0.60075  -0.57761  -0.54516
 Alpha  occ. eigenvalues --   -0.49959  -0.46799  -0.45169  -0.44356  -0.39627
 Alpha  occ. eigenvalues --   -0.38599  -0.37225  -0.36963  -0.34918  -0.33826
 Alpha  occ. eigenvalues --   -0.32338  -0.31285  -0.30722  -0.29750  -0.28770
 Alpha  occ. eigenvalues --   -0.27046  -0.25049  -0.24355  -0.23981  -0.23707
 Alpha  occ. eigenvalues --   -0.23337  -0.22358  -0.21934  -0.20916  -0.20652
 Alpha  occ. eigenvalues --   -0.20003  -0.12307   0.04526
 Alpha virt. eigenvalues --    0.06145   0.07094   0.07529   0.08058   0.08650
 Alpha virt. eigenvalues --    0.08881   0.09863   0.10079   0.10354   0.10762
 Alpha virt. eigenvalues --    0.11030   0.11704   0.12343   0.12634   0.13151

  Beta  occ. eigenvalues --  -14.20325 -10.09163 -10.09031 -10.08731 -10.07417
  Beta  occ. eigenvalues --  -10.06736 -10.06571 -10.06371 -10.06290 -10.06234
  Beta  occ. eigenvalues --  -10.06008 -10.05958  -0.84389  -0.73984  -0.69303
  Beta  occ. eigenvalues --   -0.65072  -0.60644  -0.60035  -0.57721  -0.54470
  Beta  occ. eigenvalues --   -0.49907  -0.46738  -0.45117  -0.44309  -0.39589
  Beta  occ. eigenvalues --   -0.38558  -0.37183  -0.36924  -0.34888  -0.33794
  Beta  occ. eigenvalues --   -0.32311  -0.31250  -0.30698  -0.29723  -0.28741
  Beta  occ. eigenvalues --   -0.27017  -0.25020  -0.24328  -0.23945  -0.23671
  Beta  occ. eigenvalues --   -0.23302  -0.22329  -0.21902  -0.20888  -0.20623
  Beta  occ. eigenvalues --   -0.19972  -0.12266
  Beta virt. eigenvalues --    0.06536   0.07037   0.07663   0.08047   0.08582
  Beta virt. eigenvalues --    0.09159   0.09278   0.10291   0.10383   0.10741
  Beta virt. eigenvalues --    0.11223   0.11370   0.12054   0.12522   0.12806

 Mulliken charges and spin densities:
               1          2
     1  C    0.779280  -1.117334
     2  N   -0.163576   0.236520
     3  C    0.579467  -0.873231
     4  C   -1.551247   1.528585
     5  C    0.226286  -0.750043
     6  C    1.221197  -1.598046
     7  C   -0.272367  -0.024131
     8  C   -0.473240   0.841681
     9  C   -0.575336   0.303725
    10  C    0.581957  -1.131738
    11  C    0.197434  -0.606870
    12  C    0.544367  -0.998178
    13  H   -0.206895   0.339871
    14  H   -0.249178   0.360561
    15  H   -0.253115   0.385258
    16  H   -0.143635   0.328270
    17  H    0.001055   0.096736
    18  H    0.094318   0.142357
    19  H   -0.061154   0.179673
    20  H   -0.087047   0.285585
    21  H   -0.125464   0.256533
    22  H    0.093147   0.053981
    23  H   -0.318268   0.486133
    24  H   -0.059766   0.201755
    25  H   -0.229774   0.422906
    26  H   -0.180480   0.348158
    27  H    0.235636  -0.139333
    28  H   -0.162576   0.315766
    29  H   -0.134182   0.279165
    30  H   -0.130752   0.258615
    31  H   -0.092455   0.233090
    32  H    0.091902   0.025953
    33  H   -0.175540   0.328026
 Sum of Mulliken charges =  -1.00000   1.00000

 Dipole moment (field-independent basis, Debye):
    X=             -0.7723    Y=             -0.3829    Z=              1.1868  Tot=              1.4669
 Quadrupole moment (field-independent basis, Debye-Ang):
   XX=           -175.8484   YY=           -116.0313   ZZ=           -113.1346
   XY=              1.8664   XZ=             -3.0306   YZ=              0.6455

 Summary of Natural Population Analysis:

                                       Natural Population
                Natural  -----------------------------------------------
    Atom  No    Charge         Core      Valence    Rydberg      Total
 -----------------------------------------------------------------------
      C    1   -0.17350      0.99965     2.16676    0.00709     3.17350
      N    2   -0.28018      0.99973     2.76710    0.01336     3.78018
      C    3   -0.07423      0.99963     2.06340    0.01120     3.07423
      C    4   -0.11654      0.99957     2.10734    0.00963     3.11654
      C    5   -0.07673      0.99962     2.06558    0.01153     3.07673
      C    6   -0.19301      0.99960     2.18451    0.00890     3.19301
      C    7   -0.18658      0.99960     2.17744    0.00954     3.18658
      C    8   -0.10776      0.99959     2.09726    0.01091     3.10776
      C    9   -0.19298      0.99961     2.18438    0.00899     3.19298
      C   10   -0.18810      0.99964     2.18170    0.00676     3.18810
      C   11   -0.19138      0.99965     2.18496    0.00677     3.19138
      C   12   -0.19080      0.99962     2.18274    0.00844     3.19080
      H   13    0.09424      0.00000     0.40421    0.00154     0.40576
      H   14    0.07817      0.00000     0.41950    0.00233     0.42183
      H   15    0.09465      0.00000     0.40384    0.00151     0.40535
      H   16    0.09118      0.00000     0.40750    0.00132     0.40882
      H   17    0.08067      0.00000     0.41787    0.00146     0.41933
      H   18    0.10051      0.00000     0.39712    0.00237     0.39949
      H   19    0.08125      0.00000     0.41727    0.00148     0.41875
      H   20    0.09249      0.00000     0.40591    0.00160     0.40751
      H   21    0.09779      0.00000     0.40074    0.00147     0.40221
      H   22    0.09785      0.00000     0.40067    0.00148     0.40215
      H   23    0.09876      0.00000     0.40014    0.00110     0.40124
      H   24    0.09772      0.00000     0.40088    0.00140     0.40228
      H   25    0.09531      0.00000     0.40276    0.00194     0.40469
      H   26    0.10130      0.00000     0.39761    0.00109     0.39870
      H   27    0.09307      0.00000     0.40518    0.00175     0.40693
      H   28    0.09695      0.00000     0.40192    0.00112     0.40305
      H   29    0.09427      0.00000     0.40405    0.00168     0.40573
      H   30    0.09410      0.00000     0.40460    0.00131     0.40590
      H   31    0.09762      0.00000     0.40103    0.00136     0.40238
      H   32    0.09392      0.00000     0.40458    0.00150     0.40608
      H   33    0.10000      0.00000     0.39875    0.00125     0.40000
 =======================================================================
   * Total *    0.00000     11.99553    34.85929    0.14519    47.00000

 Normal termination of Gaussian 16 at Wed Dec  9 18:49:33 2020.
