 Gaussian 16, Revision A.03,

 -----------------------------------------------------------
 # opt freq B3LYP/6-31G(d) empiricaldispersion=gd3bj scf=xqc
 -----------------------------------------------------------

 ----------------------------
 CID_14366577_JID_58_neutraal
 ----------------------------
 Symbolic Z-matrix:
 Charge =  0 Multiplicity = 1

 SCF Done:  E(RB3LYP) =  -442.460854161     A.U. after   12 cycles
 SCF Done:  E(RB3LYP) =  -442.464052067     A.U. after   11 cycles
 SCF Done:  E(RB3LYP) =  -442.464574327     A.U. after   11 cycles
 SCF Done:  E(RB3LYP) =  -442.464682196     A.U. after   10 cycles
 SCF Done:  E(RB3LYP) =  -442.464774285     A.U. after    9 cycles
 SCF Done:  E(RB3LYP) =  -442.464788750     A.U. after    9 cycles
 SCF Done:  E(RB3LYP) =  -442.464791272     A.U. after    8 cycles
 SCF Done:  E(RB3LYP) =  -442.464791979     A.U. after    7 cycles
 SCF Done:  E(RB3LYP) =  -442.464792277     A.U. after    7 cycles
 SCF Done:  E(RB3LYP) =  -442.464792351     A.U. after    6 cycles
 Optimization completed.
    -- Stationary point found.

 1\1\GINC-NODE317\FOpt\RB3LYP\6-31G(d)\C7H19N3\VSC10255\08-Dec-2020\0\\
 # opt freq B3LYP/6-31G(d) empiricaldispersion=gd3bj scf=xqc\\CID_14366
 577_JID_58_neutraal\\0,1\C,1.0895092208,0.1871339829,-0.2896418514\C,0
 .3963612732,-0.6219450785,-1.3972705714\C,0.9330981318,-2.0560401294,-
 1.4041976622\C,-1.1327863882,-0.6549521088,-1.1559071734\N,-1.70999253
 23,0.6860756348,-1.2324211545\C,-3.1658223355,0.7263540013,-1.38458712
 33\C,-3.9956801326,0.0734784011,-0.2632907675\C,-3.7141604464,0.644333
 6398,1.1282622467\N,-4.0787073738,2.0646480753,1.2016041666\N,0.732564

 Normal termination of Gaussian 16 at Tue Dec  8 10:16:05 2020.

 --------------------------------------------------------------------
 #N Geom=AllCheck Guess=TCheck SCRF=Check GenChk RB3LYP/6-31G(d) Freq
 --------------------------------------------------------------------

 Structure from the checkpoint file:  "JID_58.chk"
 ----------------------------
 CID_14366577_JID_58_neutraal
 ----------------------------
 Charge =  0 Multiplicity = 1

 SCF Done:  E(RB3LYP) =  -442.464792351     A.U. after    1 cycles

  Exact polarizability: 108.948   1.827  90.991   2.218  -0.064  87.879
 Approx polarizability: 130.799   3.264 127.777   2.108  -0.397 129.140

                      1                      2                      3
                      A                      A                      A
 Frequencies --     37.3164                44.2206                78.3351
 Red. masses --      3.7411                 3.0942                 3.0129
 Frc consts  --      0.0031                 0.0036                 0.0109
 IR Inten    --      1.2313                 0.0437                 2.9122

                      4                      5                      6
                      A                      A                      A
 Frequencies --    128.2772               158.1541               210.3664
 Red. masses --      2.5898                 2.5087                 2.6372
 Frc consts  --      0.0251                 0.0370                 0.0688
 IR Inten    --      0.8868                 6.4277                 3.1867

                      7                      8                      9
                      A                      A                      A
 Frequencies --    227.5642               232.9592               273.9386
 Red. masses --      1.2439                 1.1938                 1.0808
 Frc consts  --      0.0380                 0.0382                 0.0478
 IR Inten    --     34.8261                 3.2620                 0.0351

                     10                     11                     12
                      A                      A                      A
 Frequencies --    292.9236               332.8403               335.8256
 Red. masses --      1.5844                 1.3911                 1.5654
 Frc consts  --      0.0801                 0.0908                 0.1040
 IR Inten    --     22.3178                26.9558                 8.7792

                     13                     14                     15
                      A                      A                      A
 Frequencies --    347.9581               363.7970               421.4485
 Red. masses --      2.5745                 2.2263                 2.0451
 Frc consts  --      0.1836                 0.1736                 0.2140
 IR Inten    --      0.7875                 4.0407                 4.0399

                     16                     17                     18
                      A                      A                      A
 Frequencies --    443.8962               461.8443               521.8528
 Red. masses --      2.0369                 2.3632                 2.6796
 Frc consts  --      0.2365                 0.2970                 0.4299
 IR Inten    --     10.6000                 4.5697                 9.6154

                     19                     20                     21
                      A                      A                      A
 Frequencies --    568.6046               752.3289               780.9040
 Red. masses --      2.6215                 1.2175                 3.2456
 Frc consts  --      0.4994                 0.4060                 1.1661
 IR Inten    --      8.5116                48.7111                 0.4373

                     22                     23                     24
                      A                      A                      A
 Frequencies --    794.5300               846.7003               869.8717
 Red. masses --      1.7474                 2.2694                 1.3319
 Frc consts  --      0.6499                 0.9586                 0.5938
 IR Inten    --     20.6917                24.4366               142.1377

                     25                     26                     27
                      A                      A                      A
 Frequencies --    907.6260               931.2383               956.1086
 Red. masses --      1.8947                 2.3061                 1.5141
 Frc consts  --      0.9196                 1.1783                 0.8155
 IR Inten    --      1.2863               117.6501                 6.2775

                     28                     29                     30
                      A                      A                      A
 Frequencies --    960.2540               969.1219               994.6231
 Red. masses --      1.5194                 1.7593                 1.6165
 Frc consts  --      0.8254                 0.9735                 0.9422
 IR Inten    --     12.8679                19.6290                 6.4303

                     31                     32                     33
                      A                      A                      A
 Frequencies --   1022.3214              1054.1421              1056.9240
 Red. masses --      1.3279                 1.8179                 1.4158
 Frc consts  --      0.8177                 1.1902                 0.9318
 IR Inten    --      0.2937                 6.1904                67.4261

                     34                     35                     36
                      A                      A                      A
 Frequencies --   1084.0385              1120.3757              1132.7634
 Red. masses --      2.1354                 1.5476                 2.0252
 Frc consts  --      1.4785                 1.1445                 1.5311
 IR Inten    --     12.1353                 6.8709                 6.9392

                     37                     38                     39
                      A                      A                      A
 Frequencies --   1165.4205              1185.1079              1237.9710
 Red. masses --      2.8587                 1.3286                 1.3864
 Frc consts  --      2.2877                 1.0994                 1.2518
 IR Inten    --     69.9513                 7.5570                 2.4589

                     40                     41                     42
                      A                      A                      A
 Frequencies --   1254.7402              1267.9937              1299.5799
 Red. masses --      2.1668                 1.7448                 1.5121
 Frc consts  --      2.0099                 1.6528                 1.5047
 IR Inten    --     20.0703                35.2808                 6.6426

                     43                     44                     45
                      A                      A                      A
 Frequencies --   1348.9794              1361.3999              1366.8699
 Red. masses --      1.3631                 1.1900                 1.5212
 Frc consts  --      1.4614                 1.2995                 1.6745
 IR Inten    --      4.1947                 8.1456                 9.1117

                     46                     47                     48
                      A                      A                      A
 Frequencies --   1395.4613              1406.4652              1411.1358
 Red. masses --      1.3318                 1.3862                 1.3167
 Frc consts  --      1.5280                 1.6156                 1.5448
 IR Inten    --      6.4889                 6.2046                 3.2929

                     49                     50                     51
                      A                      A                      A
 Frequencies --   1431.4234              1444.0583              1449.8038
 Red. masses --      1.4704                 1.2522                 1.4359
 Frc consts  --      1.7751                 1.5385                 1.7783
 IR Inten    --     10.6089                 9.3898                 8.5964

                     52                     53                     54
                      A                      A                      A
 Frequencies --   1501.9516              1506.7526              1511.4054
 Red. masses --      1.1106                 1.1285                 1.0627
 Frc consts  --      1.4761                 1.5094                 1.4303
 IR Inten    --      5.0852                18.6108                 0.9212

                     55                     56                     57
                      A                      A                      A
 Frequencies --   1518.8739              1526.6055              1527.6622
 Red. masses --      1.0799                 1.0693                 1.0648
 Frc consts  --      1.4678                 1.4683                 1.4641
 IR Inten    --      2.7026                 3.6944                 3.5152

                     58                     59                     60
                      A                      A                      A
 Frequencies --   1534.9773              1543.2348              1546.8144
 Red. masses --      1.1145                 1.0842                 1.0578
 Frc consts  --      1.5472                 1.5214                 1.4912
 IR Inten    --     11.6647                 5.9691                 4.6244

                     61                     62                     63
                      A                      A                      A
 Frequencies --   1700.7059              1707.7894              2938.2897
 Red. masses --      1.0884                 1.0883                 1.0743
 Frc consts  --      1.8548                 1.8702                 5.4648
 IR Inten    --     29.6213                21.4216                91.8165

                     64                     65                     66
                      A                      A                      A
 Frequencies --   2954.8139              3040.3284              3042.7384
 Red. masses --      1.0703                 1.0399                 1.0607
 Frc consts  --      5.5058                 5.6637                 5.7857
 IR Inten    --     60.0010                26.2164                28.3149

                     67                     68                     69
                      A                      A                      A
 Frequencies --   3046.3977              3047.9091              3051.3729
 Red. masses --      1.0419                 1.0633                 1.0826
 Frc consts  --      5.6970                 5.8197                 5.9389
 IR Inten    --     28.2795                16.4359                25.0794

                     70                     71                     72
                      A                      A                      A
 Frequencies --   3077.7437              3081.8270              3094.4730
 Red. masses --      1.0937                 1.0947                 1.1042
 Frc consts  --      6.1042                 6.1257                 6.2300
 IR Inten    --     33.6157                45.4377                62.2112

                     73                     74                     75
                      A                      A                      A
 Frequencies --   3105.1391              3108.4593              3129.6451
 Red. masses --      1.0995                 1.1008                 1.1021
 Frc consts  --      6.2458                 6.2668                 6.3602
 IR Inten    --     23.2804                48.5936                 5.0623

                     76                     77                     78
                      A                      A                      A
 Frequencies --   3135.3070              3429.5543              3470.3883
 Red. masses --      1.1005                 1.0495                 1.0499
 Frc consts  --      6.3739                 7.2727                 7.4496
 IR Inten    --     47.0253                 6.2032                 1.8081

                     79                     80                     81
                      A                      A                      A
 Frequencies --   3499.5787              3511.9915              3552.8941
 Red. masses --      1.0731                 1.0906                 1.0921
 Frc consts  --      7.7431                 7.9256                 8.1224
 IR Inten    --      1.1172                 3.8438                 0.8778

 - Thermochemistry -
 -------------------
 Temperature   298.150 Kelvin.  Pressure   1.00000 Atm.
 Atom     1 has atomic number  6 and mass  12.00000

 Molecular mass:   145.15790 amu.
 Principal axes and moments of inertia in atomic units:
                           1         2         3
     Eigenvalues --   740.410533225.354053319.44622
           X            0.99998  -0.00154   0.00570
           Y            0.00126   0.99879   0.04909
           Z           -0.00576  -0.04908   0.99878
 This molecule is an asymmetric top.
 Rotational symmetry number  1.
 Warning -- assumption of classical behavior for rotation
           may cause significant error
 Rotational temperatures (Kelvin)      0.11698     0.02685     0.02609
 Rotational constants (GHZ):           2.43749     0.55955     0.54369
 Zero-point vibrational energy     712902.7 (Joules/Mol)
                                  170.38784 (Kcal/Mol)
 Warning -- explicit consideration of  19 degrees of freedom as
           vibrations may cause significant error
 Vibrational temperatures:     53.69    63.62   112.71   184.56   227.55
          (Kelvin)            302.67   327.41   335.18   394.14   421.45
                              478.88   483.18   500.63   523.42   606.37
                              638.67   664.49   750.83   818.10  1082.43
                             1123.55  1143.15  1218.21  1251.55  1305.87
                             1339.84  1375.63  1381.59  1394.35  1431.04
                             1470.89  1516.68  1520.68  1559.69  1611.97
                             1629.79  1676.78  1705.11  1781.16  1805.29
                             1824.36  1869.81  1940.88  1958.75  1966.62
                             2007.76  2023.59  2030.31  2059.50  2077.68
                             2085.94  2160.97  2167.88  2174.58  2185.32
                             2196.44  2197.97  2208.49  2220.37  2225.52
                             2446.94  2457.13  4227.54  4251.32  4374.35
                             4377.82  4383.09  4385.26  4390.25  4428.19
                             4434.06  4452.26  4467.60  4472.38  4502.86
                             4511.01  4934.36  4993.11  5035.11  5052.97
                             5111.82

 Zero-point correction=                           0.271530 (Hartree/Particle)
 Thermal correction to Energy=                    0.284298
 Thermal correction to Enthalpy=                  0.285242
 Thermal correction to Gibbs Free Energy=         0.232519
 Sum of electronic and zero-point Energies=           -442.193262
 Sum of electronic and thermal Energies=              -442.180494
 Sum of electronic and thermal Enthalpies=            -442.179550
 Sum of electronic and thermal Free Energies=         -442.232274

                     E (Thermal)             CV                S
                      KCal/Mol        Cal/Mol-Kelvin    Cal/Mol-Kelvin
 Total                  178.400             47.651            110.966
 Electronic               0.000              0.000              0.000
 Translational            0.889              2.981             40.829
 Rotational               0.889              2.981             30.451
 Vibrational            176.622             41.689             39.686
 Vibration     1          0.594              1.982              5.397
 Vibration     2          0.595              1.980              5.060
 Vibration     3          0.600              1.964              3.932
 Vibration     4          0.611              1.925              2.972
 Vibration     5          0.621              1.893              2.572
 Vibration     6          0.643              1.825              2.040
 Vibration     7          0.651              1.799              1.898
 Vibration     8          0.654              1.791              1.856
 Vibration     9          0.676              1.721              1.571
 Vibration    10          0.688              1.687              1.457
 Vibration    11          0.715              1.610              1.246
 Vibration    12          0.717              1.604              1.232
 Vibration    13          0.726              1.579              1.175
 Vibration    14          0.737              1.547              1.106
 Vibration    15          0.784              1.424              0.887
 Vibration    16          0.803              1.374              0.814
 Vibration    17          0.820              1.335              0.761
 Vibration    18          0.877              1.202              0.606
 Vibration    19          0.925              1.099              0.507

                           ! Non-Optimized Parameters !

 1\1\GINC-NODE317\Freq\RB3LYP\6-31G(d)\C7H19N3\VSC10255\08-Dec-2020\0\\
 #N Geom=AllCheck Guess=TCheck SCRF=Check GenChk RB3LYP/6-31G(d) Freq\\
 CID_14366577_JID_58_neutraal\\0,1\C,1.0895092208,0.1871339829,-0.28964
 18514\C,0.3963612732,-0.6219450785,-1.3972705714\C,0.9330981318,-2.056
 0401294,-1.4041976622\C,-1.1327863882,-0.6549521088,-1.1559071734\N,-1
 .7099925323,0.6860756348,-1.2324211545\C,-3.1658223355,0.7263540013,-1
 .3845871233\C,-3.9956801326,0.0734784011,-0.2632907675\C,-3.7141604464
 ,0.6443336398,1.1282622467\N,-4.0787073738,2.0646480753,1.2016041666\N

 Normal termination of Gaussian 16 at Tue Dec  8 10:21:13 2020.

 ----------------------------------------------------------------------
 # B3LYP/6-311++G(d,p) empiricaldispersion=gd3bj scf=xqc pop=npa geom=c
 heck
 ----------------------------------------------------------------------

 ------------------------------------
 CID_14366577_JID_58_Energie_neutraal
 ------------------------------------
 Structure from the checkpoint file:  "JID_58.chk"
 Charge =  0 Multiplicity = 1

 SCF Done:  E(RB3LYP) =  -442.612601353     A.U. after   14 cycles
 Normal termination of Gaussian 16 at Tue Dec  8 10:23:27 2020.

 ----------------------------------------------------------------------
 # B3LYP/6-311++G(d,p) empiricaldispersion=gd3bj scf=xqc pop=npa geom=c
 heck
 ----------------------------------------------------------------------

 ----------------------------------
 CID_14366577_JID_58_Energie_kation
 ----------------------------------
 Structure from the checkpoint file:  "JID_58.chk"
 Charge =  1 Multiplicity = 2

 SCF Done:  E(UB3LYP) =  -442.309155796     A.U. after   27 cycles
 Normal termination of Gaussian 16 at Tue Dec  8 10:28:47 2020.
 Gaussian 16:  ES64L-G16RevA.03 25-Dec-2016

 ---------------------------------
 CID_14366577_JID_58_Energie_anion
 ---------------------------------
 Structure from the checkpoint file:  "JID_58.chk"
 Charge = -1 Multiplicity = 2

                         Standard orientation:
 ---------------------------------------------------------------------
 Center     Atomic      Atomic             Coordinates (Angstroms)
 Number     Number       Type             X           Y           Z
 ---------------------------------------------------------------------
      1          6           0       -1.985790    1.616060    0.382372
      2          6           0       -2.102914    0.140771   -0.032007
      3          6           0       -3.068281    0.009729   -1.213386
      4          6           0       -0.716037   -0.407728   -0.448371
      5          7           0        0.219180   -0.390763    0.675221
      6          6           0        1.418361   -1.211732    0.495801
      7          6           0        2.327332   -0.855399   -0.695423
      8          6           0        2.821068    0.592941   -0.686308
      9          7           0        3.659990    0.858976    0.488853
     10          7           0       -2.660542   -0.597440    1.113710
     11          1           0       -1.538824    2.219356   -0.417303
     12          1           0       -1.370961    1.724923    1.283388
     13          1           0       -2.976251    2.017430    0.614876
     14          1           0       -2.723745    0.594647   -2.073433
     15          1           0       -3.157083   -1.036687   -1.533238
     16          1           0       -4.063794    0.362888   -0.927041
     17          1           0       -0.836509   -1.455573   -0.755437
     18          1           0       -0.350764    0.141298   -1.335169
     19          1           0        0.492851    0.570273    0.868369
     20          1           0        1.997519   -1.159588    1.426274
     21          1           0        1.092047   -2.254812    0.398016
     22          1           0        3.197495   -1.522949   -0.681847
     23          1           0        1.791301   -1.037989   -1.635550
     24          1           0        3.438465    0.761434   -1.575968
     25          1           0        1.953406    1.273264   -0.780224
     26          1           0        4.051747    1.796898    0.426739
     27          1           0        3.091806    0.851174    1.334219
     28          1           0       -2.879699   -1.548345    0.811992
     29          1           0       -1.901829   -0.700908    1.790787
 ---------------------------------------------------------------------

 SCF Done:  E(UB3LYP) =  -442.600425626     A.U. after   25 cycles

 The electronic state is 2-A.
 Alpha  occ. eigenvalues --  -14.19365 -14.18395 -14.18083 -10.10071 -10.08796
 Alpha  occ. eigenvalues --  -10.08333 -10.08240 -10.05775 -10.05733 -10.05062
 Alpha  occ. eigenvalues --   -0.81278  -0.77995  -0.76911  -0.66111  -0.64270
 Alpha  occ. eigenvalues --   -0.58690  -0.57933  -0.53673  -0.46800  -0.44857
 Alpha  occ. eigenvalues --   -0.40316  -0.38439  -0.37654  -0.36833  -0.34510
 Alpha  occ. eigenvalues --   -0.33869  -0.33264  -0.31560  -0.29873  -0.29077
 Alpha  occ. eigenvalues --   -0.27743  -0.27204  -0.25918  -0.25303  -0.24591
 Alpha  occ. eigenvalues --   -0.23421  -0.22853  -0.22433  -0.14196  -0.13640
 Alpha  occ. eigenvalues --   -0.12532   0.04488
 Alpha virt. eigenvalues --    0.06700   0.07899   0.07973   0.09358   0.09689
 Alpha virt. eigenvalues --    0.09962   0.10536   0.10846   0.11862   0.12223
 Alpha virt. eigenvalues --    0.12595   0.12815   0.13838   0.14461   0.14835

  Beta  occ. eigenvalues --  -14.19343 -14.18343 -14.18065 -10.10069 -10.08781
  Beta  occ. eigenvalues --  -10.08310 -10.08205 -10.05767 -10.05708 -10.05029
  Beta  occ. eigenvalues --   -0.81247  -0.77946  -0.76843  -0.66068  -0.64218
  Beta  occ. eigenvalues --   -0.58635  -0.57870  -0.53587  -0.46731  -0.44796
  Beta  occ. eigenvalues --   -0.40269  -0.38399  -0.37597  -0.36780  -0.34460
  Beta  occ. eigenvalues --   -0.33835  -0.33213  -0.31491  -0.29841  -0.29032
  Beta  occ. eigenvalues --   -0.27710  -0.27167  -0.25882  -0.25273  -0.24550
  Beta  occ. eigenvalues --   -0.23380  -0.22821  -0.22402  -0.14171  -0.13588
  Beta  occ. eigenvalues --   -0.12504
  Beta virt. eigenvalues --    0.06774   0.07832   0.08286   0.08540   0.09850
  Beta virt. eigenvalues --    0.09959   0.10375   0.10880   0.11371   0.12141
  Beta virt. eigenvalues --    0.12516   0.12955   0.13041   0.14246   0.14685

 Mulliken charges and spin densities:
               1          2
     1  C    0.905588  -1.379034
     2  C   -0.733033   0.822126
     3  C    0.396538  -0.996579
     4  C   -0.480403  -0.302081
     5  N   -0.174023   0.136018
     6  C    0.389983  -0.721824
     7  C   -0.466325   0.373157
     8  C    1.318760  -1.811412
     9  N   -0.432228   0.070176
    10  N   -0.242371   0.037464
    11  H   -0.135356   0.283142
    12  H   -0.235891   0.369067
    13  H    0.036186   0.117997
    14  H   -0.231542   0.372112
    15  H   -0.280939   0.412992
    16  H    0.038901   0.113608
    17  H   -0.114902   0.282790
    18  H    0.502543  -0.347300
    19  H    0.076816   0.171460
    20  H   -0.049299   0.228048
    21  H   -0.045342   0.170860
    22  H    0.079739   0.075248
    23  H   -0.136538   0.271730
    24  H   -0.418597   0.570787
    25  H   -0.515921   0.678021
    26  H   -0.266125   0.514025
    27  H   -0.016908   0.225624
    28  H    0.031497   0.191155
    29  H    0.199191   0.070621
 Sum of Mulliken charges =  -1.00000   1.00000

 Dipole moment (field-independent basis, Debye):
    X=             -2.3467    Y=             -3.1681    Z=             -0.0202  Tot=              3.9427
 Quadrupole moment (field-independent basis, Debye-Ang):
   XX=           -138.8760   YY=           -103.6636   ZZ=            -99.0427
   XY=            -10.6616   XZ=             -0.2273   YZ=             -0.7899

 Summary of Natural Population Analysis:

                                       Natural Population
                Natural  -----------------------------------------------
    Atom  No    Charge         Core      Valence    Rydberg      Total
 -----------------------------------------------------------------------
      C    1   -0.29029      0.99961     2.28232    0.00835     3.29029
      C    2    0.04434      0.99960     1.94330    0.01276     2.95566
      C    3   -0.28598      0.99962     2.28025    0.00612     3.28598
      C    4   -0.09221      0.99956     2.08172    0.01093     3.09221
      N    5   -0.34919      0.99974     2.83787    0.01157     3.84919
      C    6   -0.08481      0.99962     2.07452    0.01067     3.08481
      C    7   -0.20309      0.99962     2.19595    0.00752     3.20309
      C    8   -0.09314      0.99964     2.08056    0.01295     3.09314
      N    9   -0.42602      0.99977     2.91459    0.01165     3.92602
      N   10   -0.42860      0.99975     2.91854    0.01030     3.92860
      H   11    0.10018      0.00000     0.39852    0.00130     0.39982
      H   12    0.10054      0.00000     0.39826    0.00119     0.39946
      H   13    0.10226      0.00000     0.39669    0.00105     0.39774
      H   14    0.10169      0.00000     0.39699    0.00132     0.39831
      H   15    0.09744      0.00000     0.40127    0.00129     0.40256
      H   16    0.10231      0.00000     0.39658    0.00111     0.39769
      H   17    0.09192      0.00000     0.40621    0.00187     0.40808
      H   18    0.08548      0.00000     0.41248    0.00204     0.41452
      H   19    0.17522      0.00000     0.31996    0.00483     0.32478
      H   20    0.09246      0.00000     0.40625    0.00129     0.40754
      H   21    0.09092      0.00000     0.40772    0.00136     0.40908
      H   22    0.09878      0.00000     0.39986    0.00135     0.40122
      H   23    0.09643      0.00000     0.40232    0.00125     0.40357
      H   24    0.09162      0.00000     0.40695    0.00144     0.40838
      H   25    0.07924      0.00000     0.41765    0.00310     0.42076
      H   26    0.17902      0.00000     0.31736    0.00363     0.32098
      H   27    0.17165      0.00000     0.32585    0.00250     0.32835
      H   28    0.16995      0.00000     0.32826    0.00179     0.33005
      H   29    0.18187      0.00000     0.31577    0.00236     0.31813
 =======================================================================
   * Total *   -0.00000      9.99654    30.86457    0.13889    41.00000

 Normal termination of Gaussian 16 at Tue Dec  8 10:34:35 2020.
