 Gaussian 16, Revision A.03,

 -----------------------------------------------------------
 # opt freq B3LYP/6-31G(d) empiricaldispersion=gd3bj scf=xqc
 -----------------------------------------------------------

 -------------------------------
 CID_154168103_JID_2415_neutraal
 -------------------------------
 Symbolic Z-matrix:
 Charge =  0 Multiplicity = 1

 SCF Done:  E(RB3LYP) =  -471.784037963     A.U. after   13 cycles
 SCF Done:  E(RB3LYP) =  -471.785246522     A.U. after   11 cycles
 SCF Done:  E(RB3LYP) =  -471.785490930     A.U. after   11 cycles
 SCF Done:  E(RB3LYP) =  -471.785769501     A.U. after    9 cycles
 SCF Done:  E(RB3LYP) =  -471.785785645     A.U. after    9 cycles
 SCF Done:  E(RB3LYP) =  -471.785813330     A.U. after    9 cycles
 SCF Done:  E(RB3LYP) =  -471.785825234     A.U. after    8 cycles
 SCF Done:  E(RB3LYP) =  -471.785827808     A.U. after    8 cycles
 SCF Done:  E(RB3LYP) =  -471.785830776     A.U. after    8 cycles
 SCF Done:  E(RB3LYP) =  -471.785831821     A.U. after    8 cycles
 SCF Done:  E(RB3LYP) =  -471.785832127     A.U. after    7 cycles
 SCF Done:  E(RB3LYP) =  -471.785832181     A.U. after    6 cycles
 Optimization completed.
    -- Stationary point found.
 Normal termination of Gaussian 16 at Wed Dec  9 17:22:34 2020.

 --------------------------------------------------------------------
 #N Geom=AllCheck Guess=TCheck SCRF=Check GenChk RB3LYP/6-31G(d) Freq
 --------------------------------------------------------------------

 Structure from the checkpoint file:  "JID_2415.chk"
 -------------------------------
 CID_154168103_JID_2415_neutraal
 -------------------------------
 Charge =  0 Multiplicity = 1

 SCF Done:  E(RB3LYP) =  -471.785832181     A.U. after    1 cycles

  Exact polarizability: 153.223  -7.612 123.201   1.086   3.501 109.533
 Approx polarizability: 194.443 -15.506 172.189   1.849   6.397 159.661

                      1                      2                      3
                      A                      A                      A
 Frequencies --     22.5733                38.6954                76.8348
 Red. masses --      2.8532                 3.1835                 2.7765
 Frc consts  --      0.0009                 0.0028                 0.0097
 IR Inten    --      0.0065                 0.0237                 0.0515

                      4                      5                      6
                      A                      A                      A
 Frequencies --     90.4801                99.8880               156.2779
 Red. masses --      2.7804                 2.5494                 2.5983
 Frc consts  --      0.0134                 0.0150                 0.0374
 IR Inten    --      0.1200                 0.2119                 0.0055

                      7                      8                      9
                      A                      A                      A
 Frequencies --    159.0599               216.2692               223.1984
 Red. masses --      1.8792                 1.4524                 1.1858
 Frc consts  --      0.0280                 0.0400                 0.0348
 IR Inten    --      0.0717                 0.1961                 0.0551

                     10                     11                     12
                      A                      A                      A
 Frequencies --    246.0233               249.4634               258.4728
 Red. masses --      1.2210                 1.8880                 1.6117
 Frc consts  --      0.0435                 0.0692                 0.0634
 IR Inten    --      0.0361                 0.0882                 0.0277

                     13                     14                     15
                      A                      A                      A
 Frequencies --    290.3247               298.6227               337.9128
 Red. masses --      1.2571                 1.9651                 2.3141
 Frc consts  --      0.0624                 0.1032                 0.1557
 IR Inten    --      0.1378                 0.1704                 0.0284

                     16                     17                     18
                      A                      A                      A
 Frequencies --    356.7909               360.9938               382.2639
 Red. masses --      2.2245                 1.2954                 1.4804
 Frc consts  --      0.1668                 0.0995                 0.1275
 IR Inten    --      0.3511                 0.3547                 0.1042

                     19                     20                     21
                      A                      A                      A
 Frequencies --    405.4661               428.1319               467.0173
 Red. masses --      2.2179                 2.2918                 1.9732
 Frc consts  --      0.2148                 0.2475                 0.2536
 IR Inten    --      0.5280                 0.2875                 0.0556

                     22                     23                     24
                      A                      A                      A
 Frequencies --    505.1007               584.0515               664.9533
 Red. masses --      2.5171                 2.6608                 2.9197
 Frc consts  --      0.3784                 0.5348                 0.7606
 IR Inten    --      0.7669                 1.0344                 4.6584

                     25                     26                     27
                      A                      A                      A
 Frequencies --    748.0609               763.4458               789.5305
 Red. masses --      1.8023                 1.8910                 2.1027
 Frc consts  --      0.5942                 0.6494                 0.7723
 IR Inten    --      1.2461                 3.9500                 2.4842

                     28                     29                     30
                      A                      A                      A
 Frequencies --    809.4060               824.2471               886.2910
 Red. masses --      1.5431                 1.8389                 1.4298
 Frc consts  --      0.5956                 0.7361                 0.6617
 IR Inten    --      3.8150                 1.9825                 1.7015

                     31                     32                     33
                      A                      A                      A
 Frequencies --    915.3679               927.1471               936.5741
 Red. masses --      1.8448                 1.6483                 1.7329
 Frc consts  --      0.9107                 0.8348                 0.8956
 IR Inten    --      6.1104                 6.7027                 0.0005

                     34                     35                     36
                      A                      A                      A
 Frequencies --    954.6358               965.4446               973.1794
 Red. masses --      1.7265                 1.6723                 1.2016
 Frc consts  --      0.9270                 0.9183                 0.6705
 IR Inten    --      1.5687                 3.7876                 0.0081

                     37                     38                     39
                      A                      A                      A
 Frequencies --    987.3432               997.5755              1058.1025
 Red. masses --      1.7451                 2.0094                 1.6215
 Frc consts  --      1.0023                 1.1782                 1.0696
 IR Inten    --      2.6207                 2.9087                 0.4850

                     40                     41                     42
                      A                      A                      A
 Frequencies --   1060.0191              1069.0033              1087.5500
 Red. masses --      1.4329                 1.5463                 1.9541
 Frc consts  --      0.9486                 1.0411                 1.3617
 IR Inten    --      0.9399                 2.2649                 0.0688

                     43                     44                     45
                      A                      A                      A
 Frequencies --   1098.8367              1135.2088              1144.0313
 Red. masses --      1.5723                 1.6791                 1.9288
 Frc consts  --      1.1185                 1.2749                 1.4874
 IR Inten    --      3.2045                 1.1296                 1.3624

                     46                     47                     48
                      A                      A                      A
 Frequencies --   1188.4885              1229.8847              1237.9936
 Red. masses --      2.0662                 1.2723                 2.5988
 Frc consts  --      1.7195                 1.1339                 2.3467
 IR Inten    --      3.9482                 0.9179                 5.6767

                     49                     50                     51
                      A                      A                      A
 Frequencies --   1252.6154              1275.3660              1311.5558
 Red. masses --      2.2896                 1.3307                 1.4141
 Frc consts  --      2.1166                 1.2753                 1.4332
 IR Inten    --      7.1540                 0.7787                10.6874

                     52                     53                     54
                      A                      A                      A
 Frequencies --   1315.5870              1336.1684              1362.8974
 Red. masses --      2.1013                 1.1624                 1.3673
 Frc consts  --      2.1428                 1.2227                 1.4964
 IR Inten    --      4.8962                 1.2252                 1.8222

                     55                     56                     57
                      A                      A                      A
 Frequencies --   1371.2277              1397.5105              1408.5059
 Red. masses --      1.4105                 1.3198                 1.4782
 Frc consts  --      1.5626                 1.5186                 1.7278
 IR Inten    --      2.8120                 7.2902                 3.9596

                     58                     59                     60
                      A                      A                      A
 Frequencies --   1422.1708              1424.6976              1429.9357
 Red. masses --      1.2151                 1.2483                 1.2738
 Frc consts  --      1.4480                 1.4928                 1.5346
 IR Inten    --      3.5754                 4.0221                 1.7243

                     61                     62                     63
                      A                      A                      A
 Frequencies --   1439.4132              1443.0974              1460.8034
 Red. masses --      1.2678                 1.2567                 1.2602
 Frc consts  --      1.5477                 1.5420                 1.5845
 IR Inten    --      2.3317                 9.0628                 2.4782

                     64                     65                     66
                      A                      A                      A
 Frequencies --   1510.8897              1511.4265              1514.2270
 Red. masses --      1.0556                 1.0740                 1.0561
 Frc consts  --      1.4198                 1.4456                 1.4267
 IR Inten    --      0.3179                 0.6944                 1.4398

                     67                     68                     69
                      A                      A                      A
 Frequencies --   1516.7757              1524.0837              1524.5274
 Red. masses --      1.0468                 1.0545                 1.0644
 Frc consts  --      1.4189                 1.4432                 1.4576
 IR Inten    --      0.2077                 0.6594                 5.9863

                     70                     71                     72
                      A                      A                      A
 Frequencies --   1525.6865              1528.1355              1534.3257
 Red. masses --      1.0527                 1.0485                 1.0621
 Frc consts  --      1.4438                 1.4426                 1.4731
 IR Inten    --      4.6607                 1.6395                 5.4138

                     73                     74                     75
                      A                      A                      A
 Frequencies --   1534.4907              1540.9638              1541.5380
 Red. masses --      1.0653                 1.0695                 1.0523
 Frc consts  --      1.4779                 1.4963                 1.4733
 IR Inten    --      5.5260                 2.4135                 6.7671

                     76                     77                     78
                      A                      A                      A
 Frequencies --   1542.9825              1560.2599              1740.4339
 Red. masses --      1.0802                 1.0713                 7.4577
 Frc consts  --      1.5152                 1.5366                13.3098
 IR Inten    --      4.2748                 6.6805                 0.2772

                     79                     80                     81
                      A                      A                      A
 Frequencies --   3022.8930              3036.9311              3037.3849
 Red. masses --      1.0632                 1.0345                 1.0630
 Frc consts  --      5.7244                 5.6214                 5.7778
 IR Inten    --     29.5201                25.0587                28.0202

                     82                     83                     84
                      A                      A                      A
 Frequencies --   3040.4406              3043.1550              3045.2777
 Red. masses --      1.0350                 1.0486                 1.0350
 Frc consts  --      5.6374                 5.7217                 5.6550
 IR Inten    --     32.7484                14.4595                17.9283

                     85                     86                     87
                      A                      A                      A
 Frequencies --   3047.4950              3050.9096              3065.2749
 Red. masses --      1.0491                 1.0372                 1.0965
 Frc consts  --      5.7407                 5.6880                 6.0703
 IR Inten    --     36.2000                26.6973                26.3404

                     88                     89                     90
                      A                      A                      A
 Frequencies --   3067.2085              3072.3418              3082.4985
 Red. masses --      1.0779                 1.0972                 1.1006
 Frc consts  --      5.9747                 6.1018                 6.1617
 IR Inten    --     33.2677                29.9727                46.9541

                     91                     92                     93
                      A                      A                      A
 Frequencies --   3091.0594              3103.2126              3105.5078
 Red. masses --      1.0873                 1.1022                 1.1010
 Frc consts  --      6.1210                 6.2534                 6.2562
 IR Inten    --     27.2400                 3.0016                11.0258

                     94                     95                     96
                      A                      A                      A
 Frequencies --   3109.2291              3109.6946              3111.9631
 Red. masses --      1.1015                 1.1015                 1.1009
 Frc consts  --      6.2740                 6.2759                 6.2815
 IR Inten    --     40.3554                19.0998               100.0904

                     97                     98                     99
                      A                      A                      A
 Frequencies --   3113.9662              3115.7971              3116.9936
 Red. masses --      1.1027                 1.1018                 1.1017
 Frc consts  --      6.2997                 6.3022                 6.3065
 IR Inten    --     27.8111                84.3862                68.6615

                    100                    101                    102
                      A                      A                      A
 Frequencies --   3117.7789              3132.5011              3162.9046
 Red. masses --      1.1011                 1.1023                 1.0896
 Frc consts  --      6.3060                 6.3729                 6.4221
 IR Inten    --     19.0734                31.7497                22.5204

 - Thermochemistry -
 -------------------
 Temperature   298.150 Kelvin.  Pressure   1.00000 Atm.
 Atom     1 has atomic number  6 and mass  12.00000

 Molecular mass:   168.18780 amu.
 Principal axes and moments of inertia in atomic units:
                           1         2         3
     Eigenvalues --  1411.100023659.805264209.91125
           X            0.99999  -0.00316  -0.00100
           Y            0.00317   0.99999   0.00270
           Z            0.00099  -0.00270   1.00000
 This molecule is an asymmetric top.
 Rotational symmetry number  1.
 Warning -- assumption of classical behavior for rotation
           may cause significant error
 Rotational temperatures (Kelvin)      0.06138     0.02367     0.02057
 Rotational constants (GHZ):           1.27896     0.49312     0.42869
 Zero-point vibrational energy     888292.8 (Joules/Mol)
                                  212.30706 (Kcal/Mol)
 Warning -- explicit consideration of  23 degrees of freedom as
           vibrations may cause significant error
 Vibrational temperatures:     32.48    55.67   110.55   130.18   143.72
          (Kelvin)            224.85   228.85   311.16   321.13   353.97
                              358.92   371.88   417.71   429.65   486.18
                              513.34   519.39   549.99   583.38   615.99
                              671.93   726.73   840.32   956.72  1076.29
                             1098.43  1135.96  1164.55  1185.91  1275.18
                             1317.01  1333.96  1347.52  1373.51  1389.06
                             1400.19  1420.57  1435.29  1522.37  1525.13
                             1538.06  1564.74  1580.98  1633.31  1646.01
                             1709.97  1769.53  1781.20  1802.23  1834.97
                             1887.04  1892.84  1922.45  1960.91  1972.89
                             2010.71  2026.53  2046.19  2049.82  2057.36
                             2070.99  2076.30  2101.77  2173.83  2174.61
                             2178.63  2182.30  2192.82  2193.45  2195.12
                             2198.65  2207.55  2207.79  2217.10  2217.93
                             2220.01  2244.87  2504.10  4349.27  4369.47
                             4370.12  4374.52  4378.42  4381.48  4384.67
                             4389.58  4410.25  4413.03  4420.41  4435.03
                             4447.35  4464.83  4468.13  4473.49  4474.16
                             4477.42  4480.30  4482.94  4484.66  4485.79
                             4506.97  4550.71

 Zero-point correction=                           0.338333 (Hartree/Particle)
 Thermal correction to Energy=                    0.353810
 Thermal correction to Enthalpy=                  0.354755
 Thermal correction to Gibbs Free Energy=         0.295670
 Sum of electronic and zero-point Energies=           -471.447499
 Sum of electronic and thermal Energies=              -471.432022
 Sum of electronic and thermal Enthalpies=            -471.431078
 Sum of electronic and thermal Free Energies=         -471.490162

                     E (Thermal)             CV                S
                      KCal/Mol        Cal/Mol-Kelvin    Cal/Mol-Kelvin
 Total                  222.019             58.105            124.354
 Electronic               0.000              0.000              0.000
 Translational            0.889              2.981             41.268
 Rotational               0.889              2.981             31.453
 Vibrational            220.242             52.143             51.633
 Vibration     1          0.593              1.985              6.394
 Vibration     2          0.594              1.981              5.325
 Vibration     3          0.599              1.965              3.970
 Vibration     4          0.602              1.956              3.650
 Vibration     5          0.604              1.949              3.457
 Vibration     6          0.620              1.896              2.594
 Vibration     7          0.621              1.892              2.561
 Vibration     8          0.645              1.816              1.990
 Vibration     9          0.649              1.806              1.933
 Vibration    10          0.660              1.769              1.759
 Vibration    11          0.662              1.764              1.734
 Vibration    12          0.667              1.748              1.672
 Vibration    13          0.686              1.692              1.472
 Vibration    14          0.692              1.676              1.425
 Vibration    15          0.718              1.600              1.222
 Vibration    16          0.732              1.561              1.136
 Vibration    17          0.735              1.553              1.118
 Vibration    18          0.752              1.508              1.030
 Vibration    19          0.770              1.458              0.943
 Vibration    20          0.790              1.409              0.865
 Vibration    21          0.824              1.323              0.746
 Vibration    22          0.860              1.239              0.645
 Vibration    23          0.941              1.066              0.478

 Optimization completed.
    -- Stationary point found.
 Normal termination of Gaussian 16 at Wed Dec  9 17:31:26 2020.

 ----------------------------------------------------------------------
 # B3LYP/6-311++G(d,p) empiricaldispersion=gd3bj scf=xqc pop=npa geom=c
 heck
 ----------------------------------------------------------------------

 ---------------------------------------
 CID_154168103_JID_2415_Energie_neutraal
 ---------------------------------------
 Structure from the checkpoint file:  "JID_2415.chk"
 Charge =  0 Multiplicity = 1

 SCF Done:  E(RB3LYP) =  -471.916711463     A.U. after   12 cycles
 Normal termination of Gaussian 16 at Wed Dec  9 17:35:02 2020.

 ----------------------------------------------------------------------
 # B3LYP/6-311++G(d,p) empiricaldispersion=gd3bj scf=xqc pop=npa geom=c
 heck
 ----------------------------------------------------------------------

 -------------------------------------
 CID_154168103_JID_2415_Energie_kation
 -------------------------------------
 Structure from the checkpoint file:  "JID_2415.chk"
 Charge =  1 Multiplicity = 2

 SCF Done:  E(UB3LYP) =  -471.615150135     A.U. after   17 cycles
 Normal termination of Gaussian 16 at Wed Dec  9 17:41:14 2020.
 Gaussian 16:  ES64L-G16RevA.03 25-Dec-2016

 ----------------------------------------------------------------------
 # B3LYP/6-311++G(d,p) empiricaldispersion=gd3bj scf=xqc pop=npa geom=c
 heck
 ----------------------------------------------------------------------

 ------------------------------------
 CID_154168103_JID_2415_Energie_anion
 ------------------------------------
 Structure from the checkpoint file:  "JID_2415.chk"
 Charge = -1 Multiplicity = 2

                         Standard orientation:
 ---------------------------------------------------------------------
 Center     Atomic      Atomic             Coordinates (Angstroms)
 Number     Number       Type             X           Y           Z
 ---------------------------------------------------------------------
      1          6           0       -3.992724   -0.063256    0.673531
      2          6           0       -2.859343   -1.093750    0.669958
      3          6           0       -2.220098   -1.313503   -0.707908
      4          6           0       -1.422746   -0.117164   -1.268426
      5          6           0       -0.231946    0.273401   -0.398771
      6          6           0        0.891990   -0.450297   -0.516092
      7          6           0        2.267937   -0.414291    0.127906
      8          6           0        2.574149   -1.839451    0.640896
      9          6           0        3.284373   -0.056770   -0.980598
     10          6           0        2.454163    0.565882    1.295153
     11          6           0       -0.459917    1.485183    0.481673
     12          6           0       -0.181795    2.795901   -0.273959
     13          1           0       -3.646089    0.929670    0.366449
     14          1           0       -4.434560    0.037044    1.671248
     15          1           0       -4.791509   -0.359208   -0.017749
     16          1           0       -2.082536   -0.800276    1.388022
     17          1           0       -3.254126   -2.053811    1.027606
     18          1           0       -1.538459   -2.171842   -0.649700
     19          1           0       -3.005511   -1.584374   -1.428298
     20          1           0       -1.076686   -0.384874   -2.273908
     21          1           0       -2.089002    0.745486   -1.395286
     22          1           0        0.843787   -1.250499   -1.260661
     23          1           0        2.492141   -2.577073   -0.165902
     24          1           0        3.591583   -1.895399    1.046637
     25          1           0        1.872881   -2.127254    1.432194
     26          1           0        3.108062    0.957028   -1.356827
     27          1           0        4.310930   -0.108156   -0.596724
     28          1           0        3.205693   -0.747923   -1.827744
     29          1           0        2.290943    1.604123    0.991270
     30          1           0        1.782344    0.335103    2.128153
     31          1           0        3.481800    0.491392    1.670480
     32          1           0       -1.504601    1.489620    0.814003
     33          1           0        0.146412    1.453982    1.386261
     34          1           0       -0.785003    2.862552   -1.186765
     35          1           0       -0.413838    3.668129    0.348002
     36          1           0        0.871085    2.855250   -0.570939
 ---------------------------------------------------------------------

 SCF Done:  E(UB3LYP) =  -471.900622034     A.U. after   32 cycles

 The electronic state is 2-A.
 Alpha  occ. eigenvalues --  -10.08818 -10.07071 -10.06604 -10.06504 -10.06474
 Alpha  occ. eigenvalues --  -10.06452 -10.06207 -10.05955 -10.05808 -10.05772
 Alpha  occ. eigenvalues --  -10.05753 -10.05712  -0.73573  -0.70932  -0.67982
 Alpha  occ. eigenvalues --   -0.63947  -0.60157  -0.58681  -0.58510  -0.54732
 Alpha  occ. eigenvalues --   -0.52897  -0.47945  -0.45683  -0.40636  -0.37348
 Alpha  occ. eigenvalues --   -0.36790  -0.35794  -0.34681  -0.34088  -0.33421
 Alpha  occ. eigenvalues --   -0.31930  -0.30789  -0.29519  -0.29098  -0.28539
 Alpha  occ. eigenvalues --   -0.28239  -0.27417  -0.27361  -0.26637  -0.24986
 Alpha  occ. eigenvalues --   -0.24431  -0.23708  -0.23469  -0.22922  -0.22496
 Alpha  occ. eigenvalues --   -0.22036  -0.20075  -0.13412   0.04440
 Alpha virt. eigenvalues --    0.06347   0.06966   0.07414   0.08332   0.08816
 Alpha virt. eigenvalues --    0.08926   0.09447   0.09832   0.10634   0.10867
 Alpha virt. eigenvalues --    0.11361   0.11573   0.11964   0.12243   0.12859

  Beta  occ. eigenvalues --  -10.08817 -10.07073 -10.06590 -10.06492 -10.06461
  Beta  occ. eigenvalues --  -10.06439 -10.06180 -10.05925 -10.05781 -10.05760
  Beta  occ. eigenvalues --  -10.05726 -10.05684  -0.73558  -0.70910  -0.67955
  Beta  occ. eigenvalues --   -0.63916  -0.60121  -0.58629  -0.58456  -0.54683
  Beta  occ. eigenvalues --   -0.52837  -0.47895  -0.45633  -0.40598  -0.37321
  Beta  occ. eigenvalues --   -0.36761  -0.35767  -0.34649  -0.34052  -0.33394
  Beta  occ. eigenvalues --   -0.31900  -0.30759  -0.29490  -0.29067  -0.28501
  Beta  occ. eigenvalues --   -0.28208  -0.27386  -0.27315  -0.26607  -0.24959
  Beta  occ. eigenvalues --   -0.24406  -0.23680  -0.23440  -0.22889  -0.22469
  Beta  occ. eigenvalues --   -0.22007  -0.20052  -0.13399
  Beta virt. eigenvalues --    0.06404   0.07158   0.07548   0.07874   0.08813
  Beta virt. eigenvalues --    0.09292   0.09326   0.09764   0.10177   0.11025
  Beta virt. eigenvalues --    0.11212   0.11741   0.11939   0.12084   0.12563

 Mulliken charges and spin densities:
               1          2
     1  C    1.108712  -1.709245
     2  C   -1.113600   0.851720
     3  C    0.293736  -0.481090
     4  C    0.424848  -0.814106
     5  C    1.174856  -0.511877
     6  C    0.371529  -0.822734
     7  C   -2.518154   3.159707
     8  C    0.969575  -1.583288
     9  C    0.601138  -1.224764
    10  C   -0.143997  -0.494911
    11  C   -0.824124   0.506088
    12  C    0.719381  -1.423515
    13  H   -0.187313   0.317270
    14  H   -0.292906   0.431713
    15  H   -0.105961   0.235387
    16  H    0.031616   0.106936
    17  H   -0.308013   0.466727
    18  H    0.035050   0.097529
    19  H   -0.132364   0.274546
    20  H   -0.055871   0.233123
    21  H    0.285585  -0.142348
    22  H    0.150905   0.045680
    23  H   -0.242066   0.375395
    24  H   -0.209230   0.361266
    25  H    0.024015   0.113535
    26  H    0.017926   0.113560
    27  H   -0.184970   0.336247
    28  H   -0.255738   0.394694
    29  H   -0.170849   0.315516
    30  H   -0.167466   0.320292
    31  H   -0.124914   0.273271
    32  H    0.107784   0.073602
    33  H    0.059722   0.057513
    34  H   -0.132820   0.277611
    35  H   -0.246049   0.382050
    36  H    0.040027   0.086900
 Sum of Mulliken charges =  -1.00000   1.00000

 Dipole moment (field-independent basis, Debye):
    X=             -0.1181    Y=              0.2776    Z=             -0.9931  Tot=              1.0379
 Quadrupole moment (field-independent basis, Debye-Ang):
   XX=           -161.4917   YY=           -127.4033   ZZ=           -117.5194
   XY=              1.8305   XZ=              3.5929   YZ=             -1.3464

 Summary of Natural Population Analysis:

                                       Natural Population
                Natural  -----------------------------------------------
    Atom  No    Charge         Core      Valence    Rydberg      Total
 -----------------------------------------------------------------------
      C    1   -0.28709      0.99967     2.28221    0.00521     3.28709
      C    2   -0.19352      0.99964     2.18620    0.00769     3.19352
      C    3   -0.18228      0.99962     2.17470    0.00796     3.18228
      C    4   -0.20013      0.99958     2.19111    0.00944     3.20013
      C    5   -0.00418      0.99948     1.99342    0.01128     3.00418
      C    6   -0.08966      0.99943     2.07812    0.01211     3.08966
      C    7   -0.06312      0.99958     2.05254    0.01101     3.06312
      C    8   -0.27834      0.99963     2.27160    0.00711     3.27834
      C    9   -0.27799      0.99963     2.27144    0.00693     3.27799
      C   10   -0.28486      0.99963     2.27798    0.00726     3.28486
      C   11   -0.20858      0.99958     2.20057    0.00843     3.20858
      C   12   -0.27914      0.99966     2.27454    0.00494     3.27914
      H   13    0.09532      0.00000     0.40340    0.00128     0.40468
      H   14    0.09907      0.00000     0.39988    0.00105     0.40093
      H   15    0.09481      0.00000     0.40406    0.00113     0.40519
      H   16    0.09627      0.00000     0.40225    0.00148     0.40373
      H   17    0.09511      0.00000     0.40381    0.00108     0.40489
      H   18    0.09772      0.00000     0.40093    0.00135     0.40228
      H   19    0.09234      0.00000     0.40651    0.00115     0.40766
      H   20    0.10096      0.00000     0.39791    0.00113     0.39904
      H   21    0.09653      0.00000     0.40193    0.00154     0.40347
      H   22    0.09138      0.00000     0.40690    0.00172     0.40862
      H   23    0.09927      0.00000     0.39961    0.00112     0.40073
      H   24    0.09810      0.00000     0.40084    0.00105     0.40190
      H   25    0.10070      0.00000     0.39828    0.00102     0.39930
      H   26    0.10020      0.00000     0.39872    0.00108     0.39980
      H   27    0.09786      0.00000     0.40110    0.00104     0.40214
      H   28    0.09955      0.00000     0.39936    0.00110     0.40045
      H   29    0.10093      0.00000     0.39789    0.00118     0.39907
      H   30    0.10008      0.00000     0.39872    0.00120     0.39992
      H   31    0.10008      0.00000     0.39892    0.00100     0.39992
      H   32    0.09890      0.00000     0.39931    0.00180     0.40110
      H   33    0.10359      0.00000     0.39478    0.00163     0.39641
      H   34    0.09587      0.00000     0.40314    0.00099     0.40413
      H   35    0.09729      0.00000     0.40175    0.00097     0.40271
      H   36    0.09697      0.00000     0.40195    0.00108     0.40303
 =======================================================================
   * Total *   -0.00000     11.99512    35.87637    0.12852    48.00000

 Normal termination of Gaussian 16 at Wed Dec  9 17:53:22 2020.
