 Gaussian 16, Revision A.03,

 -----------------------------------------------------------
 # opt freq B3LYP/6-31G(d) empiricaldispersion=gd3bj scf=xqc
 -----------------------------------------------------------

 -------------------------------
 CID_103162629_JID_3813_neutraal
 -------------------------------
 Symbolic Z-matrix:
 Charge =  0 Multiplicity = 1

 SCF Done:  E(RB3LYP) =  -571.594008444     A.U. after   14 cycles
 SCF Done:  E(RB3LYP) =  -571.600934131     A.U. after   12 cycles
 SCF Done:  E(RB3LYP) =  -571.601313253     A.U. after   11 cycles
 SCF Done:  E(RB3LYP) =  -571.601529377     A.U. after   10 cycles
 SCF Done:  E(RB3LYP) =  -571.601562950     A.U. after   10 cycles
 SCF Done:  E(RB3LYP) =  -571.601574795     A.U. after    9 cycles
 SCF Done:  E(RB3LYP) =  -571.601579186     A.U. after    8 cycles
 SCF Done:  E(RB3LYP) =  -571.601581239     A.U. after    8 cycles
 SCF Done:  E(RB3LYP) =  -571.601582163     A.U. after    8 cycles
 SCF Done:  E(RB3LYP) =  -571.601582441     A.U. after    7 cycles
 Optimization completed.
    -- Stationary point found.

 1\1\GINC-NODE222\FOpt\RB3LYP\6-31G(d)\C9H16N4\VSC10255\14-Dec-2020\0\\
 # opt freq B3LYP/6-31G(d) empiricaldispersion=gd3bj scf=xqc\\CID_10316
 2629_JID_3813_neutraal\\0,1\C,0.8930835168,0.0434488633,-0.2023378942\
 N,0.2075754733,-0.9009507145,-1.1010254061\C,-0.2772013224,-2.06110874
 93,-0.494048075\N,0.2279793857,-3.2694351265,-0.5813432844\N,-0.611924
 0234,-4.1137837599,0.1313083849\C,-1.5833264365,-3.3882464122,0.638209
 4259\N,-1.428700172,-2.0691379656,0.2589435251\C,-2.3010971399,-0.9382
 601402,0.5124625922\C,-2.7263539427,-3.902011823,1.4513273046\C,-3.882

 Normal termination of Gaussian 16 at Mon Dec 14 13:10:39 2020.

 --------------------------------------------------------------------
 #N Geom=AllCheck Guess=TCheck SCRF=Check GenChk RB3LYP/6-31G(d) Freq
 --------------------------------------------------------------------

 Structure from the checkpoint file:  "JID_3813.chk"
 -------------------------------
 CID_103162629_JID_3813_neutraal
 -------------------------------
 Charge =  0 Multiplicity = 1

 SCF Done:  E(RB3LYP) =  -571.601582441     A.U. after    1 cycles

  Exact polarizability: 141.934   2.682 107.988  -9.692   2.674  93.445
 Approx polarizability: 175.424   3.937 177.959 -21.645   6.162 140.238

                      1                      2                      3
                      A                      A                      A
 Frequencies --     48.3737                61.4009                77.2532
 Red. masses --      3.7462                 3.5629                 2.5514
 Frc consts  --      0.0052                 0.0079                 0.0090
 IR Inten    --      2.2726                 0.5963                 0.9131

                      4                      5                      6
                      A                      A                      A
 Frequencies --    100.6188               122.5726               167.3305
 Red. masses --      2.4821                 3.1962                 1.8766
 Frc consts  --      0.0148                 0.0283                 0.0310
 IR Inten    --      8.5726                 0.2596                 0.3423

                      7                      8                      9
                      A                      A                      A
 Frequencies --    174.3546               180.6492               202.8339
 Red. masses --      1.2394                 1.1786                 3.3837
 Frc consts  --      0.0222                 0.0227                 0.0820
 IR Inten    --      0.8417                 1.3912                 0.5534

                     10                     11                     12
                      A                      A                      A
 Frequencies --    243.5922               279.8749               318.6623
 Red. masses --      2.8203                 3.2358                 3.2913
 Frc consts  --      0.0986                 0.1493                 0.1969
 IR Inten    --      0.8988                 2.8414                 3.5619

                     13                     14                     15
                      A                      A                      A
 Frequencies --    336.9687               425.7758               495.0826
 Red. masses --      1.7784                 5.3506                 2.8920
 Frc consts  --      0.1190                 0.5715                 0.4176
 IR Inten    --      1.0754                 2.2211                 2.7766

                     16                     17                     18
                      A                      A                      A
 Frequencies --    503.2642               618.2883               635.6211
 Red. masses --      2.8883                 2.8410                 4.6886
 Frc consts  --      0.4310                 0.6399                 1.1161
 IR Inten    --     10.1889                 3.5377                12.8532

                     19                     20                     21
                      A                      A                      A
 Frequencies --    710.2536               723.3527               748.9631
 Red. masses --      3.8279                 4.8173                 4.6413
 Frc consts  --      1.1377                 1.4851                 1.5340
 IR Inten    --     17.8924                 0.5395                 6.0991

                     22                     23                     24
                      A                      A                      A
 Frequencies --    764.3806               785.1646               796.2769
 Red. masses --      2.1979                 1.6660                 1.7224
 Frc consts  --      0.7566                 0.6051                 0.6434
 IR Inten    --      2.7237                19.2867                13.9272

                     25                     26                     27
                      A                      A                      A
 Frequencies --    833.1461               884.1150               906.4990
 Red. masses --      1.6376                 1.9875                 2.1034
 Frc consts  --      0.6697                 0.9153                 1.0184
 IR Inten    --     39.0224                 1.8139                 1.6140

                     28                     29                     30
                      A                      A                      A
 Frequencies --    943.4166               972.6281               977.6201
 Red. masses --      2.3926                 2.6961                 1.2772
 Frc consts  --      1.2547                 1.5027                 0.7192
 IR Inten    --      1.9978                 0.0153                 0.4381

                     31                     32                     33
                      A                      A                      A
 Frequencies --    997.1594              1048.2236              1063.9213
 Red. masses --      3.3250                 3.0647                 1.9452
 Frc consts  --      1.9479                 1.9840                 1.2973
 IR Inten    --      3.6140                 3.4097                 4.5407

                     34                     35                     36
                      A                      A                      A
 Frequencies --   1087.6777              1104.2331              1146.7251
 Red. masses --      2.3966                 2.5468                 2.4863
 Frc consts  --      1.6705                 1.8296                 1.9263
 IR Inten    --      4.5506                 1.1994                 1.7513

                     37                     38                     39
                      A                      A                      A
 Frequencies --   1161.6991              1164.9944              1168.3693
 Red. masses --      1.5090                 1.4359                 1.5979
 Frc consts  --      1.1998                 1.1482                 1.2851
 IR Inten    --     25.0726                 3.0715                34.1616

                     40                     41                     42
                      A                      A                      A
 Frequencies --   1190.0297              1215.9017              1250.9037
 Red. masses --      1.5147                 1.5792                 1.3079
 Frc consts  --      1.2638                 1.3755                 1.2058
 IR Inten    --      5.3645                 4.1929                 2.3855

                     43                     44                     45
                      A                      A                      A
 Frequencies --   1258.8846              1274.6211              1282.2194
 Red. masses --      1.3823                 1.3965                 1.1656
 Frc consts  --      1.2907                 1.3368                 1.1291
 IR Inten    --      0.3715                 0.2061                 1.5176

                     46                     47                     48
                      A                      A                      A
 Frequencies --   1293.6632              1298.7951              1327.6212
 Red. masses --      1.4660                 3.4179                 1.5680
 Frc consts  --      1.4455                 3.3969                 1.6284
 IR Inten    --      2.7528                 4.4254                 2.4608

                     49                     50                     51
                      A                      A                      A
 Frequencies --   1345.9148              1393.0029              1413.1548
 Red. masses --      1.6794                 1.9013                 2.1806
 Frc consts  --      1.7925                 2.1737                 2.5658
 IR Inten    --      3.8959                32.4581                 6.7510

                     52                     53                     54
                      A                      A                      A
 Frequencies --   1445.3950              1463.0289              1483.3525
 Red. masses --      1.7549                 1.3683                 1.2272
 Frc consts  --      2.1601                 1.7256                 1.5910
 IR Inten    --     27.0537                19.0419                 7.6949

                     55                     56                     57
                      A                      A                      A
 Frequencies --   1501.9008              1510.5098              1517.8649
 Red. masses --      1.1125                 1.0899                 1.0863
 Frc consts  --      1.4785                 1.4651                 1.4746
 IR Inten    --      6.9267                 0.2292                 2.3886

                     58                     59                     60
                      A                      A                      A
 Frequencies --   1521.0785              1525.2667              1533.7745
 Red. masses --      1.0552                 1.0909                 1.1372
 Frc consts  --      1.4385                 1.4953                 1.5761
 IR Inten    --     17.5797                12.6209                 3.8747

                     61                     62                     63
                      A                      A                      A
 Frequencies --   1543.4890              1545.6771              1549.1773
 Red. masses --      1.1030                 1.1423                 2.5324
 Frc consts  --      1.5482                 1.6079                 3.5809
 IR Inten    --      8.6302                 2.4659                20.5144

                     64                     65                     66
                      A                      A                      A
 Frequencies --   1573.5504              1607.4078              3026.3207
 Red. masses --      4.1293                 3.9577                 1.0466
 Frc consts  --      6.0241                 6.0248                 5.6477
 IR Inten    --     33.2741               157.5532                64.1503

                     67                     68                     69
                      A                      A                      A
 Frequencies --   3043.7556              3056.2773              3060.0166
 Red. masses --      1.0707                 1.0744                 1.0450
 Frc consts  --      5.8444                 5.9129                 5.7654
 IR Inten    --      8.2204                35.6509                22.4302

                     70                     71                     72
                      A                      A                      A
 Frequencies --   3061.0900              3070.5102              3078.3619
 Red. masses --      1.0554                 1.0598                 1.0611
 Frc consts  --      5.8265                 5.8872                 5.9244
 IR Inten    --     80.0001                41.4840                31.4121

                     73                     74                     75
                      A                      A                      A
 Frequencies --   3097.5468              3107.7225              3110.2346
 Red. masses --      1.0996                 1.1070                 1.0890
 Frc consts  --      6.2163                 6.2990                 6.2066
 IR Inten    --     12.8848                24.2438                29.6482

                     76                     77                     78
                      A                      A                      A
 Frequencies --   3121.4175              3134.8035              3137.3875
 Red. masses --      1.1088                 1.0964                 1.1072
 Frc consts  --      6.3652                 6.3482                 6.4213
 IR Inten    --     26.6259                11.6197                47.3577

                     79                     80                     81
                      A                      A                      A
 Frequencies --   3144.5477              3167.9807              3535.0105
 Red. masses --      1.1043                 1.1051                 1.0736
 Frc consts  --      6.4339                 6.5345                 7.9047
 IR Inten    --     29.0422                 3.6785                13.3703

 - Thermochemistry -
 -------------------
 Temperature   298.150 Kelvin.  Pressure   1.00000 Atm.
 Atom     1 has atomic number  6 and mass  12.00000

 Molecular mass:   180.13750 amu.
 Principal axes and moments of inertia in atomic units:
                           1         2         3
     Eigenvalues --  1065.178783889.325954127.27016
           X            0.99994   0.01024   0.00452
           Y           -0.01040   0.99927   0.03675
           Z           -0.00414  -0.03679   0.99931
 This molecule is an asymmetric top.
 Rotational symmetry number  1.
 Warning -- assumption of classical behavior for rotation
           may cause significant error
 Rotational temperatures (Kelvin)      0.08131     0.02227     0.02099
 Rotational constants (GHZ):           1.69431     0.46402     0.43727
 Zero-point vibrational energy     668715.5 (Joules/Mol)
                                  159.82685 (Kcal/Mol)
 Warning -- explicit consideration of  17 degrees of freedom as
           vibrations may cause significant error
 Vibrational temperatures:     69.60    88.34   111.15   144.77   176.35
          (Kelvin)            240.75   250.86   259.91   291.83   350.47
                              402.68   458.48   484.82   612.60   712.31
                              724.08   889.58   914.52  1021.90  1040.74
                             1077.59  1099.77  1129.68  1145.66  1198.71
                             1272.04  1304.25  1357.37  1399.39  1406.58
                             1434.69  1508.16  1530.75  1564.93  1588.75
                             1649.88  1671.43  1676.17  1681.02  1712.19
                             1749.41  1799.77  1811.25  1833.90  1844.83
                             1861.29  1868.68  1910.15  1936.47  2004.22
                             2033.21  2079.60  2104.97  2134.21  2160.90
                             2173.29  2183.87  2188.49  2194.52  2206.76
                             2220.74  2223.88  2228.92  2263.99  2312.70
                             4354.20  4379.29  4397.30  4402.68  4404.23
                             4417.78  4429.08  4456.68  4471.32  4474.93
                             4491.02  4510.28  4514.00  4524.30  4558.02
                             5086.09

 Zero-point correction=                           0.254700 (Hartree/Particle)
 Thermal correction to Energy=                    0.267787
 Thermal correction to Enthalpy=                  0.268731
 Thermal correction to Gibbs Free Energy=         0.214598
 Sum of electronic and zero-point Energies=           -571.346882
 Sum of electronic and thermal Energies=              -571.333796
 Sum of electronic and thermal Enthalpies=            -571.332852
 Sum of electronic and thermal Free Energies=         -571.386984

                     E (Thermal)             CV                S
                      KCal/Mol        Cal/Mol-Kelvin    Cal/Mol-Kelvin
 Total                  168.039             48.382            113.932
 Electronic               0.000              0.000              0.000
 Translational            0.889              2.981             41.472
 Rotational               0.889              2.981             31.214
 Vibrational            166.261             42.421             41.246
 Vibration     1          0.595              1.978              4.883
 Vibration     2          0.597              1.973              4.412
 Vibration     3          0.599              1.964              3.959
 Vibration     4          0.604              1.949              3.442
 Vibration     5          0.610              1.930              3.059
 Vibration     6          0.624              1.883              2.465
 Vibration     7          0.627              1.874              2.388
 Vibration     8          0.630              1.866              2.322
 Vibration     9          0.639              1.836              2.107
 Vibration    10          0.659              1.773              1.776
 Vibration    11          0.680              1.711              1.534
 Vibration    12          0.705              1.638              1.317
 Vibration    13          0.718              1.602              1.226
 Vibration    14          0.788              1.414              0.873
 Vibration    15          0.851              1.261              0.671
 Vibration    16          0.859              1.243              0.650
 Vibration    17          0.978              0.993              0.419

                           ! Non-Optimized Parameters !

 1\1\GINC-NODE222\Freq\RB3LYP\6-31G(d)\C9H16N4\VSC10255\14-Dec-2020\0\\
 #N Geom=AllCheck Guess=TCheck SCRF=Check GenChk RB3LYP/6-31G(d) Freq\\
 CID_103162629_JID_3813_neutraal\\0,1\C,0.8930835168,0.0434488633,-0.20
 23378942\N,0.2075754733,-0.9009507145,-1.1010254061\C,-0.2772013224,-2
 .0611087493,-0.494048075\N,0.2279793857,-3.2694351265,-0.5813432844\N,
 -0.6119240234,-4.1137837599,0.1313083849\C,-1.5833264365,-3.3882464122
 ,0.6382094259\N,-1.428700172,-2.0691379656,0.2589435251\C,-2.301097139
 9,-0.9382601402,0.5124625922\C,-2.7263539427,-3.902011823,1.4513273046

 Normal termination of Gaussian 16 at Mon Dec 14 13:18:13 2020.

 ----------------------------------------------------------------------
 # B3LYP/6-311++G(d,p) empiricaldispersion=gd3bj scf=xqc pop=npa geom=c
 heck
 ----------------------------------------------------------------------

 ---------------------------------------
 CID_103162629_JID_3813_Energie_neutraal
 ---------------------------------------
 Structure from the checkpoint file:  "JID_3813.chk"
 Charge =  0 Multiplicity = 1

 SCF Done:  E(RB3LYP) =  -571.756777225     A.U. after   14 cycles
 Normal termination of Gaussian 16 at Mon Dec 14 13:21:33 2020.

 ----------------------------------------------------------------------
 # B3LYP/6-311++G(d,p) empiricaldispersion=gd3bj scf=xqc pop=npa geom=c
 heck
 ----------------------------------------------------------------------

 -------------------------------------
 CID_103162629_JID_3813_Energie_kation
 -------------------------------------
 Structure from the checkpoint file:  "JID_3813.chk"
 Charge =  1 Multiplicity = 2

 SCF Done:  E(UB3LYP) =  -571.455410369     A.U. after   23 cycles
 Normal termination of Gaussian 16 at Mon Dec 14 13:29:10 2020.
 Gaussian 16:  ES64L-G16RevA.03 25-Dec-2016

 ------------------------------------
 CID_103162629_JID_3813_Energie_anion
 ------------------------------------
 Structure from the checkpoint file:  "JID_3813.chk"
 Charge = -1 Multiplicity = 2

                         Standard orientation:
 ---------------------------------------------------------------------
 Center     Atomic      Atomic             Coordinates (Angstroms)
 Number     Number       Type             X           Y           Z
 ---------------------------------------------------------------------
      1          6           0        4.087689    0.326230   -0.113807
      2          7           0        2.958362   -0.063968   -0.975094
      3          6           0        1.807945   -0.480603   -0.302522
      4          7           0        1.365638   -1.710273   -0.179408
      5          7           0        0.165058   -1.643088    0.513648
      6          6           0       -0.068961   -0.382180    0.800565
      7          7           0        0.941868    0.408924    0.290488
      8          6           0        1.058546    1.854820    0.292631
      9          6           0       -1.271306    0.144185    1.513961
     10          6           0       -2.493504    0.351191    0.603178
     11          6           0       -2.345024    1.061839   -0.771542
     12          6           0       -3.375943    0.058262   -1.351791
     13          6           0       -3.083013   -0.872850   -0.146031
     14          1           0        3.810282    1.199578    0.483266
     15          1           0        4.930653    0.609904   -0.749758
     16          1           0        4.404286   -0.473923    0.570617
     17          1           0        3.236623   -0.820938   -1.594246
     18          1           0        1.506418    2.221591    1.223198
     19          1           0        1.691082    2.142437   -0.550145
     20          1           0        0.073020    2.307484    0.168867
     21          1           0       -1.536757   -0.575916    2.295775
     22          1           0       -1.018203    1.084332    2.020350
     23          1           0       -3.278836    0.843484    1.190004
     24          1           0       -2.575934    2.131517   -0.823307
     25          1           0       -1.353416    0.891459   -1.204302
     26          1           0       -3.184133   -0.335555   -2.354102
     27          1           0       -4.394204    0.460055   -1.321400
     28          1           0       -2.299679   -1.602127   -0.372841
     29          1           0       -3.926258   -1.389901    0.322729
 ---------------------------------------------------------------------

 SCF Done:  E(UB3LYP) =  -571.746790823     A.U. after   29 cycles

 The electronic state is 2-A.
 Alpha  occ. eigenvalues --  -14.27462 -14.23209 -14.21315 -14.21153 -10.15499
 Alpha  occ. eigenvalues --  -10.12981 -10.11231 -10.10133 -10.08509 -10.08352
 Alpha  occ. eigenvalues --  -10.07521 -10.07158 -10.06800  -0.95967  -0.83747
 Alpha  occ. eigenvalues --   -0.81860  -0.75786  -0.70739  -0.64186  -0.62764
 Alpha  occ. eigenvalues --   -0.58877  -0.56479  -0.54462  -0.51578  -0.47419
 Alpha  occ. eigenvalues --   -0.44899  -0.42035  -0.40353  -0.39278  -0.38818
 Alpha  occ. eigenvalues --   -0.36745  -0.36098  -0.34129  -0.33165  -0.32479
 Alpha  occ. eigenvalues --   -0.31686  -0.30525  -0.29266  -0.29029  -0.28037
 Alpha  occ. eigenvalues --   -0.24719  -0.23033  -0.21850  -0.21183  -0.20702
 Alpha  occ. eigenvalues --   -0.19017  -0.18222  -0.15703  -0.13006   0.04154
 Alpha virt. eigenvalues --    0.05977   0.07226   0.07852   0.08477   0.09045
 Alpha virt. eigenvalues --    0.09551   0.10387   0.10546   0.11123   0.11310
 Alpha virt. eigenvalues --    0.11848   0.12436   0.13065   0.13672   0.14034

  Beta  occ. eigenvalues --  -14.27457 -14.23199 -14.21310 -14.21138 -10.15501
  Beta  occ. eigenvalues --  -10.12983 -10.11169 -10.10082 -10.08490 -10.08341
  Beta  occ. eigenvalues --  -10.07514 -10.07138 -10.06798  -0.95954  -0.83728
  Beta  occ. eigenvalues --   -0.81839  -0.75764  -0.70722  -0.64150  -0.62691
  Beta  occ. eigenvalues --   -0.58793  -0.56448  -0.54438  -0.51557  -0.47383
  Beta  occ. eigenvalues --   -0.44853  -0.42000  -0.40297  -0.39248  -0.38776
  Beta  occ. eigenvalues --   -0.36722  -0.36043  -0.34072  -0.33127  -0.32455
  Beta  occ. eigenvalues --   -0.31634  -0.30480  -0.29245  -0.28984  -0.28005
  Beta  occ. eigenvalues --   -0.24702  -0.23008  -0.21824  -0.21158  -0.20676
  Beta  occ. eigenvalues --   -0.18990  -0.18187  -0.15680  -0.12977
  Beta virt. eigenvalues --    0.06525   0.06946   0.07877   0.08398   0.09074
  Beta virt. eigenvalues --    0.09320   0.10033   0.10761   0.10928   0.11480
  Beta virt. eigenvalues --    0.11886   0.12033   0.13037   0.13279   0.13648

 Mulliken charges and spin densities:
               1          2
     1  C    0.940012  -1.270211
     2  N   -0.331037   0.192887
     3  C    0.141106  -0.204561
     4  N   -0.209146   0.045091
     5  N   -0.051019   0.012871
     6  C    0.280661  -0.545865
     7  N   -0.185818   0.246116
     8  C    1.233953  -1.663090
     9  C   -0.679331   0.160783
    10  C    0.623178  -0.211173
    11  C   -0.157758  -0.212007
    12  C    0.179789  -0.556945
    13  C   -0.515064  -0.001935
    14  H   -0.356721   0.511658
    15  H   -0.599119   0.760621
    16  H   -0.085729   0.229135
    17  H    0.162788   0.101476
    18  H   -0.656591   0.875979
    19  H   -0.139109   0.314778
    20  H   -0.323726   0.502163
    21  H    0.028316   0.159921
    22  H   -0.259617   0.419703
    23  H   -0.330018   0.547636
    24  H   -0.317275   0.482706
    25  H    0.254433  -0.107050
    26  H    0.091992   0.041225
    27  H    0.029531   0.089242
    28  H    0.151688   0.025415
    29  H    0.079631   0.053430
 Sum of Mulliken charges =  -1.00000   1.00000

 Dipole moment (field-independent basis, Debye):
    X=             -4.0647    Y=             -3.8959    Z=             -2.2221  Tot=              6.0528
 Quadrupole moment (field-independent basis, Debye-Ang):
   XX=           -149.5984   YY=           -133.8353   ZZ=           -110.7286
   XY=             -3.0509   XZ=              1.6663   YZ=             -4.0663

 Summary of Natural Population Analysis:

                                       Natural Population
                Natural  -----------------------------------------------
    Atom  No    Charge         Core      Valence    Rydberg      Total
 -----------------------------------------------------------------------
      C    1   -0.17630      0.99964     2.16875    0.00790     3.17630
      N    2   -0.33517      0.99970     2.82415    0.01132     3.83517
      C    3    0.27046      0.99957     1.71159    0.01838     2.72954
      N    4   -0.18328      0.99967     2.67133    0.01228     3.68328
      N    5   -0.17097      0.99967     2.65955    0.01175     3.67097
      C    6    0.18984      0.99959     1.79211    0.01846     2.81016
      N    7   -0.21992      0.99957     2.70961    0.01074     3.71992
      C    8   -0.18098      0.99963     2.17264    0.00871     3.18098
      C    9   -0.21573      0.99957     2.20600    0.01017     3.21573
      C   10   -0.10255      0.99960     2.09069    0.01226     3.10255
      C   11   -0.19004      0.99962     2.18199    0.00843     3.19004
      C   12   -0.18953      0.99965     2.18208    0.00780     3.18953
      C   13   -0.19259      0.99962     2.18468    0.00829     3.19259
      H   14    0.09799      0.00000     0.39989    0.00212     0.40201
      H   15    0.09802      0.00000     0.40000    0.00197     0.40198
      H   16    0.08601      0.00000     0.41245    0.00155     0.41399
      H   17    0.18672      0.00000     0.31050    0.00278     0.31328
      H   18    0.10423      0.00000     0.39244    0.00333     0.39577
      H   19    0.11097      0.00000     0.38715    0.00188     0.38903
      H   20    0.10571      0.00000     0.39220    0.00209     0.39429
      H   21    0.11342      0.00000     0.38535    0.00123     0.38658
      H   22    0.11045      0.00000     0.38799    0.00156     0.38955
      H   23    0.09864      0.00000     0.39978    0.00158     0.40136
      H   24    0.09927      0.00000     0.39929    0.00144     0.40073
      H   25    0.09673      0.00000     0.40158    0.00170     0.40327
      H   26    0.09355      0.00000     0.40571    0.00075     0.40645
      H   27    0.09321      0.00000     0.40568    0.00112     0.40679
      H   28    0.10877      0.00000     0.38971    0.00153     0.39123
      H   29    0.09307      0.00000     0.40612    0.00081     0.40693
 =======================================================================
   * Total *    0.00000     12.99513    35.83100    0.17388    49.00000

 Normal termination of Gaussian 16 at Mon Dec 14 13:38:36 2020.
