 Gaussian 16, Revision A.03,

 -----------------------------------------------------------
 # opt freq B3LYP/6-31G(d) empiricaldispersion=gd3bj scf=xqc
 -----------------------------------------------------------

 ------------------------------
 CID_12243933_JID_1317_neutraal
 ------------------------------
 Symbolic Z-matrix:
 Charge =  0 Multiplicity = 1

 SCF Done:  E(RB3LYP) =  -786.542971134     A.U. after   14 cycles
 SCF Done:  E(RB3LYP) =  -786.544988957     A.U. after   11 cycles
 SCF Done:  E(RB3LYP) =  -786.545179763     A.U. after   11 cycles
 SCF Done:  E(RB3LYP) =  -786.545208952     A.U. after   10 cycles
 SCF Done:  E(RB3LYP) =  -786.545212154     A.U. after    8 cycles
 SCF Done:  E(RB3LYP) =  -786.545212360     A.U. after    7 cycles
 SCF Done:  E(RB3LYP) =  -786.545212434     A.U. after    6 cycles
 SCF Done:  E(RB3LYP) =  -786.545212629     A.U. after    7 cycles
 SCF Done:  E(RB3LYP) =  -786.545212902     A.U. after    7 cycles
 SCF Done:  E(RB3LYP) =  -786.545213322     A.U. after    9 cycles
 SCF Done:  E(RB3LYP) =  -786.545213808     A.U. after    9 cycles
 SCF Done:  E(RB3LYP) =  -786.545214326     A.U. after    8 cycles
 SCF Done:  E(RB3LYP) =  -786.545214676     A.U. after    9 cycles
 SCF Done:  E(RB3LYP) =  -786.545214813     A.U. after    7 cycles
 SCF Done:  E(RB3LYP) =  -786.545214822     A.U. after    7 cycles
 Optimization completed.
    -- Stationary point found.
 Normal termination of Gaussian 16 at Tue Dec  8 19:41:54 2020.

 --------------------------------------------------------------------
 #N Geom=AllCheck Guess=TCheck SCRF=Check GenChk RB3LYP/6-31G(d) Freq
 --------------------------------------------------------------------

 Structure from the checkpoint file:  "JID_1317.chk"
 ------------------------------
 CID_12243933_JID_1317_neutraal
 ------------------------------
 Charge =  0 Multiplicity = 1

 SCF Done:  E(RB3LYP) =  -786.545214822     A.U. after    1 cycles

  Exact polarizability: 162.124  -0.993 120.666   6.988   5.372  70.716
 Approx polarizability: 232.601  -5.421 207.867  16.349  12.886 107.109

                      1                      2                      3
                      A                      A                      A
 Frequencies --     30.8717                76.6581               117.0711
 Red. masses --      1.0236                 3.0778                 4.1379
 Frc consts  --      0.0006                 0.0107                 0.0334
 IR Inten    --      0.1992                 0.5195                 0.2243

                      4                      5                      6
                      A                      A                      A
 Frequencies --    194.9139               253.0107               266.5557
 Red. masses --      3.2250                 1.9335                 1.3315
 Frc consts  --      0.0722                 0.0729                 0.0557
 IR Inten    --      1.8104                 1.0662                 0.4817

                      7                      8                      9
                      A                      A                      A
 Frequencies --    305.7494               331.8576               351.4060
 Red. masses --      4.2210                 3.2474                 2.2326
 Frc consts  --      0.2325                 0.2107                 0.1624
 IR Inten    --      0.0648                 0.8626                 0.0982

                     10                     11                     12
                      A                      A                      A
 Frequencies --    376.5689               431.8301               461.7719
 Red. masses --      4.8273                 2.9706                 4.0623
 Frc consts  --      0.4033                 0.3264                 0.5104
 IR Inten    --      1.8370                 3.1351                 0.1282

                     13                     14                     15
                      A                      A                      A
 Frequencies --    523.9572               546.7864               600.8482
 Red. masses --      4.6326                 3.4895                 5.3662
 Frc consts  --      0.7493                 0.6147                 1.1414
 IR Inten    --      0.4624                 1.7688                 2.9630

                     16                     17                     18
                      A                      A                      A
 Frequencies --    642.5689               700.8392               722.5051
 Red. masses --      5.6346                 3.6494                 4.3363
 Frc consts  --      1.3707                 1.0561                 1.3337
 IR Inten    --      4.8925                 1.2191                 1.4936

                     19                     20                     21
                      A                      A                      A
 Frequencies --    770.7126               822.1121               870.7580
 Red. masses --      4.4704                 1.3153                 2.1696
 Frc consts  --      1.5645                 0.5238                 0.9692
 IR Inten    --      0.9893                21.6470                 1.0828

                     22                     23                     24
                      A                      A                      A
 Frequencies --    904.3459               935.0668               944.1595
 Red. masses --      1.5006                 2.7158                 1.5423
 Frc consts  --      0.7231                 1.3990                 0.8101
 IR Inten    --      1.3628                 0.4188                 1.0192

                     25                     26                     27
                      A                      A                      A
 Frequencies --    948.9250              1024.7338              1030.2218
 Red. masses --      1.4400                 1.5266                 1.5111
 Frc consts  --      0.7640                 0.9445                 0.9449
 IR Inten    --      1.2197                 7.0322                 1.4813

                     28                     29                     30
                      A                      A                      A
 Frequencies --   1072.1735              1077.0157              1095.8875
 Red. masses --      2.5495                 1.9064                 1.6862
 Frc consts  --      1.7268                 1.3029                 1.1931
 IR Inten    --      6.3331                21.9590                 6.6449

                     31                     32                     33
                      A                      A                      A
 Frequencies --   1109.2811              1174.9059              1189.2653
 Red. masses --      1.5791                 1.4420                 1.7646
 Frc consts  --      1.1448                 1.1728                 1.4705
 IR Inten    --      1.7763                 3.9634                10.5747

                     34                     35                     36
                      A                      A                      A
 Frequencies --   1219.8751              1251.2114              1279.1173
 Red. masses --      1.4090                 1.5877                 2.2570
 Frc consts  --      1.2354                 1.4644                 2.1757
 IR Inten    --      0.2120                 6.5835                 5.1243

                     37                     38                     39
                      A                      A                      A
 Frequencies --   1304.3962              1333.5088              1353.6942
 Red. masses --      1.4005                 2.3348                 2.6341
 Frc consts  --      1.4039                 2.4462                 2.8440
 IR Inten    --      4.2372                 4.6718                 0.7712

                     40                     41                     42
                      A                      A                      A
 Frequencies --   1367.0652              1438.2385              1443.2236
 Red. masses --      1.3942                 1.2439                 1.2452
 Frc consts  --      1.5351                 1.5160                 1.5281
 IR Inten    --      9.3541                 5.8087                 0.8744

                     43                     44                     45
                      A                      A                      A
 Frequencies --   1467.1502              1502.1766              1517.6811
 Red. masses --      3.2287                 1.1350                 1.0502
 Frc consts  --      4.0947                 1.5091                 1.4252
 IR Inten    --      1.6566                 1.2815                 5.7666

                     46                     47                     48
                      A                      A                      A
 Frequencies --   1519.7979              1523.3686              1524.0885
 Red. masses --      1.7420                 1.1055                 1.1597
 Frc consts  --      2.3706                 1.5115                 1.5871
 IR Inten    --     43.0789                 6.2424                 2.0644

                     49                     50                     51
                      A                      A                      A
 Frequencies --   1525.4805              1629.5775              1664.8773
 Red. masses --      1.1473                 5.9914                 6.0557
 Frc consts  --      1.5730                 9.3741                 9.8896
 IR Inten    --      9.1680                 2.1091                 1.9407

                     52                     53                     54
                      A                      A                      A
 Frequencies --   3032.7443              3039.1866              3044.9029
 Red. masses --      1.0644                 1.0407                 1.0401
 Frc consts  --      5.7680                 5.6636                 5.6818
 IR Inten    --     26.0324                42.0714                27.1575

                     55                     56                     57
                      A                      A                      A
 Frequencies --   3084.9348              3094.6994              3103.9671
 Red. masses --      1.0978                 1.0960                 1.0893
 Frc consts  --      6.1556                 6.1845                 6.1837
 IR Inten    --     20.2442                23.5299                 5.4857

                     58                     59                     60
                      A                      A                      A
 Frequencies --   3117.2383              3123.9787              3140.8715
 Red. masses --      1.0950                 1.1020                 1.1027
 Frc consts  --      6.2694                 6.3367                 6.4094
 IR Inten    --     33.6603                17.1311                23.9880

                     61                     62                     63
                      A                      A                      A
 Frequencies --   3170.3999              3181.0979              3205.5253
 Red. masses --      1.0900                 1.0880                 1.0937
 Frc consts  --      6.4549                 6.4870                 6.6212
 IR Inten    --     19.4538                15.7885                14.8923

 - Thermochemistry -
 -------------------
 Temperature   298.150 Kelvin.  Pressure   1.00000 Atm.
 Atom     1 has atomic number  6 and mass  12.00000

 Molecular mass:   164.06597 amu.
 Principal axes and moments of inertia in atomic units:
                           1         2         3
     Eigenvalues --   874.421612766.627743299.77089
           X            0.99985   0.01655  -0.00544
           Y           -0.01650   0.99983   0.00810
           Z            0.00557  -0.00801   0.99995
 This molecule is an asymmetric top.
 Rotational symmetry number  1.
 Warning -- assumption of classical behavior for rotation
           may cause significant error
 Rotational temperatures (Kelvin)      0.09905     0.03131     0.02625
 Rotational constants (GHZ):           2.06393     0.65233     0.54693
 Zero-point vibrational energy     509067.3 (Joules/Mol)
                                  121.67001 (Kcal/Mol)
 Warning -- explicit consideration of  15 degrees of freedom as
           vibrations may cause significant error
 Vibrational temperatures:     44.42   110.29   168.44   280.44   364.03
          (Kelvin)            383.51   439.91   477.47   505.59   541.80
                              621.31   664.39   753.86   786.70   864.49
                              924.51  1008.35  1039.52  1108.88  1182.84
                             1252.83  1301.15  1345.35  1358.43  1365.29
                             1474.36  1482.26  1542.62  1549.59  1576.74
                             1596.01  1690.43  1711.09  1755.13  1800.21
                             1840.36  1876.74  1918.62  1947.66  1966.90
                             2069.30  2076.48  2110.90  2161.30  2183.60
                             2186.65  2191.79  2192.82  2194.83  2344.60
                             2395.39  4363.44  4372.71  4380.94  4438.53
                             4452.58  4465.92  4485.01  4494.71  4519.01
                             4561.50  4576.89  4612.04

 Zero-point correction=                           0.193894 (Hartree/Particle)
 Thermal correction to Energy=                    0.204280
 Thermal correction to Enthalpy=                  0.205225
 Thermal correction to Gibbs Free Energy=         0.157241
 Sum of electronic and zero-point Energies=           -786.351321
 Sum of electronic and thermal Energies=              -786.340934
 Sum of electronic and thermal Enthalpies=            -786.339990
 Sum of electronic and thermal Free Energies=         -786.387974

                     E (Thermal)             CV                S
                      KCal/Mol        Cal/Mol-Kelvin    Cal/Mol-Kelvin
 Total                  128.188             40.017            100.990
 Electronic               0.000              0.000              0.000
 Translational            0.889              2.981             41.194
 Rotational               0.889              2.981             30.458
 Vibrational            126.410             34.055             29.338
 Vibration     1          0.594              1.984              5.773
 Vibration     2          0.599              1.965              3.975
 Vibration     3          0.608              1.935              3.148
 Vibration     4          0.636              1.847              2.181
 Vibration     5          0.664              1.758              1.710
 Vibration     6          0.672              1.734              1.618
 Vibration     7          0.696              1.663              1.385
 Vibration     8          0.714              1.612              1.251
 Vibration     9          0.728              1.572              1.160
 Vibration    10          0.747              1.520              1.053
 Vibration    11          0.793              1.401              0.853
 Vibration    12          0.819              1.335              0.761
 Vibration    13          0.879              1.197              0.601
 Vibration    14          0.902              1.147              0.551
 Vibration    15          0.959              1.030              0.448

 Optimization completed.
    -- Stationary point found.
 Normal termination of Gaussian 16 at Tue Dec  8 19:46:20 2020.

 ----------------------------------------------------------------------
 # B3LYP/6-311++G(d,p) empiricaldispersion=gd3bj scf=xqc pop=npa geom=c
 heck
 ----------------------------------------------------------------------

 --------------------------------------
 CID_12243933_JID_1317_Energie_neutraal
 --------------------------------------
 Structure from the checkpoint file:  "JID_1317.chk"
 Charge =  0 Multiplicity = 1

 SCF Done:  E(RB3LYP) =  -786.670283232     A.U. after   15 cycles
 Normal termination of Gaussian 16 at Tue Dec  8 19:48:53 2020.

 ----------------------------------------------------------------------
 # B3LYP/6-311++G(d,p) empiricaldispersion=gd3bj scf=xqc pop=npa geom=c
 heck
 ----------------------------------------------------------------------

 ------------------------------------
 CID_12243933_JID_1317_Energie_kation
 ------------------------------------
 Structure from the checkpoint file:  "JID_1317.chk"
 Charge =  1 Multiplicity = 2

 SCF Done:  E(UB3LYP) =  -786.397176851     A.U. after   21 cycles
 Normal termination of Gaussian 16 at Tue Dec  8 19:53:00 2020.
 Gaussian 16:  ES64L-G16RevA.03 25-Dec-2016

 ----------------------------------------------------------------------
 # B3LYP/6-311++G(d,p) empiricaldispersion=gd3bj scf=xqc pop=npa geom=c
 heck
 ----------------------------------------------------------------------

 -----------------------------------
 CID_12243933_JID_1317_Energie_anion
 -----------------------------------
 Structure from the checkpoint file:  "JID_1317.chk"
 Charge = -1 Multiplicity = 2

                         Standard orientation:
 ---------------------------------------------------------------------
 Center     Atomic      Atomic             Coordinates (Angstroms)
 Number     Number       Type             X           Y           Z
 ---------------------------------------------------------------------
      1          6           0       -2.689275   -0.982642    1.260268
      2          6           0       -2.370391   -0.591934   -0.181505
      3          6           0       -1.154348   -1.352834   -0.748920
      4          6           0        0.079904   -0.575837   -0.357405
      5          6           0       -0.173863    0.785731   -0.130638
      6         16           0       -1.895178    1.207677   -0.291998
      7          6           0        0.864574    1.659456    0.178828
      8          6           0        2.165408    1.157422    0.264125
      9          6           0        2.443385   -0.198532    0.057504
     10          6           0        1.379327   -1.057864   -0.257282
     11          6           0        3.847527   -0.734942    0.197222
     12          1           0       -2.979493   -2.040209    1.308630
     13          1           0       -3.509255   -0.381130    1.662666
     14          1           0       -1.812282   -0.837073    1.899581
     15          1           0       -3.249399   -0.725278   -0.817229
     16          1           0       -1.224990   -1.398510   -1.844709
     17          1           0       -1.137263   -2.384778   -0.379083
     18          1           0        0.669729    2.712553    0.357664
     19          1           0        2.979861    1.835299    0.507701
     20          1           0        1.576594   -2.114194   -0.429890
     21          1           0        4.005026   -1.193470    1.182630
     22          1           0        4.059249   -1.504246   -0.553749
     23          1           0        4.591581    0.060052    0.084569
 ---------------------------------------------------------------------

 SCF Done:  E(UB3LYP) =  -786.653394445     A.U. after   33 cycles
 SCF Done:  E(UB3LYP) =  -786.653394445     a.u. after    1 cycles

 The electronic state is 2-A.
 Alpha  occ. eigenvalues --  -88.74537 -10.10985 -10.09991 -10.08102 -10.08072
 Alpha  occ. eigenvalues --  -10.07815 -10.07737 -10.07231 -10.07044 -10.06576
 Alpha  occ. eigenvalues --  -10.06309  -7.83177  -5.79535  -5.79204  -5.78585
 Alpha  occ. eigenvalues --   -0.77988  -0.72907  -0.67328  -0.65612  -0.62068
 Alpha  occ. eigenvalues --   -0.59090  -0.56321  -0.50779  -0.47409  -0.46340
 Alpha  occ. eigenvalues --   -0.39358  -0.37612  -0.36464  -0.35320  -0.33039
 Alpha  occ. eigenvalues --   -0.32007  -0.31565  -0.30435  -0.29021  -0.28419
 Alpha  occ. eigenvalues --   -0.27190  -0.25309  -0.25208  -0.24172  -0.23702
 Alpha  occ. eigenvalues --   -0.21697  -0.17893  -0.15123  -0.10612   0.04671
 Alpha virt. eigenvalues --    0.06293   0.07504   0.07748   0.08214   0.08671
 Alpha virt. eigenvalues --    0.09167   0.09592   0.10349   0.10518   0.11104
 Alpha virt. eigenvalues --    0.11922   0.12259   0.12834   0.13443   0.14552

  Beta  occ. eigenvalues --  -88.74535 -10.10969 -10.09989 -10.08095 -10.08076
  Beta  occ. eigenvalues --  -10.07788 -10.07728 -10.07210 -10.07020 -10.06537
  Beta  occ. eigenvalues --  -10.06275  -7.83175  -5.79532  -5.79202  -5.78584
  Beta  occ. eigenvalues --   -0.77964  -0.72877  -0.67298  -0.65575  -0.62032
  Beta  occ. eigenvalues --   -0.59032  -0.56263  -0.50726  -0.47366  -0.46294
  Beta  occ. eigenvalues --   -0.39307  -0.37575  -0.36407  -0.35278  -0.33005
  Beta  occ. eigenvalues --   -0.31968  -0.31525  -0.30391  -0.28983  -0.28373
  Beta  occ. eigenvalues --   -0.27145  -0.25269  -0.25168  -0.24138  -0.23666
  Beta  occ. eigenvalues --   -0.21675  -0.17867  -0.15053  -0.10589
  Beta virt. eigenvalues --    0.06903   0.07427   0.07778   0.08137   0.08738
  Beta virt. eigenvalues --    0.08965   0.09704   0.10144   0.10789   0.11024
  Beta virt. eigenvalues --    0.11543   0.12383   0.12678   0.13034   0.13709

 Mulliken charges and spin densities:
               1          2
     1  C    1.203450  -1.995090
     2  C   -0.717421   1.241393
     3  C   -0.158747  -0.754749
     4  C    0.000690  -0.162698
     5  C    0.663444  -0.432258
     6  S   -0.099711  -0.276736
     7  C    0.058038   0.175491
     8  C   -0.630260  -0.317514
     9  C   -0.139049   0.888716
    10  C   -0.667162   0.582332
    11  C    2.746001  -3.159999
    12  H   -0.367248   0.497987
    13  H   -0.096065   0.231902
    14  H   -0.026058   0.173767
    15  H   -0.680895   0.971392
    16  H   -0.144417   0.315527
    17  H   -0.374879   0.552901
    18  H   -0.024139   0.177079
    19  H   -0.291277   0.417637
    20  H   -0.459007   0.629074
    21  H   -0.029665   0.195210
    22  H   -0.347550   0.490946
    23  H   -0.418071   0.557688
 Sum of Mulliken charges =  -1.00000   1.00000

 Dipole moment (field-independent basis, Debye):
    X=             -0.2480    Y=              4.4111    Z=              0.9164  Tot=              4.5121
 Quadrupole moment (field-independent basis, Debye-Ang):
   XX=           -152.1845   YY=           -113.9033   ZZ=           -106.0035
   XY=             -5.5562   XZ=              0.0158   YZ=             -0.6954

 Summary of Natural Population Analysis:

                                       Natural Population
                Natural  -----------------------------------------------
    Atom  No    Charge         Core      Valence    Rydberg      Total
 -----------------------------------------------------------------------
      C    1   -0.29129      0.99963     2.28372    0.00795     3.29129
      C    2   -0.15190      0.99960     2.13786    0.01445     3.15190
      C    3   -0.20058      0.99957     2.18989    0.01112     3.20058
      C    4   -0.02159      0.99945     2.01041    0.01174     3.02159
      C    5   -0.08431      0.99935     2.07338    0.01157     3.08431
      S    6    0.11111      4.99955     2.87239    0.01695     7.88889
      C    7   -0.10863      0.99949     2.09913    0.01001     3.10863
      C    8   -0.09759      0.99952     2.08813    0.00994     3.09759
      C    9   -0.01962      0.99952     2.00976    0.01033     3.01962
      C   10   -0.09098      0.99946     2.08183    0.00969     3.09098
      C   11   -0.28995      0.99964     2.28502    0.00529     3.28995
      H   12    0.10326      0.00000     0.39471    0.00203     0.39674
      H   13    0.10143      0.00000     0.39731    0.00126     0.39857
      H   14    0.10220      0.00000     0.39650    0.00130     0.39780
      H   15    0.10670      0.00000     0.39080    0.00250     0.39330
      H   16    0.11119      0.00000     0.38673    0.00208     0.38881
      H   17    0.11009      0.00000     0.38815    0.00177     0.38991
      H   18    0.10034      0.00000     0.39846    0.00120     0.39966
      H   19    0.09881      0.00000     0.40024    0.00095     0.40119
      H   20    0.10164      0.00000     0.39669    0.00167     0.39836
      H   21    0.10366      0.00000     0.39490    0.00144     0.39634
      H   22    0.10434      0.00000     0.39394    0.00172     0.39566
      H   23    0.10169      0.00000     0.39680    0.00151     0.39831
 =======================================================================
   * Total *    0.00000     14.99478    28.86675    0.13848    44.00000

 Normal termination of Gaussian 16 at Tue Dec  8 19:57:58 2020.
