 Gaussian 16, Revision A.03,

 -----------------------------------------------------------
 # opt freq B3LYP/6-31G(d) empiricaldispersion=gd3bj scf=xqc
 -----------------------------------------------------------

 ------------------------------
 CID_60875144_JID_9926_neutraal
 ------------------------------
 Symbolic Z-matrix:
 Charge =  0 Multiplicity = 1

 SCF Done:  E(RB3LYP) =  -1159.17217353     A.U. after   15 cycles
 SCF Done:  E(RB3LYP) =  -1159.18132573     A.U. after   13 cycles
 SCF Done:  E(RB3LYP) =  -1159.18163122     A.U. after   13 cycles
 SCF Done:  E(RB3LYP) =  -1159.18317813     A.U. after   13 cycles
 SCF Done:  E(RB3LYP) =  -1159.18378345     A.U. after   12 cycles
 SCF Done:  E(RB3LYP) =  -1159.18406528     A.U. after   12 cycles
 SCF Done:  E(RB3LYP) =  -1159.18413167     A.U. after   11 cycles
 SCF Done:  E(RB3LYP) =  -1159.18415403     A.U. after   11 cycles
 SCF Done:  E(RB3LYP) =  -1159.18416561     A.U. after   10 cycles
 SCF Done:  E(RB3LYP) =  -1159.18416699     A.U. after    8 cycles
 SCF Done:  E(RB3LYP) =  -1159.18416740     A.U. after    8 cycles
 SCF Done:  E(RB3LYP) =  -1159.18416749     A.U. after    7 cycles
 SCF Done:  E(RB3LYP) =  -1159.18416751     A.U. after    7 cycles
 Optimization completed.
    -- Stationary point found.
 Normal termination of Gaussian 16 at Sat Dec 12 10:10:43 2020.

 --------------------------------------------------------------------
 #N Geom=AllCheck Guess=TCheck SCRF=Check GenChk RB3LYP/6-31G(d) Freq
 --------------------------------------------------------------------

 Structure from the checkpoint file:  "JID_9926.chk"
 ------------------------------
 CID_60875144_JID_9926_neutraal
 ------------------------------
 Charge =  0 Multiplicity = 1

 SCF Done:  E(RB3LYP) =  -1159.18416751     A.U. after    1 cycles

  Exact polarizability: 195.882  21.199 206.205  38.694  -8.318 128.837
 Approx polarizability: 308.114  41.773 365.693  92.280 -19.357 231.129

                      1                      2                      3
                      A                      A                      A
 Frequencies --     20.2773                45.9312                51.8029
 Red. masses --      5.8844                 7.0495                 4.6802
 Frc consts  --      0.0014                 0.0088                 0.0074
 IR Inten    --      0.4578                 0.2602                 0.3113

                      4                      5                      6
                      A                      A                      A
 Frequencies --     66.7235               100.5244               164.4508
 Red. masses --      3.8297                 4.7977                 4.1732
 Frc consts  --      0.0100                 0.0286                 0.0665
 IR Inten    --      3.5797                 0.5976                 2.0311

                      7                      8                      9
                      A                      A                      A
 Frequencies --    194.0416               209.5848               234.0662
 Red. masses --      4.9982                 8.0956                 3.3879
 Frc consts  --      0.1109                 0.2095                 0.1094
 IR Inten    --      0.8721                 1.9166                 4.9638

                     10                     11                     12
                      A                      A                      A
 Frequencies --    240.4305               266.3106               293.7151
 Red. masses --      1.1740                 3.7859                 2.6391
 Frc consts  --      0.0400                 0.1582                 0.1341
 IR Inten    --      0.4092                 2.1150                 1.1697

                     13                     14                     15
                      A                      A                      A
 Frequencies --    295.6672               299.3702               346.3416
 Red. masses --      1.2107                 2.1555                 4.2599
 Frc consts  --      0.0624                 0.1138                 0.3011
 IR Inten    --     16.3527                 2.2289                 1.0965

                     16                     17                     18
                      A                      A                      A
 Frequencies --    374.9060               418.3602               430.4273
 Red. masses --      5.0209                 9.8242                 2.6175
 Frc consts  --      0.4158                 1.0131                 0.2857
 IR Inten    --      0.1059                 1.2008                 0.6885

                     19                     20                     21
                      A                      A                      A
 Frequencies --    457.8653               477.8219               505.8759
 Red. masses --      3.1731                 4.1784                 5.6981
 Frc consts  --      0.3919                 0.5621                 0.8591
 IR Inten    --      3.8802                 7.2698                 9.9310

                     22                     23                     24
                      A                      A                      A
 Frequencies --    541.0748               564.5032               571.2679
 Red. masses --      6.4745                 8.3066                 3.4455
 Frc consts  --      1.1168                 1.5596                 0.6625
 IR Inten    --      6.8650                 5.5514                52.3921

                     25                     26                     27
                      A                      A                      A
 Frequencies --    590.5467               626.9064               645.1779
 Red. masses --      3.4653                 2.8882                 2.4773
 Frc consts  --      0.7120                 0.6688                 0.6076
 IR Inten    --      2.3836                84.4393               108.9844

                     28                     29                     30
                      A                      A                      A
 Frequencies --    661.0001               681.3554               711.5061
 Red. masses --      4.2949                 3.0132                 2.6886
 Frc consts  --      1.1056                 0.8242                 0.8019
 IR Inten    --     32.0641                71.1892                15.1359

                     31                     32                     33
                      A                      A                      A
 Frequencies --    723.6691               729.7654               773.1848
 Red. masses --      4.9709                 1.7040                 2.4519
 Frc consts  --      1.5338                 0.5347                 0.8636
 IR Inten    --      7.7319                39.6082                 8.9270

                     34                     35                     36
                      A                      A                      A
 Frequencies --    793.9561               803.5465               830.6475
 Red. masses --      6.2593                 1.9905                 5.4432
 Frc consts  --      2.3247                 0.7572                 2.2128
 IR Inten    --     13.9367                29.9423                 0.7617

                     37                     38                     39
                      A                      A                      A
 Frequencies --    864.2948               876.9249               891.1547
 Red. masses --      1.9400                 1.7011                 3.0644
 Frc consts  --      0.8539                 0.7707                 1.4338
 IR Inten    --     18.1154                 8.5956                19.7019

                     40                     41                     42
                      A                      A                      A
 Frequencies --    898.9001               913.6454               958.1152
 Red. masses --      3.7141                 1.3125                 1.4548
 Frc consts  --      1.7682                 0.6455                 0.7868
 IR Inten    --     32.7191                 4.3273                 1.1686

                     43                     44                     45
                      A                      A                      A
 Frequencies --    964.2225               964.7496               998.6087
 Red. masses --      2.3981                 1.2886                 2.5329
 Frc consts  --      1.3136                 0.7066                 1.4882
 IR Inten    --      8.1130                 2.1631                50.0595

                     46                     47                     48
                      A                      A                      A
 Frequencies --   1017.1637              1021.7454              1106.0118
 Red. masses --      3.5130                 2.7273                 1.7846
 Frc consts  --      2.1414                 1.6775                 1.2862
 IR Inten    --     21.4085                14.7178                11.9632

                     49                     50                     51
                      A                      A                      A
 Frequencies --   1114.7937              1134.0143              1152.1232
 Red. masses --      1.5987                 1.9173                 1.3869
 Frc consts  --      1.1706                 1.4527                 1.0847
 IR Inten    --     11.5420                36.6727                 0.5672

                     52                     53                     54
                      A                      A                      A
 Frequencies --   1158.3398              1186.2547              1205.0058
 Red. masses --      1.3873                 2.6989                 1.3223
 Frc consts  --      1.0967                 2.2377                 1.1313
 IR Inten    --      6.2724                 6.1831                 2.4526

                     55                     56                     57
                      A                      A                      A
 Frequencies --   1206.2483              1214.9129              1259.4495
 Red. masses --      1.6669                 1.7460                 2.5929
 Frc consts  --      1.4290                 1.5184                 2.4232
 IR Inten    --      6.1827                 6.4597                 1.6948

                     58                     59                     60
                      A                      A                      A
 Frequencies --   1284.0200              1296.1561              1318.9442
 Red. masses --      1.6285                 4.6276                 2.5947
 Frc consts  --      1.5819                 4.5805                 2.6595
 IR Inten    --      1.5439                21.4281                10.3033

                     61                     62                     63
                      A                      A                      A
 Frequencies --   1337.8885              1347.6720              1363.7108
 Red. masses --      2.4652                 2.5919                 1.3949
 Frc consts  --      2.5999                 2.7735                 1.5284
 IR Inten    --     22.0320               106.7112                 3.8605

                     64                     65                     66
                      A                      A                      A
 Frequencies --   1383.0373              1400.4099              1427.9344
 Red. masses --      3.9984                 3.2580                 1.7212
 Frc consts  --      4.5061                 3.7645                 2.0677
 IR Inten    --      7.5981                70.2012                35.4647

                     67                     68                     69
                      A                      A                      A
 Frequencies --   1464.7247              1497.2897              1511.6338
 Red. masses --      1.5708                 1.6037                 1.0972
 Frc consts  --      1.9856                 2.1183                 1.4771
 IR Inten    --     69.7948                26.4602                20.3547

                     70                     71                     72
                      A                      A                      A
 Frequencies --   1518.1661              1527.6029              1540.4331
 Red. masses --      2.5895                 1.0814                 1.7739
 Frc consts  --      3.5165                 1.4869                 2.4801
 IR Inten    --     20.5598                 7.9390                16.0566

                     73                     74                     75
                      A                      A                      A
 Frequencies --   1545.3698              1550.9775              1582.4855
 Red. masses --      2.0744                 2.4312                 8.1883
 Frc consts  --      2.9188                 3.4457                12.0816
 IR Inten    --     54.4618                21.7533                73.3921

                     76                     77                     78
                      A                      A                      A
 Frequencies --   1600.7271              1653.0568              1671.9937
 Red. masses --      7.2045                 5.4800                 3.7308
 Frc consts  --     10.8764                 8.8228                 6.1450
 IR Inten    --    151.6603                17.1580                35.1786

                     79                     80                     81
                      A                      A                      A
 Frequencies --   1696.0807              2985.5948              3028.1387
 Red. masses --      1.2918                 1.0711                 1.0442
 Frc consts  --      2.1894                 5.6254                 5.6414
 IR Inten    --    127.8964                50.3329                68.6178

                     82                     83                     84
                      A                      A                      A
 Frequencies --   3086.8813              3099.6749              3154.4997
 Red. masses --      1.0916                 1.0938                 1.1010
 Frc consts  --      6.1287                 6.1921                 6.4548
 IR Inten    --     23.9362                36.4048                19.8141

                     85                     86                     87
                      A                      A                      A
 Frequencies --   3165.4381              3176.8828              3192.6576
 Red. masses --      1.0897                 1.0874                 1.0899
 Frc consts  --      6.4331                 6.4662                 6.5455
 IR Inten    --     15.8662                11.0595                34.7819

                     88                     89                     90
                      A                      A                      A
 Frequencies --   3192.8619              3208.4719              3262.6464
 Red. masses --      1.0902                 1.0962                 1.0884
 Frc consts  --      6.5482                 6.6490                 6.8260
 IR Inten    --     12.5579                12.8108                 1.5070

                     91                     92                     93
                      A                      A                      A
 Frequencies --   3281.4574              3547.9122              3646.0274
 Red. masses --      1.0995                 1.0480                 1.0979
 Frc consts  --      6.9757                 7.7724                 8.5990
 IR Inten    --      0.7597                13.2275                 8.0565

 - Thermochemistry -
 -------------------
 Temperature   298.150 Kelvin.  Pressure   1.00000 Atm.
 Atom     1 has atomic number  6 and mass  12.00000

 Molecular mass:   270.09392 amu.
 Principal axes and moments of inertia in atomic units:
                           1         2         3
     Eigenvalues --  3628.871745514.104417637.66740
           X            0.99894   0.04575   0.00563
           Y           -0.04567   0.99886  -0.01364
           Z           -0.00625   0.01336   0.99989
 This molecule is an asymmetric top.
 Rotational symmetry number  1.
 Warning -- assumption of classical behavior for rotation
           may cause significant error
 Rotational temperatures (Kelvin)      0.02387     0.01571     0.01134
 Rotational constants (GHZ):           0.49733     0.32730     0.23629
 Zero-point vibrational energy     690237.8 (Joules/Mol)
                                  164.97078 (Kcal/Mol)
 Warning -- explicit consideration of  25 degrees of freedom as
           vibrations may cause significant error
 Vibrational temperatures:     29.17    66.08    74.53    96.00   144.63
          (Kelvin)            236.61   279.18   301.55   336.77   345.93
                              383.16   422.59   425.40   430.73   498.31
                              539.41   601.93   619.29   658.77   687.48
                              727.84   778.49   812.19   821.93   849.66
                              901.98   928.27   951.03   980.32  1023.70
                             1041.20  1049.97  1112.44  1142.33  1156.12
                             1195.12  1243.53  1261.70  1282.17  1293.32
                             1314.53  1378.51  1387.30  1388.06  1436.78
                             1463.47  1470.06  1591.30  1603.94  1631.59
                             1657.65  1666.59  1706.76  1733.73  1735.52
                             1747.99  1812.07  1847.42  1864.88  1897.67
                             1924.92  1939.00  1962.08  1989.88  2014.88
                             2054.48  2107.41  2154.27  2174.90  2184.30
                             2197.88  2216.34  2223.44  2231.51  2276.84
                             2303.09  2378.38  2405.63  2440.28  4295.61
                             4356.82  4441.33  4459.74  4538.62  4554.36
                             4570.83  4593.52  4593.82  4616.28  4694.22
                             4721.29  5104.65  5245.82

 Zero-point correction=                           0.262898 (Hartree/Particle)
 Thermal correction to Energy=                    0.279025
 Thermal correction to Enthalpy=                  0.279970
 Thermal correction to Gibbs Free Energy=         0.218273
 Sum of electronic and zero-point Energies=          -1158.921270
 Sum of electronic and thermal Energies=             -1158.905142
 Sum of electronic and thermal Enthalpies=           -1158.904198
 Sum of electronic and thermal Free Energies=        -1158.965895

                     E (Thermal)             CV                S
                      KCal/Mol        Cal/Mol-Kelvin    Cal/Mol-Kelvin
 Total                  175.091             63.719            129.852
 Electronic               0.000              0.000              0.000
 Translational            0.889              2.981             42.680
 Rotational               0.889              2.981             33.391
 Vibrational            173.314             57.757             53.782
 Vibration     1          0.593              1.986              6.607
 Vibration     2          0.595              1.979              4.985
 Vibration     3          0.596              1.977              4.747
 Vibration     4          0.598              1.970              4.248
 Vibration     5          0.604              1.949              3.444
 Vibration     6          0.623              1.886              2.498
 Vibration     7          0.635              1.848              2.189
 Vibration     8          0.642              1.826              2.047
 Vibration     9          0.654              1.789              1.848
 Vibration    10          0.658              1.779              1.800
 Vibration    11          0.672              1.735              1.620
 Vibration    12          0.689              1.685              1.452
 Vibration    13          0.690              1.682              1.441
 Vibration    14          0.692              1.675              1.420
 Vibration    15          0.724              1.583              1.183
 Vibration    16          0.746              1.524              1.060
 Vibration    17          0.781              1.430              0.898
 Vibration    18          0.792              1.404              0.857
 Vibration    19          0.816              1.343              0.772
 Vibration    20          0.834              1.299              0.716
 Vibration    21          0.861              1.237              0.644
 Vibration    22          0.896              1.159              0.563
 Vibration    23          0.920              1.108              0.515
 Vibration    24          0.927              1.093              0.502
 Vibration    25          0.948              1.052              0.466

 Optimization completed.
    -- Stationary point found.
 Normal termination of Gaussian 16 at Sat Dec 12 10:29:22 2020.

 ----------------------------------------------------------------------
 # B3LYP/6-311++G(d,p) empiricaldispersion=gd3bj scf=xqc pop=npa geom=c
 heck
 ----------------------------------------------------------------------

 --------------------------------------
 CID_60875144_JID_9926_Energie_neutraal
 --------------------------------------
 Structure from the checkpoint file:  "JID_9926.chk"
 Charge =  0 Multiplicity = 1

 SCF Done:  E(RB3LYP) =  -1159.41212561     A.U. after   16 cycles
 Normal termination of Gaussian 16 at Sat Dec 12 10:36:55 2020.

 ----------------------------------------------------------------------
 # B3LYP/6-311++G(d,p) empiricaldispersion=gd3bj scf=xqc pop=npa geom=c
 heck
 ----------------------------------------------------------------------

 ------------------------------------
 CID_60875144_JID_9926_Energie_kation
 ------------------------------------
 Structure from the checkpoint file:  "JID_9926.chk"
 Charge =  1 Multiplicity = 2

 SCF Done:  E(UB3LYP) =  -1159.13460396     A.U. after   27 cycles
 Normal termination of Gaussian 16 at Sat Dec 12 10:54:51 2020.
 Gaussian 16:  ES64L-G16RevA.03 25-Dec-2016

 ----------------------------------------------------------------------
 # B3LYP/6-311++G(d,p) empiricaldispersion=gd3bj scf=xqc pop=npa geom=c
 heck
 ----------------------------------------------------------------------

 -----------------------------------
 CID_60875144_JID_9926_Energie_anion
 -----------------------------------
 Structure from the checkpoint file:  "JID_9926.chk"
 Charge = -1 Multiplicity = 2

                         Standard orientation:
 ---------------------------------------------------------------------
 Center     Atomic      Atomic             Coordinates (Angstroms)
 Number     Number       Type             X           Y           Z
 ---------------------------------------------------------------------
      1          6           0        1.369736    3.348890   -0.933461
      2          7           0        0.641332    2.109326   -0.646022
      3          6           0       -0.476233    2.396835    0.296486
      4          6           0       -1.395439    1.235012    0.569849
      5          6           0       -2.485000    0.999150   -0.270113
      6          6           0       -3.318721   -0.112274   -0.080032
      7          6           0       -3.042308   -0.986601    0.983806
      8          6           0       -1.968122   -0.739966    1.833153
      9          6           0       -1.145963    0.369197    1.638868
     10          7           0       -4.361815   -0.381404   -0.972268
     11          6           0        1.479021    1.045702   -0.239351
     12          6           0        1.129490   -0.295465   -0.508225
     13          6           0        0.047548   -0.889548   -1.241520
     14          6           0        0.092096   -2.245874   -1.215819
     15         16           0        1.457590   -2.892966   -0.320870
     16          6           0        2.011098   -1.262676    0.028568
     17          7           0        3.137034   -0.991450    0.691477
     18          6           0        3.389959    0.311810    0.807639
     19          7           0        2.622326    1.332184    0.391824
     20          1           0        0.682107    4.038480   -1.434096
     21          1           0        2.203435    3.132241   -1.604175
     22          1           0        1.772205    3.832611   -0.032268
     23          1           0       -0.060805    2.771593    1.246928
     24          1           0       -1.043612    3.216941   -0.155454
     25          1           0       -2.674555    1.674464   -1.102473
     26          1           0       -3.674631   -1.857536    1.139010
     27          1           0       -1.770629   -1.422870    2.654506
     28          1           0       -0.301386    0.551368    2.296549
     29          1           0       -5.113676   -0.938674   -0.585364
     30          1           0       -4.722738    0.431923   -1.455809
     31          1           0       -0.721793   -0.319548   -1.741104
     32          1           0       -0.606000   -2.931200   -1.677287
     33          1           0        4.315518    0.581929    1.310780
 ---------------------------------------------------------------------

 SCF Done:  E(UB3LYP) =  -1159.41141147     A.U. after   33 cycles
 SCF Done:  E(UB3LYP) =  -1159.41141147     a.u. after    1 cycles

 The electronic state is 2-A.
 Alpha  occ. eigenvalues --  -88.75950 -14.21586 -14.21331 -14.18932 -14.18682
 Alpha  occ. eigenvalues --  -10.12167 -10.11366 -10.11287 -10.10673 -10.10239
 Alpha  occ. eigenvalues --  -10.08913 -10.07973 -10.07937 -10.07462 -10.06821
 Alpha  occ. eigenvalues --  -10.06645 -10.06538 -10.06275 -10.05794  -7.84589
 Alpha  occ. eigenvalues --   -5.80878  -5.80544  -5.80148  -0.87278  -0.82955
 Alpha  occ. eigenvalues --   -0.81925  -0.76852  -0.74418  -0.73926  -0.66577
 Alpha  occ. eigenvalues --   -0.64533  -0.63069  -0.61480  -0.59374  -0.56890
 Alpha  occ. eigenvalues --   -0.52171  -0.51026  -0.49705  -0.48002  -0.44708
 Alpha  occ. eigenvalues --   -0.42331  -0.41728  -0.41223  -0.38663  -0.37874
 Alpha  occ. eigenvalues --   -0.36464  -0.34919  -0.34792  -0.33458  -0.32727
 Alpha  occ. eigenvalues --   -0.32537  -0.31469  -0.31157  -0.29202  -0.28768
 Alpha  occ. eigenvalues --   -0.28359  -0.27862  -0.27061  -0.25802  -0.24397
 Alpha  occ. eigenvalues --   -0.24075  -0.23868  -0.21391  -0.20306  -0.18329
 Alpha  occ. eigenvalues --   -0.15462  -0.14863  -0.14046  -0.13431  -0.11238
 Alpha  occ. eigenvalues --   -0.10847   0.03921
 Alpha virt. eigenvalues --    0.05494   0.07151   0.07894   0.08022   0.08602
 Alpha virt. eigenvalues --    0.09069   0.09246   0.09441   0.09831   0.10436
 Alpha virt. eigenvalues --    0.10709   0.11568   0.11903   0.12383   0.12453

  Beta  occ. eigenvalues --  -88.75949 -14.21526 -14.21343 -14.19007 -14.18460
  Beta  occ. eigenvalues --  -10.12202 -10.11363 -10.10946 -10.10524 -10.10196
  Beta  occ. eigenvalues --  -10.08906 -10.07975 -10.07751 -10.07463 -10.06803
  Beta  occ. eigenvalues --  -10.06629 -10.06501 -10.06266 -10.05777  -7.84588
  Beta  occ. eigenvalues --   -5.80880  -5.80547  -5.80138  -0.87021  -0.82763
  Beta  occ. eigenvalues --   -0.81853  -0.76740  -0.74284  -0.73772  -0.66544
  Beta  occ. eigenvalues --   -0.64299  -0.63021  -0.61322  -0.59321  -0.56706
  Beta  occ. eigenvalues --   -0.51909  -0.50980  -0.49614  -0.47855  -0.44542
  Beta  occ. eigenvalues --   -0.42218  -0.41662  -0.41160  -0.38575  -0.37791
  Beta  occ. eigenvalues --   -0.36237  -0.34817  -0.34729  -0.33400  -0.32648
  Beta  occ. eigenvalues --   -0.32489  -0.31349  -0.30677  -0.29163  -0.28713
  Beta  occ. eigenvalues --   -0.28304  -0.27791  -0.26993  -0.25727  -0.24053
  Beta  occ. eigenvalues --   -0.23917  -0.23793  -0.21226  -0.19496  -0.18169
  Beta  occ. eigenvalues --   -0.15357  -0.14504  -0.13948  -0.13266  -0.11005
  Beta  occ. eigenvalues --   -0.10283
  Beta virt. eigenvalues --    0.06682   0.07414   0.07855   0.08227   0.08373
  Beta virt. eigenvalues --    0.08832   0.09165   0.09391   0.09493   0.09970
  Beta virt. eigenvalues --    0.10423   0.10894   0.11731   0.12006   0.12364

 Mulliken charges and spin densities:
               1          2
     1  C   -0.110686  -0.087493
     2  N    0.323749   0.039779
     3  C    0.981290  -1.552355
     4  C    0.249320   0.430501
     5  C    0.055589  -0.267210
     6  C   -0.227234  -0.249337
     7  C    0.106359   0.006062
     8  C   -0.374781  -0.113939
     9  C   -0.545568   0.287938
    10  N   -0.234019  -0.026002
    11  C   -1.039478   0.226495
    12  C    0.659307   0.065150
    13  C   -0.083050  -0.103712
    14  C   -0.628051   0.238015
    15  S   -0.192673  -0.022526
    16  C   -0.334945  -0.082026
    17  N   -0.053627   0.095157
    18  C    0.032069   0.129958
    19  N    0.002298  -0.035558
    20  H    0.079656   0.035789
    21  H    0.155890   0.003072
    22  H    0.142085   0.005199
    23  H    0.102887   0.018339
    24  H    0.071955   0.079406
    25  H   -0.254159   0.428026
    26  H   -0.160354   0.311116
    27  H    0.136396   0.018108
    28  H    0.157733   0.017825
    29  H   -0.325986   0.575289
    30  H   -0.236832   0.483247
    31  H    0.186396   0.021015
    32  H    0.190829   0.026576
    33  H    0.167636  -0.001904
 Sum of Mulliken charges =  -1.00000   1.00000

 Dipole moment (field-independent basis, Debye):
    X=              3.2367    Y=              1.5517    Z=              1.3586  Tot=              3.8380
 Quadrupole moment (field-independent basis, Debye-Ang):
   XX=           -201.9129   YY=           -145.0813   ZZ=           -138.7923
   XY=              2.0092   XZ=            -10.5811   YZ=             -0.6136

 Summary of Natural Population Analysis:

                                       Natural Population
                Natural  -----------------------------------------------
    Atom  No    Charge         Core      Valence    Rydberg      Total
 -----------------------------------------------------------------------
      C    1   -0.17357      0.99965     2.16673    0.00719     3.17357
      N    2   -0.27416      0.99968     2.76374    0.01073     3.77416
      C    3   -0.08178      0.99956     2.07077    0.01145     3.08178
      C    4   -0.01649      0.99951     2.00631    0.01067     3.01649
      C    5   -0.12196      0.99946     2.11170    0.01080     3.12196
      C    6    0.08541      0.99948     1.90297    0.01213     2.91459
      C    7   -0.12309      0.99952     2.11323    0.01034     3.12309
      C    8   -0.08913      0.99957     2.07986    0.00970     3.08913
      C    9   -0.11581      0.99950     2.10669    0.00962     3.11581
      N   10   -0.39490      0.99972     2.88466    0.01052     3.89490
      C   11    0.27637      0.99946     1.70761    0.01656     2.72363
      C   12   -0.07715      0.99939     2.06681    0.01095     3.07715
      C   13   -0.11829      0.99951     2.10656    0.01222     3.11829
      C   14   -0.14203      0.99952     2.13258    0.00993     3.14203
      S   15    0.17255      4.99945     2.80776    0.02025     7.82745
      C   16    0.02821      0.99944     1.95193    0.02041     2.97179
      N   17   -0.23283      0.99965     2.72212    0.01106     3.73283
      C   18    0.15768      0.99967     1.82393    0.01872     2.84232
      N   19   -0.28361      0.99967     2.77493    0.00901     3.78361
      H   20    0.08833      0.00000     0.41074    0.00093     0.41167
      H   21    0.09979      0.00000     0.39933    0.00088     0.40021
      H   22    0.08834      0.00000     0.41009    0.00158     0.41166
      H   23    0.08669      0.00000     0.41148    0.00183     0.41331
      H   24    0.09655      0.00000     0.40227    0.00118     0.40345
      H   25    0.09938      0.00000     0.39894    0.00168     0.40062
      H   26    0.09921      0.00000     0.39979    0.00101     0.40079
      H   27    0.09831      0.00000     0.40077    0.00092     0.40169
      H   28    0.10213      0.00000     0.39654    0.00133     0.39787
      H   29    0.18714      0.00000     0.30794    0.00493     0.31286
      H   30    0.18682      0.00000     0.30894    0.00424     0.31318
      H   31    0.11383      0.00000     0.38405    0.00212     0.38617
      H   32    0.10409      0.00000     0.39490    0.00102     0.39591
      H   33    0.07398      0.00000     0.42483    0.00119     0.42602
 =======================================================================
   * Total *    0.00000     22.99141    47.75149    0.25710    71.00000

 Normal termination of Gaussian 16 at Sat Dec 12 11:17:11 2020.
