 Gaussian 16, Revision A.03,

 -----------------------------------------------------------
 # opt freq B3LYP/6-31G(d) empiricaldispersion=gd3bj scf=xqc
 -----------------------------------------------------------

 ------------------------------
 CID_12892418_JID_2781_neutraal
 ------------------------------
 Symbolic Z-matrix:
 Charge =  0 Multiplicity = 1

 SCF Done:  E(RB3LYP) =  -609.339730718     A.U. after   15 cycles
 SCF Done:  E(RB3LYP) =  -609.346320884     A.U. after   12 cycles
 SCF Done:  E(RB3LYP) =  -609.347044031     A.U. after   11 cycles
 SCF Done:  E(RB3LYP) =  -609.347077101     A.U. after   10 cycles
 SCF Done:  E(RB3LYP) =  -609.347070110     A.U. after   10 cycles
 SCF Done:  E(RB3LYP) =  -609.347038452     A.U. after   10 cycles
 SCF Done:  E(RB3LYP) =  -609.347078757     A.U. after   10 cycles
 SCF Done:  E(RB3LYP) =  -609.347081258     A.U. after    9 cycles
 Optimization completed.
    -- Stationary point found.
 Normal termination of Gaussian 16 at Sun Dec 13 19:55:05 2020.

 --------------------------------------------------------------------
 #N Geom=AllCheck Guess=TCheck SCRF=Check GenChk RB3LYP/6-31G(d) Freq
 --------------------------------------------------------------------

 Structure from the checkpoint file:  "JID_2781.chk"
 ------------------------------
 CID_12892418_JID_2781_neutraal
 ------------------------------
 Charge =  0 Multiplicity = 1

 SCF Done:  E(RB3LYP) =  -609.347081258     A.U. after    1 cycles

  Exact polarizability: 143.260   3.216 104.214  -0.008  -0.001  39.933
 Approx polarizability: 235.705 -13.230 185.082   0.003   0.008  60.436

 ******    1 imaginary frequencies (negative Signs) ******

                      1                      2                      3
                      A                      A                      A
 Frequencies --    -45.3461               103.6534               165.5667
 Red. masses --      2.2998                 9.8899                 5.7076
 Frc consts  --      0.0028                 0.0626                 0.0922
 IR Inten    --      7.5149                 4.9881                 0.7249

                      4                      5                      6
                      A                      A                      A
 Frequencies --    179.8250               205.9248               275.0788
 Red. masses --      8.1377                 3.7934                 6.1609
 Frc consts  --      0.1550                 0.0948                 0.2747
 IR Inten    --      6.3120                 6.0479                 9.0889

                      7                      8                      9
                      A                      A                      A
 Frequencies --    280.6012               312.2422               354.5692
 Red. masses --      3.8306                 1.3522                 2.9557
 Frc consts  --      0.1777                 0.0777                 0.2189
 IR Inten    --      8.2149                74.7254                38.9247

                     10                     11                     12
                      A                      A                      A
 Frequencies --    387.5901               480.9317               560.4527
 Red. masses --      9.1331                 6.0201                 9.1588
 Frc consts  --      0.8084                 0.8204                 1.6950
 IR Inten    --      0.0191                 8.2130                 0.0247

                     13                     14                     15
                      A                      A                      A
 Frequencies --    567.9666               583.6283               623.9200
 Red. masses --      5.0646                 4.5358                 6.0839
 Frc consts  --      0.9626                 0.9103                 1.3954
 IR Inten    --      0.0196                 2.6043                12.5137

                     16                     17                     18
                      A                      A                      A
 Frequencies --    672.5990               708.7970               767.6808
 Red. masses --      9.3240                 5.7797                 9.3979
 Frc consts  --      2.4852                 1.7108                 3.2632
 IR Inten    --      0.0694                30.7695                12.4217

                     19                     20                     21
                      A                      A                      A
 Frequencies --    809.8253               832.1083               875.3745
 Red. masses --      1.2944                 5.2156                 1.3083
 Frc consts  --      0.5002                 2.1277                 0.5907
 IR Inten    --     26.5350                 0.7744                16.7300

                     22                     23                     24
                      A                      A                      A
 Frequencies --    971.6071               994.5571              1022.5171
 Red. masses --      8.9472                 4.3019                 1.7729
 Frc consts  --      4.9765                 2.5071                 1.0921
 IR Inten    --     28.8958                22.1873                 0.0645

                     25                     26                     27
                      A                      A                      A
 Frequencies --   1064.2818              1104.8847              1138.1374
 Red. masses --      4.8178                 5.1487                 2.6274
 Frc consts  --      3.2152                 3.7032                 2.0053
 IR Inten    --     97.1009               234.4519                55.9938

                     28                     29                     30
                      A                      A                      A
 Frequencies --   1148.7423              1202.8858              1205.7070
 Red. masses --      1.4766                 1.5678                 1.0383
 Frc consts  --      1.1480                 1.3365                 0.8893
 IR Inten    --     10.6567                52.2604                 0.0364

                     31                     32                     33
                      A                      A                      A
 Frequencies --   1261.3920              1312.8967              1377.8971
 Red. masses --      1.6207                 1.7347                 6.4349
 Frc consts  --      1.5193                 1.7618                 7.1982
 IR Inten    --     77.6215                56.5044               422.2027

                     34                     35                     36
                      A                      A                      A
 Frequencies --   1408.3963              1454.6919              1463.6389
 Red. masses --      2.3726                 1.5316                 1.8097
 Frc consts  --      2.7728                 1.9095                 2.2842
 IR Inten    --     47.8709                 5.3729                39.1789

                     37                     38                     39
                      A                      A                      A
 Frequencies --   1497.0715              1555.8558              1576.9756
 Red. masses --      4.6534                 3.9897                 1.1456
 Frc consts  --      6.1448                 5.6903                 1.6786
 IR Inten    --    253.0284                80.0060                 0.9090

                     40                     41                     42
                      A                      A                      A
 Frequencies --   1663.7074              1694.9206              1795.2943
 Red. masses --      7.3214                 7.5251                 9.7806
 Frc consts  --     11.9398                12.7369                18.5732
 IR Inten    --     31.7758                96.4824               283.3252

                     43                     44                     45
                      A                      A                      A
 Frequencies --   2901.7308              3056.1926              3106.3328
 Red. masses --      1.0834                 1.0534                 1.1201
 Frc consts  --      5.3749                 5.7970                 6.3677
 IR Inten    --    148.4439               125.9290                46.5302

                     46                     47                     48
                      A                      A                      A
 Frequencies --   3168.9013              3251.8421              3756.7347
 Red. masses --      1.0894                 1.0922                 1.0661
 Frc consts  --      6.4454                 6.8048                 8.8645
 IR Inten    --     10.1432                 2.4192                55.1570

 - Thermochemistry -
 -------------------
 Temperature   298.150 Kelvin.  Pressure   1.00000 Atm.
 Atom     1 has atomic number  6 and mass  12.00000

 Molecular mass:   166.02661 amu.
 Principal axes and moments of inertia in atomic units:
                           1         2         3
     Eigenvalues --  1113.382932472.973263574.60857
           X            0.99943   0.03387  -0.00002
           Y           -0.03387   0.99943  -0.00002
           Z            0.00002   0.00002   1.00000
 This molecule is an asymmetric top.
 Rotational symmetry number  1.
 Warning -- assumption of classical behavior for rotation
           may cause significant error
 Rotational temperatures (Kelvin)      0.07779     0.03502     0.02423
 Rotational constants (GHZ):           1.62095     0.72979     0.50488
    1 imaginary frequencies ignored.
 Zero-point vibrational energy     340374.2 (Joules/Mol)
                                   81.35139 (Kcal/Mol)
 Warning -- explicit consideration of  13 degrees of freedom as
           vibrations may cause significant error
 Vibrational temperatures:    149.13   238.21   258.73   296.28   395.78
          (Kelvin)            403.72   449.25   510.15   557.66   691.95
                              806.37   817.18   839.71   897.68   967.72
                             1019.80  1104.52  1165.16  1197.22  1259.47
                             1397.93  1430.95  1471.17  1531.26  1589.68
                             1637.53  1652.78  1730.68  1734.74  1814.86
                             1888.97  1982.49  2026.37  2092.98  2105.85
                             2153.95  2238.53  2268.92  2393.70  2438.61
                             2583.03  4174.94  4397.18  4469.32  4559.34
                             4678.68  5405.10

 Zero-point correction=                           0.129642 (Hartree/Particle)
 Thermal correction to Energy=                    0.138696
 Thermal correction to Enthalpy=                  0.139640
 Thermal correction to Gibbs Free Energy=         0.095177
 Sum of electronic and zero-point Energies=           -609.217440
 Sum of electronic and thermal Energies=              -609.208385
 Sum of electronic and thermal Enthalpies=            -609.207441
 Sum of electronic and thermal Free Energies=         -609.251905

                     E (Thermal)             CV                S
                      KCal/Mol        Cal/Mol-Kelvin    Cal/Mol-Kelvin
 Total                   87.033             34.987             93.581
 Electronic               0.000              0.000              0.000
 Translational            0.889              2.981             41.229
 Rotational               0.889              2.981             30.666
 Vibrational             85.255             29.025             21.686
 Vibration     1          0.605              1.946              3.384
 Vibration     2          0.624              1.885              2.485
 Vibration     3          0.629              1.867              2.330
 Vibration     4          0.640              1.831              2.080
 Vibration     5          0.677              1.719              1.564
 Vibration     6          0.680              1.709              1.530
 Vibration     7          0.701              1.650              1.350
 Vibration     8          0.730              1.566              1.146
 Vibration     9          0.756              1.497              1.009
 Vibration    10          0.837              1.292              0.708
 Vibration    11          0.916              1.117              0.523
 Vibration    12          0.924              1.101              0.508
 Vibration    13          0.941              1.067              0.479

                           ! Non-Optimized Parameters !
 Normal termination of Gaussian 16 at Sun Dec 13 19:58:19 2020.

 ----------------------------------------------------------------------
 # B3LYP/6-311++G(d,p) empiricaldispersion=gd3bj scf=xqc pop=npa geom=c
 heck
 ----------------------------------------------------------------------

 --------------------------------------
 CID_12892418_JID_2781_Energie_neutraal
 --------------------------------------
 Structure from the checkpoint file:  "JID_2781.chk"
 Charge =  0 Multiplicity = 1

 SCF Done:  E(RB3LYP) =  -609.526939821     A.U. after   15 cycles
 Normal termination of Gaussian 16 at Sun Dec 13 19:59:36 2020.

 ----------------------------------------------------------------------
 # B3LYP/6-311++G(d,p) empiricaldispersion=gd3bj scf=xqc pop=npa geom=c
 heck
 ----------------------------------------------------------------------

 ------------------------------------
 CID_12892418_JID_2781_Energie_kation
 ------------------------------------
 Structure from the checkpoint file:  "JID_2781.chk"
 Charge =  1 Multiplicity = 2

 SCF Done:  E(UB3LYP) =  -609.222539620     A.U. after   24 cycles
 Normal termination of Gaussian 16 at Sun Dec 13 20:02:36 2020.
 Gaussian 16:  ES64L-G16RevA.03 25-Dec-2016

 ----------------------------------------------------------------------
 # B3LYP/6-311++G(d,p) empiricaldispersion=gd3bj scf=xqc pop=npa geom=c
 heck
 ----------------------------------------------------------------------

 -----------------------------------
 CID_12892418_JID_2781_Energie_anion
 -----------------------------------
 Structure from the checkpoint file:  "JID_2781.chk"
 Charge = -1 Multiplicity = 2

                         Standard orientation:
 ---------------------------------------------------------------------
 Center     Atomic      Atomic             Coordinates (Angstroms)
 Number     Number       Type             X           Y           Z
 ---------------------------------------------------------------------
      1          6           0       -2.741826   -1.242247    0.001337
      2          8           0       -1.481580   -1.921604   -0.000918
      3          6           0       -0.513799   -0.948247   -0.000321
      4          6           0        0.853304   -1.108157   -0.000235
      5          6           0        1.615487    0.078278    0.000017
      6          6           0        1.007057    1.340697    0.000129
      7          6           0       -0.387901    1.480556   -0.000026
      8          6           0       -1.127128    0.303787   -0.000214
      9          8           0       -2.486089    0.171260   -0.000707
     10          8           0       -1.049650    2.672274    0.000023
     11          6           0        3.086978   -0.002538    0.000209
     12          8           0        3.726400   -1.037999    0.000174
     13          1           0       -3.304145   -1.508726   -0.900390
     14          1           0       -3.300002   -1.506898    0.906264
     15          1           0        1.341230   -2.074711   -0.000359
     16          1           0        1.632357    2.231882    0.000390
     17          1           0       -0.397764    3.390078   -0.000238
     18          1           0        3.602642    0.984147    0.000376
 ---------------------------------------------------------------------

 SCF Done:  E(UB3LYP) =  -609.533895454     A.U. after   32 cycles

 The electronic state is 2-A.
 Alpha  occ. eigenvalues --  -19.03692 -19.03064 -19.03047 -18.89866 -10.17323
 Alpha  occ. eigenvalues --  -10.09077 -10.08433 -10.06721 -10.03364 -10.01371
 Alpha  occ. eigenvalues --  -10.00617 -10.00352  -0.99758  -0.93950  -0.90583
 Alpha  occ. eigenvalues --   -0.83786  -0.70675  -0.62632  -0.59920  -0.54731
 Alpha  occ. eigenvalues --   -0.49804  -0.48794  -0.44065  -0.39871  -0.39646
 Alpha  occ. eigenvalues --   -0.37660  -0.36319  -0.34025  -0.30677  -0.28852
 Alpha  occ. eigenvalues --   -0.27775  -0.25749  -0.25016  -0.24823  -0.23765
 Alpha  occ. eigenvalues --   -0.23426  -0.22551  -0.21512  -0.20958  -0.15648
 Alpha  occ. eigenvalues --   -0.08576  -0.07142  -0.06462   0.06074
 Alpha virt. eigenvalues --    0.08287   0.08750   0.11054   0.11875   0.12654
 Alpha virt. eigenvalues --    0.13571   0.14776   0.14986   0.15610   0.16891
 Alpha virt. eigenvalues --    0.18170   0.18566   0.18930   0.19581   0.20190

  Beta  occ. eigenvalues --  -19.03717 -19.03059 -19.02962 -18.89207 -10.17326
  Beta  occ. eigenvalues --  -10.09170 -10.08543 -10.06352 -10.02982 -10.01145
  Beta  occ. eigenvalues --  -10.00397 -10.00246  -0.99672  -0.93977  -0.90481
  Beta  occ. eigenvalues --   -0.82581  -0.70365  -0.62315  -0.59599  -0.54406
  Beta  occ. eigenvalues --   -0.49491  -0.48330  -0.43618  -0.39749  -0.39470
  Beta  occ. eigenvalues --   -0.37460  -0.35915  -0.33832  -0.30542  -0.28528
  Beta  occ. eigenvalues --   -0.27557  -0.25456  -0.24952  -0.24726  -0.23417
  Beta  occ. eigenvalues --   -0.22892  -0.22256  -0.20590  -0.18941  -0.13989
  Beta  occ. eigenvalues --   -0.07577  -0.05873  -0.05550
  Beta virt. eigenvalues --    0.08267   0.08730   0.11041   0.11866   0.12629
  Beta virt. eigenvalues --    0.13227   0.13581   0.14928   0.14967   0.15594
  Beta virt. eigenvalues --    0.17228   0.18174   0.18548   0.18915   0.19902

 Mulliken charges and spin densities:
               1          2
     1  C    0.076214  -0.001216
     2  O   -0.180641  -0.002649
     3  C    0.097278  -0.065850
     4  C   -0.617769   0.208196
     5  C    0.963497   0.062976
     6  C   -0.733983   0.124603
     7  C   -0.850057  -0.037028
     8  C    0.627451   0.235378
     9  O   -0.202214   0.016136
    10  O   -0.290036  -0.001838
    11  C   -0.218492   0.288999
    12  O   -0.412831   0.223125
    13  H    0.140074   0.000639
    14  H    0.138977   0.001748
    15  H    0.155484  -0.015218
    16  H    0.042245  -0.014959
    17  H    0.257660  -0.000301
    18  H    0.007143  -0.022742
 Sum of Mulliken charges =  -1.00000   1.00000

 Dipole moment (field-independent basis, Debye):
    X=             -7.8664    Y=              2.4372    Z=              0.0028  Tot=              8.2353
 Quadrupole moment (field-independent basis, Debye-Ang):
   XX=           -114.0439   YY=            -76.8695   ZZ=            -74.8095
   XY=             16.8105   XZ=             -0.0024   YZ=              0.0033

 Summary of Natural Population Analysis:

                                       Natural Population
                Natural  -----------------------------------------------
    Atom  No    Charge         Core      Valence    Rydberg      Total
 -----------------------------------------------------------------------
      C    1    0.15621      0.99965     1.83059    0.01356     2.84379
      O    2   -0.28391      0.99987     3.27567    0.00837     4.28391
      C    3    0.10909      0.99936     1.87972    0.01182     2.89091
      C    4   -0.07756      0.99949     2.06868    0.00939     3.07756
      C    5   -0.04769      0.99952     2.03921    0.00897     3.04769
      C    6   -0.08972      0.99952     2.08138    0.00882     3.08972
      C    7    0.10664      0.99935     1.88166    0.01234     2.89336
      C    8    0.16006      0.99931     1.82872    0.01191     2.83994
      O    9   -0.26769      0.99987     3.25908    0.00874     4.26769
      O   10   -0.34869      0.99987     3.34175    0.00706     4.34869
      C   11    0.25002      0.99968     1.72867    0.02163     2.74998
      O   12   -0.24136      0.99988     3.23318    0.00830     4.24136
      H   13    0.06672      0.00000     0.43164    0.00164     0.43328
      H   14    0.06662      0.00000     0.43173    0.00165     0.43338
      H   15    0.10789      0.00000     0.39010    0.00201     0.39211
      H   16    0.08546      0.00000     0.41271    0.00183     0.41454
      H   17    0.22819      0.00000     0.26939    0.00242     0.27181
      H   18    0.01971      0.00000     0.47667    0.00362     0.48029
 =======================================================================
   * Total *    0.00000     11.99538    30.86056    0.14406    43.00000

 Normal termination of Gaussian 16 at Sun Dec 13 20:06:27 2020.
