 Gaussian 16, Revision A.03,

 -----------------------------------------------------------
 # opt freq B3LYP/6-31G(d) empiricaldispersion=gd3bj scf=xqc
 -----------------------------------------------------------

 ------------------------------
 CID_64470449_JID_4848_neutraal
 ------------------------------
 Symbolic Z-matrix:
 Charge =  0 Multiplicity = 1

 SCF Done:  E(RB3LYP) =  -614.764136967     A.U. after   15 cycles
 SCF Done:  E(RB3LYP) =  -614.788007093     A.U. after   13 cycles
 SCF Done:  E(RB3LYP) =  -614.789271792     A.U. after   14 cycles
 SCF Done:  E(RB3LYP) =  -614.790439885     A.U. after   12 cycles
 SCF Done:  E(RB3LYP) =  -614.790617813     A.U. after   12 cycles
 SCF Done:  E(RB3LYP) =  -614.790783860     A.U. after   12 cycles
 SCF Done:  E(RB3LYP) =  -614.791163838     A.U. after   12 cycles
 SCF Done:  E(RB3LYP) =  -614.791359431     A.U. after   12 cycles
 SCF Done:  E(RB3LYP) =  -614.791423282     A.U. after   11 cycles
 SCF Done:  E(RB3LYP) =  -614.791491404     A.U. after   11 cycles
 SCF Done:  E(RB3LYP) =  -614.791753429     A.U. after   10 cycles
 SCF Done:  E(RB3LYP) =  -614.791761090     A.U. after   11 cycles
 SCF Done:  E(RB3LYP) =  -614.791757958     A.U. after   10 cycles
 SCF Done:  E(RB3LYP) =  -614.791761300     A.U. after   10 cycles
 SCF Done:  E(RB3LYP) =  -614.791760997     A.U. after    9 cycles
 SCF Done:  E(RB3LYP) =  -614.791761358     A.U. after   10 cycles
 Optimization completed.
    -- Stationary point found.
 Normal termination of Gaussian 16 at Thu Dec 10 10:57:40 2020.

 --------------------------------------------------------------------
 #N Geom=AllCheck Guess=TCheck SCRF=Check GenChk RB3LYP/6-31G(d) Freq
 --------------------------------------------------------------------

 Structure from the checkpoint file:  "JID_4848.chk"
 ------------------------------
 CID_64470449_JID_4848_neutraal
 ------------------------------
 Charge =  0 Multiplicity = 1

 SCF Done:  E(RB3LYP) =  -614.791761358     A.U. after    1 cycles

  Exact polarizability: 137.606   2.358 121.532  -0.182  -2.599 107.825
 Approx polarizability: 170.812  10.134 185.436   0.526  -0.853 167.427

                      1                      2                      3
                      A                      A                      A
 Frequencies --     27.8733                38.4395                45.3675
 Red. masses --      2.9004                 5.4729                 3.3312
 Frc consts  --      0.0013                 0.0048                 0.0040
 IR Inten    --      0.0501                 5.0409                 1.5855

                      4                      5                      6
                      A                      A                      A
 Frequencies --     61.4894                73.2791               119.6894
 Red. masses --      4.3730                 3.1962                 4.2125
 Frc consts  --      0.0097                 0.0101                 0.0356
 IR Inten    --      1.9260                 0.8196                 2.3239

                      7                      8                      9
                      A                      A                      A
 Frequencies --    181.4562               205.3712               219.0849
 Red. masses --      3.4766                 2.7284                 1.9140
 Frc consts  --      0.0674                 0.0678                 0.0541
 IR Inten    --      0.9699                 1.3714                 1.7316

                     10                     11                     12
                      A                      A                      A
 Frequencies --    239.8952               251.9547               271.7603
 Red. masses --      1.5250                 1.1880                 2.2137
 Frc consts  --      0.0517                 0.0444                 0.0963
 IR Inten    --      0.6976                 0.3341                 2.0716

                     13                     14                     15
                      A                      A                      A
 Frequencies --    311.4596               319.5953               346.8978
 Red. masses --      3.9131                 2.4390                 3.8086
 Frc consts  --      0.2237                 0.1468                 0.2700
 IR Inten    --      1.8129                 0.1209                15.3026

                     16                     17                     18
                      A                      A                      A
 Frequencies --    384.8354               432.8644               469.9429
 Red. masses --      2.5150                 4.0898                 2.5211
 Frc consts  --      0.2194                 0.4515                 0.3280
 IR Inten    --      0.3333                 7.3232                 3.5083

                     19                     20                     21
                      A                      A                      A
 Frequencies --    489.2623               523.5248               551.6431
 Red. masses --      2.8289                 5.5367                 1.8447
 Frc consts  --      0.3990                 0.8941                 0.3308
 IR Inten    --      1.9779                 2.3669                 1.8661

                     22                     23                     24
                      A                      A                      A
 Frequencies --    647.9900               672.1237               741.1947
 Red. masses --      2.6310                 4.1394                 5.0191
 Frc consts  --      0.6509                 1.1018                 1.6246
 IR Inten    --      2.7584                 8.1640                 8.7959

                     25                     26                     27
                      A                      A                      A
 Frequencies --    763.5517               829.5865               845.5850
 Red. masses --      3.3555                 2.2667                 1.9586
 Frc consts  --      1.1526                 0.9191                 0.8251
 IR Inten    --      4.8000                 7.8091                 0.5610

                     28                     29                     30
                      A                      A                      A
 Frequencies --    886.2252               908.8422               914.9809
 Red. masses --      2.0760                 4.4583                 3.4632
 Frc consts  --      0.9607                 2.1697                 1.7083
 IR Inten    --      1.1253                 8.3594                 4.8492

                     31                     32                     33
                      A                      A                      A
 Frequencies --    925.9100               933.5043               945.6046
 Red. masses --      2.3987                 2.1177                 1.1618
 Frc consts  --      1.2116                 1.0873                 0.6121
 IR Inten    --      2.1107                10.0944                 3.7480

                     34                     35                     36
                      A                      A                      A
 Frequencies --    951.7900               963.5486               973.1625
 Red. masses --      2.1748                 1.5462                 1.4838
 Frc consts  --      1.1608                 0.8458                 0.8279
 IR Inten    --      0.0643                 0.1294                 9.8420

                     37                     38                     39
                      A                      A                      A
 Frequencies --   1021.8624              1040.7471              1058.6150
 Red. masses --      2.0912                 1.6656                 1.6946
 Frc consts  --      1.2865                 1.0630                 1.1189
 IR Inten    --     29.3327                 0.5368                 2.2085

                     40                     41                     42
                      A                      A                      A
 Frequencies --   1110.6381              1157.7163              1165.1085
 Red. masses --      2.4594                 1.9827                 2.1294
 Frc consts  --      1.7874                 1.5657                 1.7031
 IR Inten    --      2.7146                26.5521                10.9559

                     43                     44                     45
                      A                      A                      A
 Frequencies --   1174.5202              1193.1454              1201.5212
 Red. masses --      1.3364                 2.2008                 1.5213
 Frc consts  --      1.0862                 1.8459                 1.2940
 IR Inten    --      1.0889                 2.2717                 3.3203

                     46                     47                     48
                      A                      A                      A
 Frequencies --   1234.0632              1250.7610              1261.8809
 Red. masses --      1.8758                 1.3279                 2.1568
 Frc consts  --      1.6831                 1.2239                 2.0235
 IR Inten    --    127.9634                 8.5471                55.4473

                     49                     50                     51
                      A                      A                      A
 Frequencies --   1278.4353              1300.5457              1330.8625
 Red. masses --      1.3727                 1.2694                 1.3205
 Frc consts  --      1.3218                 1.2650                 1.3780
 IR Inten    --     14.7231                 3.8908                 3.1622

                     52                     53                     54
                      A                      A                      A
 Frequencies --   1352.2435              1363.6339              1370.2995
 Red. masses --      1.3951                 1.2869                 1.3655
 Frc consts  --      1.5030                 1.4099                 1.5106
 IR Inten    --     44.3016                18.3834                 0.0640

                     55                     56                     57
                      A                      A                      A
 Frequencies --   1370.5070              1378.8775              1394.7369
 Red. masses --      1.3524                 1.4858                 1.2883
 Frc consts  --      1.4966                 1.6644                 1.4766
 IR Inten    --      4.1351                12.7941                17.5737

                     58                     59                     60
                      A                      A                      A
 Frequencies --   1408.3594              1422.3980              1441.2720
 Red. masses --      1.4963                 1.2687                 1.2590
 Frc consts  --      1.7486                 1.5124                 1.5409
 IR Inten    --     60.1558                12.5846                34.1618

                     61                     62                     63
                      A                      A                      A
 Frequencies --   1477.7276              1509.4908              1513.6941
 Red. masses --      1.4865                 1.0428                 1.1178
 Frc consts  --      1.9125                 1.4000                 1.5090
 IR Inten    --     45.2501                 1.7194                34.4751

                     64                     65                     66
                      A                      A                      A
 Frequencies --   1515.6603              1520.5379              1522.4098
 Red. masses --      1.0863                 1.0863                 1.0864
 Frc consts  --      1.4703                 1.4797                 1.4836
 IR Inten    --      8.6147                 4.6074                 0.7249

                     67                     68                     69
                      A                      A                      A
 Frequencies --   1525.8940              1533.9940              1543.0605
 Red. masses --      1.0787                 1.0495                 1.1084
 Frc consts  --      1.4798                 1.4550                 1.5549
 IR Inten    --      9.8298                 0.2306                 2.3123

                     70                     71                     72
                      A                      A                      A
 Frequencies --   1552.9097              1754.7087              2366.7304
 Red. masses --      1.0641                 9.8592                12.5646
 Frc consts  --      1.5119                17.8855                41.4665
 IR Inten    --      7.2801               179.7847                 0.8029

                     73                     74                     75
                      A                      A                      A
 Frequencies --   3044.1477              3047.7328              3053.8174
 Red. masses --      1.0676                 1.0645                 1.0749
 Frc consts  --      5.8288                 5.8256                 5.9059
 IR Inten    --     32.0381                27.4067                14.6041

                     76                     77                     78
                      A                      A                      A
 Frequencies --   3058.9025              3059.9160              3065.3726
 Red. masses --      1.0428                 1.0615                 1.0430
 Frc consts  --      5.7491                 5.8560                 5.7741
 IR Inten    --     25.4798                20.3153                23.5375

                     79                     80                     81
                      A                      A                      A
 Frequencies --   3081.8629              3084.9623              3093.2600
 Red. masses --      1.0721                 1.0689                 1.0846
 Frc consts  --      5.9995                 5.9935                 6.1144
 IR Inten    --     11.2368                36.1268                21.5424

                     82                     83                     84
                      A                      A                      A
 Frequencies --   3095.7374              3104.4729              3113.1130
 Red. masses --      1.0933                 1.0943                 1.1064
 Frc consts  --      6.1735                 6.2141                 6.3176
 IR Inten    --     40.6117                24.0176                49.1702

                     85                     86                     87
                      A                      A                      A
 Frequencies --   3119.0839              3126.9798              3142.4273
 Red. masses --      1.1025                 1.1024                 1.1020
 Frc consts  --      6.3196                 6.3511                 6.4118
 IR Inten    --     24.3272                33.2325                 7.8378

                     88                     89                     90
                      A                      A                      A
 Frequencies --   3144.7720              3169.0736              3177.0048
 Red. masses --      1.0958                 1.1003                 1.0987
 Frc consts  --      6.3852                 6.5108                 6.5338
 IR Inten    --      8.1768                 5.1511                 9.6601

 - Thermochemistry -
 -------------------
 Temperature   298.150 Kelvin.  Pressure   1.00000 Atm.
 Atom     1 has atomic number  6 and mass  12.00000

 Molecular mass:   194.14191 amu.
 Principal axes and moments of inertia in atomic units:
                           1         2         3
     Eigenvalues --  1879.042523703.770714541.01604
           X            0.99901  -0.04450  -0.00038
           Y            0.04450   0.99901  -0.00067
           Z            0.00041   0.00065   1.00000
 This molecule is an asymmetric top.
 Rotational symmetry number  1.
 Warning -- assumption of classical behavior for rotation
           may cause significant error
 Rotational temperatures (Kelvin)      0.04609     0.02339     0.01907
 Rotational constants (GHZ):           0.96046     0.48727     0.39743
 Zero-point vibrational energy     740916.1 (Joules/Mol)
                                  177.08319 (Kcal/Mol)
 Warning -- explicit consideration of  21 degrees of freedom as
           vibrations may cause significant error
 Vibrational temperatures:     40.10    55.31    65.27    88.47   105.43
          (Kelvin)            172.21   261.07   295.48   315.21   345.16
                              362.51   391.00   448.12   459.83   499.11
                              553.69   622.80   676.14   703.94   753.24
                              793.69   932.31   967.04  1066.41  1098.58
                             1193.59  1216.61  1275.08  1307.62  1316.45
                             1332.18  1343.10  1360.51  1369.41  1386.33
                             1400.16  1470.23  1497.40  1523.11  1597.96
                             1665.70  1676.33  1689.87  1716.67  1728.72
                             1775.54  1799.57  1815.57  1839.38  1871.20
                             1914.81  1945.58  1961.97  1971.56  1971.85
                             1983.90  2006.72  2026.32  2046.51  2073.67
                             2126.12  2171.82  2177.87  2180.70  2187.71
                             2190.41  2195.42  2207.08  2220.12  2234.29
                             2524.63  3405.20  4379.85  4385.01  4393.76
                             4401.08  4402.54  4410.39  4434.11  4438.57
                             4450.51  4454.08  4466.64  4479.08  4487.67
                             4499.03  4521.25  4524.63  4559.59  4571.00

 Zero-point correction=                           0.282200 (Hartree/Particle)
 Thermal correction to Energy=                    0.297090
 Thermal correction to Enthalpy=                  0.298034
 Thermal correction to Gibbs Free Energy=         0.238718
 Sum of electronic and zero-point Energies=           -614.509561
 Sum of electronic and thermal Energies=              -614.494672
 Sum of electronic and thermal Enthalpies=            -614.493727
 Sum of electronic and thermal Free Energies=         -614.553043

                     E (Thermal)             CV                S
                      KCal/Mol        Cal/Mol-Kelvin    Cal/Mol-Kelvin
 Total                  186.427             54.883            124.840
 Electronic               0.000              0.000              0.000
 Translational            0.889              2.981             41.696
 Rotational               0.889              2.981             31.825
 Vibrational            184.649             48.922             51.320
 Vibration     1          0.593              1.984              5.975
 Vibration     2          0.594              1.982              5.338
 Vibration     3          0.595              1.979              5.010
 Vibration     4          0.597              1.973              4.409
 Vibration     5          0.599              1.967              4.063
 Vibration     6          0.609              1.933              3.105
 Vibration     7          0.630              1.865              2.313
 Vibration     8          0.640              1.832              2.084
 Vibration     9          0.647              1.812              1.967
 Vibration    10          0.657              1.779              1.804
 Vibration    11          0.664              1.759              1.717
 Vibration    12          0.675              1.725              1.585
 Vibration    13          0.700              1.652              1.355
 Vibration    14          0.706              1.636              1.312
 Vibration    15          0.725              1.582              1.180
 Vibration    16          0.754              1.503              1.020
 Vibration    17          0.794              1.399              0.849
 Vibration    18          0.827              1.317              0.738
 Vibration    19          0.845              1.274              0.686
 Vibration    20          0.878              1.198              0.602
 Vibration    21          0.907              1.136              0.541

                           ! Non-Optimized Parameters !
 Normal termination of Gaussian 16 at Thu Dec 10 11:07:37 2020.

 ----------------------------------------------------------------------
 # B3LYP/6-311++G(d,p) empiricaldispersion=gd3bj scf=xqc pop=npa geom=c
 heck
 ----------------------------------------------------------------------

 --------------------------------------
 CID_64470449_JID_4848_Energie_neutraal
 --------------------------------------
 Structure from the checkpoint file:  "JID_4848.chk"
 Charge =  0 Multiplicity = 1

 SCF Done:  E(RB3LYP) =  -614.962456313     A.U. after   15 cycles
 Normal termination of Gaussian 16 at Thu Dec 10 11:11:27 2020.

 ----------------------------------------------------------------------
 # B3LYP/6-311++G(d,p) empiricaldispersion=gd3bj scf=xqc pop=npa geom=c
 heck
 ----------------------------------------------------------------------

 ------------------------------------
 CID_64470449_JID_4848_Energie_kation
 ------------------------------------
 Structure from the checkpoint file:  "JID_4848.chk"
 Charge =  1 Multiplicity = 2

 SCF Done:  E(UB3LYP) =  -614.628863177     A.U. after   28 cycles
 Normal termination of Gaussian 16 at Thu Dec 10 11:20:48 2020.
 Gaussian 16:  ES64L-G16RevA.03 25-Dec-2016

 ----------------------------------------------------------------------
 # B3LYP/6-311++G(d,p) empiricaldispersion=gd3bj scf=xqc pop=npa geom=c
 heck
 ----------------------------------------------------------------------

 -----------------------------------
 CID_64470449_JID_4848_Energie_anion
 -----------------------------------
 Structure from the checkpoint file:  "JID_4848.chk"
 Charge = -1 Multiplicity = 2

                         Standard orientation:
 ---------------------------------------------------------------------
 Center     Atomic      Atomic             Coordinates (Angstroms)
 Number     Number       Type             X           Y           Z
 ---------------------------------------------------------------------
      1          6           0        2.080856   -2.296478    0.833619
      2          6           0        2.263694   -0.900366    0.231555
      3          6           0        2.739294   -0.930928   -1.224831
      4          7           0        1.042494   -0.065925    0.401347
      5          6           0        1.220158    1.207318    1.078309
      6          6           0        1.730374    2.269517    0.185583
      7          7           0        2.126072    3.078418   -0.546302
      8          6           0       -0.120175   -0.387450   -0.273843
      9          8           0       -0.215847   -1.444877   -0.887616
     10          6           0       -1.296654    0.589743   -0.164020
     11          6           0       -2.360908    0.321149   -1.264980
     12          6           0       -3.667783   -0.037173   -0.524395
     13          6           0       -3.186951   -0.595708    0.820662
     14          6           0       -2.040108    0.354247    1.190901
     15          1           0        1.340692   -2.863961    0.268547
     16          1           0        1.751314   -2.227805    1.876193
     17          1           0        3.035438   -2.833781    0.810467
     18          1           0        3.031108   -0.383139    0.818426
     19          1           0        2.013238   -1.446882   -1.855312
     20          1           0        2.881863    0.085587   -1.605856
     21          1           0        3.697450   -1.458298   -1.287711
     22          1           0        0.285651    1.545827    1.528315
     23          1           0        1.929622    1.076056    1.901762
     24          1           0       -0.928970    1.616884   -0.233726
     25          1           0       -2.479029    1.187414   -1.922236
     26          1           0       -2.025981   -0.521784   -1.873042
     27          1           0       -4.286617   -0.743348   -1.086938
     28          1           0       -4.272362    0.862959   -0.352253
     29          1           0       -2.792975   -1.610099    0.683999
     30          1           0       -3.969408   -0.635738    1.585724
     31          1           0       -1.387961   -0.047890    1.974105
     32          1           0       -2.447035    1.306339    1.553797
 ---------------------------------------------------------------------

 SCF Done:  E(UB3LYP) =  -614.954675805     A.U. after   29 cycles

 The electronic state is 2-A.
 Alpha  occ. eigenvalues --  -18.99571 -14.25552 -14.22432 -10.17893 -10.15436
 Alpha  occ. eigenvalues --  -10.12151 -10.12118 -10.08797 -10.07493 -10.07096
 Alpha  occ. eigenvalues --  -10.06967 -10.06751 -10.06482 -10.06078  -0.94976
 Alpha  occ. eigenvalues --   -0.85595  -0.81566  -0.74669  -0.69985  -0.65470
 Alpha  occ. eigenvalues --   -0.62747  -0.61661  -0.59486  -0.54264  -0.48779
 Alpha  occ. eigenvalues --   -0.47568  -0.46132  -0.42787  -0.41412  -0.40316
 Alpha  occ. eigenvalues --   -0.38130  -0.37770  -0.34818  -0.34407  -0.33649
 Alpha  occ. eigenvalues --   -0.32503  -0.32257  -0.30534  -0.28836  -0.28452
 Alpha  occ. eigenvalues --   -0.27964  -0.26011  -0.25788  -0.25204  -0.24892
 Alpha  occ. eigenvalues --   -0.24853  -0.24457  -0.24148  -0.23793  -0.23431
 Alpha  occ. eigenvalues --   -0.22949  -0.16524  -0.15972   0.04137
 Alpha virt. eigenvalues --    0.06269   0.07391   0.07991   0.08521   0.09024
 Alpha virt. eigenvalues --    0.09270   0.09470   0.10268   0.10879   0.11208
 Alpha virt. eigenvalues --    0.11237   0.11681   0.11892   0.12121   0.12504

  Beta  occ. eigenvalues --  -18.99560 -14.25554 -14.22417 -10.17888 -10.15371
  Beta  occ. eigenvalues --  -10.12148 -10.12097 -10.08787 -10.07454 -10.07083
  Beta  occ. eigenvalues --  -10.06956 -10.06746 -10.06472 -10.06054  -0.94959
  Beta  occ. eigenvalues --   -0.85575  -0.81534  -0.74639  -0.69939  -0.65388
  Beta  occ. eigenvalues --   -0.62708  -0.61619  -0.59449  -0.54224  -0.48715
  Beta  occ. eigenvalues --   -0.47530  -0.46089  -0.42715  -0.41348  -0.40252
  Beta  occ. eigenvalues --   -0.38073  -0.37741  -0.34781  -0.34361  -0.33607
  Beta  occ. eigenvalues --   -0.32480  -0.32229  -0.30509  -0.28807  -0.28428
  Beta  occ. eigenvalues --   -0.27938  -0.25978  -0.25758  -0.25165  -0.24861
  Beta  occ. eigenvalues --   -0.24810  -0.24429  -0.24109  -0.23750  -0.23396
  Beta  occ. eigenvalues --   -0.22926  -0.16506  -0.15949
  Beta virt. eigenvalues --    0.06585   0.07102   0.08087   0.08417   0.08959
  Beta virt. eigenvalues --    0.09367   0.09517   0.09606   0.10559   0.11226
  Beta virt. eigenvalues --    0.11413   0.11560   0.11811   0.12168   0.12364

 Mulliken charges and spin densities:
               1          2
     1  C    0.047833  -0.475442
     2  C   -0.408725   0.337808
     3  C    0.240143  -0.719021
     4  N    0.389509   0.006236
     5  C   -0.545665   0.575476
     6  C    1.620141  -1.728021
     7  N   -0.329761   0.054056
     8  C   -0.218435  -0.582994
     9  O   -0.274821   0.003170
    10  C   -0.107275   0.703464
    11  C    0.274101  -0.854240
    12  C    0.027282  -0.511286
    13  C    0.043287  -0.398647
    14  C    0.326164  -0.594560
    15  H    0.131596   0.044523
    16  H   -0.101850   0.247213
    17  H   -0.141815   0.287994
    18  H   -0.190551   0.364985
    19  H    0.148459   0.032104
    20  H    0.102366   0.029673
    21  H    0.038005   0.106684
    22  H   -0.397983   0.587997
    23  H   -1.282424   1.546717
    24  H    0.038600   0.233315
    25  H    0.026415   0.102751
    26  H    0.180791   0.014583
    27  H    0.075856   0.059848
    28  H   -0.067523   0.206180
    29  H    0.137917   0.017043
    30  H   -0.197132   0.366713
    31  H   -0.076318   0.226043
    32  H   -0.508188   0.709636
 Sum of Mulliken charges =  -1.00000   1.00000

 Dipole moment (field-independent basis, Debye):
    X=             -2.0963    Y=             -3.7384    Z=             -5.0784  Tot=              6.6453
 Quadrupole moment (field-independent basis, Debye-Ang):
   XX=           -146.9819   YY=           -133.1512   ZZ=           -131.4499
   XY=             -2.5882   XZ=             -3.4396   YZ=             -3.4606

 Summary of Natural Population Analysis:

                                       Natural Population
                Natural  -----------------------------------------------
    Atom  No    Charge         Core      Valence    Rydberg      Total
 -----------------------------------------------------------------------
      C    1   -0.28961      0.99963     2.28362    0.00636     3.28961
      C    2   -0.00296      0.99959     1.98954    0.01382     3.00296
      C    3   -0.29378      0.99963     2.28834    0.00581     3.29378
      N    4   -0.26138      0.99963     2.74584    0.01590     3.76138
      C    5   -0.14344      0.99950     2.12892    0.01502     3.14344
      C    6    0.15733      0.99964     1.82828    0.01475     2.84267
      N    7   -0.17855      0.99979     2.66780    0.01096     3.67855
      C    8    0.36258      0.99962     1.61413    0.02368     2.63742
      O    9   -0.32642      0.99988     3.32194    0.00460     4.32642
      C   10   -0.15607      0.99957     2.14621    0.01030     3.15607
      C   11   -0.19114      0.99963     2.18325    0.00826     3.19114
      C   12   -0.19113      0.99964     2.18384    0.00765     3.19113
      C   13   -0.19241      0.99963     2.18427    0.00851     3.19241
      C   14   -0.18813      0.99962     2.17912    0.00940     3.18813
      H   15    0.11059      0.00000     0.38842    0.00100     0.38941
      H   16    0.10374      0.00000     0.39503    0.00123     0.39626
      H   17    0.09760      0.00000     0.40165    0.00076     0.40240
      H   18    0.09812      0.00000     0.39934    0.00254     0.40188
      H   19    0.10985      0.00000     0.38929    0.00086     0.39015
      H   20    0.10342      0.00000     0.39585    0.00072     0.39658
      H   21    0.09856      0.00000     0.40080    0.00063     0.40144
      H   22    0.12748      0.00000     0.36946    0.00306     0.37252
      H   23    0.12983      0.00000     0.36198    0.00820     0.37017
      H   24    0.10939      0.00000     0.38868    0.00194     0.39061
      H   25    0.09881      0.00000     0.40041    0.00078     0.40119
      H   26    0.11171      0.00000     0.38704    0.00126     0.38829
      H   27    0.09682      0.00000     0.40245    0.00073     0.40318
      H   28    0.09415      0.00000     0.40465    0.00120     0.40585
      H   29    0.09797      0.00000     0.40080    0.00123     0.40203
      H   30    0.10033      0.00000     0.39873    0.00093     0.39967
      H   31    0.10437      0.00000     0.39387    0.00176     0.39563
      H   32    0.10238      0.00000     0.39490    0.00272     0.39762
 =======================================================================
   * Total *   -0.00000     13.99500    38.81844    0.18656    53.00000

 Normal termination of Gaussian 16 at Thu Dec 10 11:30:23 2020.
