 Gaussian 16, Revision A.03,

 -----------------------------------------------------------
 # opt freq B3LYP/6-31G(d) empiricaldispersion=gd3bj scf=xqc
 -----------------------------------------------------------

 ------------------------------
 CID_131537272_JID_202_neutraal
 ------------------------------
 Symbolic Z-matrix:
 Charge =  0 Multiplicity = 1

 SCF Done:  E(RB3LYP) =  -452.443938161     A.U. after   15 cycles
 SCF Done:  E(RB3LYP) =  -452.448967971     A.U. after   12 cycles
 SCF Done:  E(RB3LYP) =  -452.449960350     A.U. after   12 cycles
 SCF Done:  E(RB3LYP) =  -452.450414326     A.U. after   12 cycles
 SCF Done:  E(RB3LYP) =  -452.450536805     A.U. after   11 cycles
 SCF Done:  E(RB3LYP) =  -452.450591433     A.U. after   11 cycles
 SCF Done:  E(RB3LYP) =  -452.450617658     A.U. after   10 cycles
 SCF Done:  E(RB3LYP) =  -452.450633885     A.U. after   10 cycles
 SCF Done:  E(RB3LYP) =  -452.450651147     A.U. after   10 cycles
 SCF Done:  E(RB3LYP) =  -452.450656879     A.U. after   10 cycles
 SCF Done:  E(RB3LYP) =  -452.450658776     A.U. after    8 cycles
 SCF Done:  E(RB3LYP) =  -452.450659599     A.U. after    8 cycles
 SCF Done:  E(RB3LYP) =  -452.450660628     A.U. after    9 cycles
 SCF Done:  E(RB3LYP) =  -452.450661081     A.U. after    8 cycles
 SCF Done:  E(RB3LYP) =  -452.450661320     A.U. after    8 cycles
 SCF Done:  E(RB3LYP) =  -452.450661365     A.U. after    7 cycles
 Optimization completed.
    -- Stationary point found.
 Normal termination of Gaussian 16 at Tue Dec  8 10:20:23 2020.

 --------------------------------------------------------------------
 #N Geom=AllCheck Guess=TCheck SCRF=Check GenChk RB3LYP/6-31G(d) Freq
 --------------------------------------------------------------------

 Structure from the checkpoint file:  "JID_202.chk"
 ------------------------------
 CID_131537272_JID_202_neutraal
 ------------------------------
 Charge =  0 Multiplicity = 1

 SCF Done:  E(RB3LYP) =  -452.450661365     A.U. after    1 cycles

  Exact polarizability: 108.327   7.196  80.649   2.319  -3.203  53.387
 Approx polarizability: 151.756  13.357 130.565  -1.210  -9.067  86.328

                      1                      2                      3
                      A                      A                      A
 Frequencies --     50.9411                88.0711                95.7658
 Red. masses --      5.1216                 1.1171                 7.2669
 Frc consts  --      0.0078                 0.0051                 0.0393
 IR Inten    --      5.9742                 0.3425                 7.5675

                      4                      5                      6
                      A                      A                      A
 Frequencies --    170.6195               217.5502               252.7890
 Red. masses --      2.7985                 3.3237                 1.6964
 Frc consts  --      0.0480                 0.0927                 0.0639
 IR Inten    --      8.2889                 7.5859                32.2582

                      7                      8                      9
                      A                      A                      A
 Frequencies --    263.3170               304.2306               354.0728
 Red. masses --      1.7041                 2.7801                 5.8526
 Frc consts  --      0.0696                 0.1516                 0.4323
 IR Inten    --     12.5143                 1.0916                10.9568

                     10                     11                     12
                      A                      A                      A
 Frequencies --    370.1139               465.1423               501.5535
 Red. masses --      3.2854                 7.9537                 2.9927
 Frc consts  --      0.2652                 1.0139                 0.4436
 IR Inten    --      0.7034                 2.5370                 9.5492

                     13                     14                     15
                      A                      A                      A
 Frequencies --    607.2568               652.4528               679.9903
 Red. masses --      5.6908                 5.2848                 2.7057
 Frc consts  --      1.2364                 1.3255                 0.7371
 IR Inten    --      8.4356                37.0637                49.9056

                     16                     17                     18
                      A                      A                      A
 Frequencies --    732.9492               756.9341               784.4751
 Red. masses --      2.5562                 1.6156                 2.2427
 Frc consts  --      0.8091                 0.5454                 0.8132
 IR Inten    --      8.3171                30.2528               218.5405

                     19                     20                     21
                      A                      A                      A
 Frequencies --    826.4385               936.1090               945.7288
 Red. masses --      3.2507                 2.5034                 2.8919
 Frc consts  --      1.3081                 1.2925                 1.5240
 IR Inten    --     29.5073                 2.6174                 3.6418

                     22                     23                     24
                      A                      A                      A
 Frequencies --   1024.2051              1068.2689              1146.0461
 Red. masses --      3.1712                 1.9221                 1.7414
 Frc consts  --      1.9600                 1.2924                 1.3476
 IR Inten    --     11.9335                 4.6110                 3.8148

                     25                     26                     27
                      A                      A                      A
 Frequencies --   1157.2415              1185.3202              1202.0889
 Red. masses --      1.3584                 2.3897                 1.3505
 Frc consts  --      1.0718                 1.9782                 1.1498
 IR Inten    --      9.2420                 1.0930                 3.0049

                     28                     29                     30
                      A                      A                      A
 Frequencies --   1265.9158              1334.5953              1345.8741
 Red. masses --      1.3959                 4.3166                 1.5568
 Frc consts  --      1.3180                 4.5299                 1.6615
 IR Inten    --      1.4022                10.8790                11.4496

                     31                     32                     33
                      A                      A                      A
 Frequencies --   1449.0864              1479.1650              1487.6415
 Red. masses --      2.3836                 1.2446                 1.4287
 Frc consts  --      2.9490                 1.6044                 1.8629
 IR Inten    --     26.7084                 4.6412                10.5996

                     34                     35                     36
                      A                      A                      A
 Frequencies --   1515.3389              1522.3763              1541.3975
 Red. masses --      1.0806                 1.4510                 4.9162
 Frc consts  --      1.4620                 1.9813                 6.8819
 IR Inten    --     15.0992                14.0465                78.8962

                     37                     38                     39
                      A                      A                      A
 Frequencies --   1550.6862              1620.3276              1683.9870
 Red. masses --      2.1697                 4.2616                 1.2783
 Frc consts  --      3.0739                 6.5922                 2.1357
 IR Inten    --     41.9690                93.9493               113.5644

                     40                     41                     42
                      A                      A                      A
 Frequencies --   2372.5717              3044.8276              3062.9643
 Red. masses --     12.5944                 1.0676                 1.0363
 Frc consts  --     41.7703                 5.8318                 5.7283
 IR Inten    --      6.1293                 6.1147                39.4333

                     43                     44                     45
                      A                      A                      A
 Frequencies --   3110.0424              3125.7268              3181.6752
 Red. masses --      1.0939                 1.1041                 1.1016
 Frc consts  --      6.2337                 6.3558                 6.5706
 IR Inten    --      0.9251                16.5486                 4.5373

                     46                     47                     48
                      A                      A                      A
 Frequencies --   3270.7091              3527.6799              3625.4732
 Red. masses --      1.0974                 1.0481                 1.0964
 Frc consts  --      6.9169                 7.6851                 8.4911
 IR Inten    --      1.7559                 8.0131                10.5088

 - Thermochemistry -
 -------------------
 Temperature   298.150 Kelvin.  Pressure   1.00000 Atm.
 Atom     1 has atomic number  6 and mass  12.00000

 Molecular mass:   136.07490 amu.
 Principal axes and moments of inertia in atomic units:
                           1         2         3
     Eigenvalues --   624.486282096.936892462.06517
           X            0.99962   0.01750   0.02111
           Y           -0.01736   0.99983  -0.00663
           Z           -0.02122   0.00626   0.99976
 This molecule is an asymmetric top.
 Rotational symmetry number  1.
 Warning -- assumption of classical behavior for rotation
           may cause significant error
 Rotational temperatures (Kelvin)      0.13870     0.04130     0.03518
 Rotational constants (GHZ):           2.88996     0.86066     0.73302
 Zero-point vibrational energy     376570.9 (Joules/Mol)
                                   90.00260 (Kcal/Mol)
 Warning -- explicit consideration of  13 degrees of freedom as
           vibrations may cause significant error
 Vibrational temperatures:     73.29   126.71   137.79   245.48   313.01
          (Kelvin)            363.71   378.85   437.72   509.43   532.51
                              669.24   721.62   873.71   938.73   978.35
                             1054.55  1089.06  1128.68  1189.06  1346.85
                             1360.69  1473.60  1537.00  1648.90  1665.01
                             1705.41  1729.54  1821.37  1920.18  1936.41
                             2084.91  2128.19  2140.38  2180.23  2190.36
                             2217.73  2231.09  2331.29  2422.88  3413.60
                             4380.83  4406.92  4474.66  4497.22  4577.72
                             4705.82  5075.54  5216.25

 Zero-point correction=                           0.143428 (Hartree/Particle)
 Thermal correction to Energy=                    0.153329
 Thermal correction to Enthalpy=                  0.154273
 Thermal correction to Gibbs Free Energy=         0.107801
 Sum of electronic and zero-point Energies=           -452.307233
 Sum of electronic and thermal Energies=              -452.297333
 Sum of electronic and thermal Enthalpies=            -452.296388
 Sum of electronic and thermal Free Energies=         -452.342860

                     E (Thermal)             CV                S
                      KCal/Mol        Cal/Mol-Kelvin    Cal/Mol-Kelvin
 Total                   96.215             35.444             97.808
 Electronic               0.000              0.000              0.000
 Translational            0.889              2.981             40.636
 Rotational               0.889              2.981             29.557
 Vibrational             94.438             29.482             27.615
 Vibration     1          0.595              1.977              4.781
 Vibration     2          0.601              1.958              3.702
 Vibration     3          0.603              1.952              3.539
 Vibration     4          0.626              1.879              2.429
 Vibration     5          0.646              1.814              1.979
 Vibration     6          0.664              1.758              1.711
 Vibration     7          0.670              1.740              1.640
 Vibration     8          0.695              1.666              1.394
 Vibration     9          0.730              1.567              1.148
 Vibration    10          0.742              1.534              1.079
 Vibration    11          0.823              1.327              0.751
 Vibration    12          0.857              1.247              0.654
 Vibration    13          0.966              1.016              0.437

 Optimization completed.
    -- Stationary point found.
 Normal termination of Gaussian 16 at Tue Dec  8 10:22:59 2020.

 ----------------------------------------------------------------------
 # B3LYP/6-311++G(d,p) empiricaldispersion=gd3bj scf=xqc pop=npa geom=c
 heck
 ----------------------------------------------------------------------

 --------------------------------------
 CID_131537272_JID_202_Energie_neutraal
 --------------------------------------
 Structure from the checkpoint file:  "JID_202.chk"
 Charge =  0 Multiplicity = 1

 SCF Done:  E(RB3LYP) =  -452.582313542     A.U. after   14 cycles
 Normal termination of Gaussian 16 at Tue Dec  8 10:23:50 2020.

 ----------------------------------------------------------------------
 # B3LYP/6-311++G(d,p) empiricaldispersion=gd3bj scf=xqc pop=npa geom=c
 heck
 ----------------------------------------------------------------------

 ------------------------------------
 CID_131537272_JID_202_Energie_kation
 ------------------------------------
 Structure from the checkpoint file:  "JID_202.chk"
 Charge =  1 Multiplicity = 2

 SCF Done:  E(UB3LYP) =  -452.285355717     A.U. after   20 cycles
 Normal termination of Gaussian 16 at Tue Dec  8 10:25:40 2020.
 Gaussian 16:  ES64L-G16RevA.03 25-Dec-2016

 ----------------------------------------------------------------------
 # B3LYP/6-311++G(d,p) empiricaldispersion=gd3bj scf=xqc pop=npa geom=c
 heck
 ----------------------------------------------------------------------

 -----------------------------------
 CID_131537272_JID_202_Energie_anion
 -----------------------------------
 Structure from the checkpoint file:  "JID_202.chk"
 Charge = -1 Multiplicity = 2

                         Standard orientation:
 ---------------------------------------------------------------------
 Center     Atomic      Atomic             Coordinates (Angstroms)
 Number     Number       Type             X           Y           Z
 ---------------------------------------------------------------------
      1          6           0        0.736596    1.991681    0.221898
      2          7           0       -0.138448    0.837366    0.229679
      3          6           0        0.187711   -0.471619    0.399160
      4          6           0       -0.963508   -1.208260    0.187144
      5          6           0       -1.951829   -0.239992   -0.123654
      6          7           0       -1.448887    0.994524   -0.116063
      7          7           0       -3.313293   -0.456397   -0.344325
      8          6           0        1.570713   -0.930080    0.766876
      9          6           0        2.572516   -0.597085   -0.256354
     10          7           0        3.345440   -0.298265   -1.068446
     11          1           0        1.284520    2.074484   -0.723111
     12          1           0        1.456757    1.925745    1.042678
     13          1           0        0.111636    2.873752    0.361663
     14          1           0       -1.079165   -2.279008    0.273545
     15          1           0       -3.758497    0.369043   -0.732255
     16          1           0       -3.498885   -1.264794   -0.927547
     17          1           0        1.897751   -0.492291    1.719964
     18          1           0        1.559003   -2.015385    0.908730
 ---------------------------------------------------------------------

 SCF Done:  E(UB3LYP) =  -452.571791906     A.U. after   28 cycles

 The electronic state is 2-A.
 Alpha  occ. eigenvalues --  -14.28167 -14.21480 -14.21375 -14.21151 -10.12459
 Alpha  occ. eigenvalues --  -10.12008 -10.11798 -10.11650 -10.10984 -10.05794
 Alpha  occ. eigenvalues --   -0.94443  -0.81481  -0.81037  -0.72964  -0.71177
 Alpha  occ. eigenvalues --   -0.64475  -0.59032  -0.50013  -0.47266  -0.43615
 Alpha  occ. eigenvalues --   -0.40818  -0.39040  -0.37125  -0.36775  -0.35152
 Alpha  occ. eigenvalues --   -0.33086  -0.30755  -0.30310  -0.29670  -0.27165
 Alpha  occ. eigenvalues --   -0.23711  -0.23342  -0.21876  -0.19271  -0.14450
 Alpha  occ. eigenvalues --   -0.10884   0.04441
 Alpha virt. eigenvalues --    0.06443   0.07605   0.09271   0.09867   0.10346
 Alpha virt. eigenvalues --    0.10733   0.11963   0.12508   0.12800   0.13276
 Alpha virt. eigenvalues --    0.13853   0.14314   0.15244   0.16314   0.17110

  Beta  occ. eigenvalues --  -14.28161 -14.21464 -14.21357 -14.21109 -10.12377
  Beta  occ. eigenvalues --  -10.12006 -10.11799 -10.11647 -10.10950 -10.05765
  Beta  occ. eigenvalues --   -0.94427  -0.81436  -0.80993  -0.72911  -0.71129
  Beta  occ. eigenvalues --   -0.64391  -0.58973  -0.49961  -0.47220  -0.43554
  Beta  occ. eigenvalues --   -0.40713  -0.38968  -0.37049  -0.36718  -0.35097
  Beta  occ. eigenvalues --   -0.33028  -0.30713  -0.30269  -0.29628  -0.27143
  Beta  occ. eigenvalues --   -0.23678  -0.23286  -0.21838  -0.19228  -0.14410
  Beta  occ. eigenvalues --   -0.10843
  Beta virt. eigenvalues --    0.07178   0.07846   0.08578   0.10053   0.10549
  Beta virt. eigenvalues --    0.10645   0.10943   0.12355   0.12977   0.13230
  Beta virt. eigenvalues --    0.13522   0.14091   0.14457   0.15372   0.16652

 Mulliken charges and spin densities:
               1          2
     1  C    0.230256  -0.587959
     2  N    0.106787   0.103714
     3  C   -1.321084   1.310478
     4  C   -0.755951   0.896089
     5  C    1.050063  -1.356489
     6  N   -0.308366   0.056374
     7  N   -0.433605   0.097745
     8  C    2.798506  -3.249728
     9  C    0.836600  -0.776015
    10  N   -0.400130   0.065868
    11  H    0.008617   0.178026
    12  H   -0.205831   0.377655
    13  H    0.030282   0.120184
    14  H   -1.102187   1.295106
    15  H    0.029135   0.212727
    16  H   -0.284348   0.534301
    17  H   -0.795622   1.033465
    18  H   -0.483122   0.688458
 Sum of Mulliken charges =  -1.00000   1.00000

 Dipole moment (field-independent basis, Debye):
    X=             -1.0470    Y=              3.8131    Z=             -1.5196  Tot=              4.2362
 Quadrupole moment (field-independent basis, Debye-Ang):
   XX=           -120.0613   YY=            -93.7266   ZZ=            -91.8254
   XY=             -3.3566   XZ=             -3.3253   YZ=              0.9752

 Summary of Natural Population Analysis:

                                       Natural Population
                Natural  -----------------------------------------------
    Atom  No    Charge         Core      Valence    Rydberg      Total
 -----------------------------------------------------------------------
      C    1   -0.17642      0.99964     2.16850    0.00829     3.17642
      N    2   -0.11298      0.99962     2.60001    0.01336     3.61298
      C    3    0.09463      0.99951     1.89218    0.01368     2.90537
      C    4   -0.16813      0.99945     2.15928    0.00940     3.16813
      C    5    0.16848      0.99958     1.81647    0.01547     2.83152
      N    6   -0.18508      0.99969     2.67394    0.01145     3.68508
      N    7   -0.40405      0.99972     2.89362    0.01072     3.90405
      C    8   -0.26181      0.99952     2.25093    0.01136     3.26181
      C    9    0.16915      0.99965     1.81539    0.01581     2.83085
      N   10   -0.18799      0.99979     2.67624    0.01196     3.68799
      H   11    0.09977      0.00000     0.39912    0.00111     0.40023
      H   12    0.10251      0.00000     0.39579    0.00170     0.39749
      H   13    0.10717      0.00000     0.39148    0.00135     0.39283
      H   14    0.11273      0.00000     0.38519    0.00208     0.38727
      H   15    0.18553      0.00000     0.31242    0.00205     0.31447
      H   16    0.18718      0.00000     0.30888    0.00394     0.31282
      H   17    0.13503      0.00000     0.35565    0.00932     0.36497
      H   18    0.13428      0.00000     0.36230    0.00342     0.36572
 =======================================================================
   * Total *    0.00000      9.99614    25.85739    0.14647    36.00000

 Normal termination of Gaussian 16 at Tue Dec  8 10:28:13 2020.
