 Gaussian 16, Revision A.03,

 -----------------------------------------------------------
 # opt freq B3LYP/6-31G(d) empiricaldispersion=gd3bj scf=xqc
 -----------------------------------------------------------

 -------------------------------
 CID_103024011_JID_7156_neutraal
 -------------------------------
 Symbolic Z-matrix:
 Charge =  0 Multiplicity = 1

 SCF Done:  E(RB3LYP) =  -747.508249059     A.U. after   15 cycles
 SCF Done:  E(RB3LYP) =  -747.516176023     A.U. after   13 cycles
 SCF Done:  E(RB3LYP) =  -747.516482398     A.U. after   12 cycles
 SCF Done:  E(RB3LYP) =  -747.516899452     A.U. after   13 cycles
 SCF Done:  E(RB3LYP) =  -747.516984620     A.U. after   11 cycles
 SCF Done:  E(RB3LYP) =  -747.517191397     A.U. after   11 cycles
 SCF Done:  E(RB3LYP) =  -747.517327687     A.U. after   11 cycles
 SCF Done:  E(RB3LYP) =  -747.517457801     A.U. after   12 cycles
 SCF Done:  E(RB3LYP) =  -747.517475719     A.U. after   11 cycles
 SCF Done:  E(RB3LYP) =  -747.517565333     A.U. after   10 cycles
 SCF Done:  E(RB3LYP) =  -747.518513487     A.U. after   11 cycles
 SCF Done:  E(RB3LYP) =  -747.518548707     A.U. after   11 cycles
 SCF Done:  E(RB3LYP) =  -747.518535960     A.U. after   10 cycles
 SCF Done:  E(RB3LYP) =  -747.518550118     A.U. after   10 cycles
 SCF Done:  E(RB3LYP) =  -747.518550325     A.U. after    7 cycles
 Optimization completed.
    -- Stationary point found.
 Normal termination of Gaussian 16 at Sun Dec 13 20:44:02 2020.

 --------------------------------------------------------------------
 #N Geom=AllCheck Guess=TCheck SCRF=Check GenChk RB3LYP/6-31G(d) Freq
 --------------------------------------------------------------------

 Structure from the checkpoint file:  "JID_7156.chk"
 -------------------------------
 CID_103024011_JID_7156_neutraal
 -------------------------------
 Charge =  0 Multiplicity = 1

 SCF Done:  E(RB3LYP) =  -747.518550325     A.U. after    1 cycles

  Exact polarizability: 148.251  15.373 158.516   0.087   0.932 134.414
 Approx polarizability: 191.000  27.306 233.318  -2.807   8.889 226.338

                      1                      2                      3
                      A                      A                      A
 Frequencies --     23.9744                28.5019                44.3603
 Red. masses --      4.1708                 3.7918                 4.3582
 Frc consts  --      0.0014                 0.0018                 0.0051
 IR Inten    --      0.3429                 0.2436                 3.0062

                      4                      5                      6
                      A                      A                      A
 Frequencies --     48.4227                57.0846                75.0644
 Red. masses --      1.1281                 4.7875                 4.3976
 Frc consts  --      0.0016                 0.0092                 0.0146
 IR Inten    --      0.6696                 0.2484                 1.3125

                      7                      8                      9
                      A                      A                      A
 Frequencies --     99.2509               116.7818               151.8715
 Red. masses --      4.0920                 2.2232                 2.5953
 Frc consts  --      0.0237                 0.0179                 0.0353
 IR Inten    --      0.7084                 0.8801                 0.9247

                     10                     11                     12
                      A                      A                      A
 Frequencies --    163.5921               178.6833               215.7106
 Red. masses --      2.5204                 3.5124                 1.3927
 Frc consts  --      0.0397                 0.0661                 0.0382
 IR Inten    --      7.9430                 0.5184                18.6156

                     13                     14                     15
                      A                      A                      A
 Frequencies --    219.5261               255.8078               294.1032
 Red. masses --      4.3827                 1.9086                 2.1935
 Frc consts  --      0.1244                 0.0736                 0.1118
 IR Inten    --      6.6406                24.7194                 3.4531

                     16                     17                     18
                      A                      A                      A
 Frequencies --    298.9157               340.6225               357.7092
 Red. masses --      2.7789                 2.9496                 1.9477
 Frc consts  --      0.1463                 0.2016                 0.1468
 IR Inten    --      3.4390                 1.0111                 2.2454

                     19                     20                     21
                      A                      A                      A
 Frequencies --    398.8600               412.3724               414.2505
 Red. masses --      3.4528                 3.7832                 2.6035
 Frc consts  --      0.3236                 0.3790                 0.2632
 IR Inten    --      2.5501                 1.5598                 3.1915

                     22                     23                     24
                      A                      A                      A
 Frequencies --    485.7777               510.9345               600.2586
 Red. masses --      2.4410                 3.0017                 3.7868
 Frc consts  --      0.3394                 0.4617                 0.8039
 IR Inten    --      2.1697                 9.1489                 0.9709

                     25                     26                     27
                      A                      A                      A
 Frequencies --    635.7794               653.3560               684.5113
 Red. masses --      4.3687                 3.4446                 2.0332
 Frc consts  --      1.0404                 0.8663                 0.5613
 IR Inten    --      3.9360                 6.5872                 2.7424

                     28                     29                     30
                      A                      A                      A
 Frequencies --    698.4923               728.1859               749.0057
 Red. masses --      2.2982                 2.7585                 3.3116
 Frc consts  --      0.6606                 0.8618                 1.0946
 IR Inten    --     13.3941                10.0385                 3.2680

                     31                     32                     33
                      A                      A                      A
 Frequencies --    781.1258               785.0993               809.7371
 Red. masses --      1.9714                 1.6435                 1.3129
 Frc consts  --      0.7087                 0.5969                 0.5072
 IR Inten    --     12.7854                 6.7797                 6.0314

                     34                     35                     36
                      A                      A                      A
 Frequencies --    840.8813               850.0931               869.8834
 Red. masses --      1.7585                 1.2731                 1.7643
 Frc consts  --      0.7326                 0.5421                 0.7866
 IR Inten    --      1.1099                80.9744                10.1077

                     37                     38                     39
                      A                      A                      A
 Frequencies --    877.0938               907.9539               938.6624
 Red. masses --      1.5097                 2.2008                 2.0218
 Frc consts  --      0.6843                 1.0689                 1.0495
 IR Inten    --     21.0633                 5.8909                23.6716

                     40                     41                     42
                      A                      A                      A
 Frequencies --    961.4189               967.0681               988.6187
 Red. masses --      2.4178                 2.5393                 2.1604
 Frc consts  --      1.3168                 1.3992                 1.2441
 IR Inten    --      1.0367                 8.1692                 2.6797

                     43                     44                     45
                      A                      A                      A
 Frequencies --   1001.9284              1010.4207              1021.8275
 Red. masses --      2.6512                 3.6603                 2.0155
 Frc consts  --      1.5681                 2.2018                 1.2399
 IR Inten    --      5.6440                25.1632                 7.4647

                     46                     47                     48
                      A                      A                      A
 Frequencies --   1053.1737              1062.8876              1075.2100
 Red. masses --      3.3729                 1.9852                 1.3121
 Frc consts  --      2.2042                 1.3214                 0.8937
 IR Inten    --      4.6430                 1.8685                 2.5918

                     49                     50                     51
                      A                      A                      A
 Frequencies --   1080.2158              1092.8024              1131.5250
 Red. masses --      1.5584                 2.0448                 1.8728
 Frc consts  --      1.0714                 1.4388                 1.4128
 IR Inten    --      7.0903                 6.1183                10.1270

                     52                     53                     54
                      A                      A                      A
 Frequencies --   1156.5547              1163.2892              1192.0076
 Red. masses --      1.3742                 1.5914                 1.7909
 Frc consts  --      1.0830                 1.2688                 1.4992
 IR Inten    --      8.7426                10.5075                19.0911

                     55                     56                     57
                      A                      A                      A
 Frequencies --   1196.1359              1222.0463              1227.0116
 Red. masses --      1.6921                 1.6291                 1.3478
 Frc consts  --      1.4264                 1.4334                 1.1956
 IR Inten    --     21.3942                 0.0864                 0.7918

                     58                     59                     60
                      A                      A                      A
 Frequencies --   1232.6209              1243.6565              1252.8886
 Red. masses --      1.5572                 1.5012                 1.5166
 Frc consts  --      1.3940                 1.3680                 1.4027
 IR Inten    --      1.3134                11.5811                16.3267

                     61                     62                     63
                      A                      A                      A
 Frequencies --   1262.0951              1276.3169              1293.6679
 Red. masses --      1.3583                 1.2525                 1.4004
 Frc consts  --      1.2747                 1.2021                 1.3809
 IR Inten    --      5.0252                 0.4802                 0.5301

                     64                     65                     66
                      A                      A                      A
 Frequencies --   1310.8762              1338.9960              1346.7879
 Red. masses --      1.5030                 1.5493                 2.7244
 Frc consts  --      1.5217                 1.6367                 2.9115
 IR Inten    --      1.2736                 2.2313                15.8233

                     67                     68                     69
                      A                      A                      A
 Frequencies --   1352.4352              1360.4135              1378.3829
 Red. masses --      1.4900                 1.5520                 1.6244
 Frc consts  --      1.6057                 1.6924                 1.8184
 IR Inten    --      3.7091                 6.2311                10.2101

                     70                     71                     72
                      A                      A                      A
 Frequencies --   1380.9913              1414.7875              1437.5687
 Red. masses --      1.5988                 3.8851                 3.4021
 Frc consts  --      1.7965                 4.5818                 4.1424
 IR Inten    --     21.5345                 0.6478                18.8754

                     73                     74                     75
                      A                      A                      A
 Frequencies --   1444.9331              1468.6530              1474.0941
 Red. masses --      1.4339                 1.7198                 1.1016
 Frc consts  --      1.7638                 2.1856                 1.4104
 IR Inten    --     12.8237                12.7499                 8.3491

                     76                     77                     78
                      A                      A                      A
 Frequencies --   1491.3450              1506.2088              1509.8137
 Red. masses --      1.9257                 1.0914                 1.0655
 Frc consts  --      2.5234                 1.4588                 1.4310
 IR Inten    --     12.4990                 2.1903                 8.7264

                     79                     80                     81
                      A                      A                      A
 Frequencies --   1510.4612              1514.0982              1521.3986
 Red. masses --      1.0917                 1.0860                 1.1241
 Frc consts  --      1.4675                 1.4668                 1.5331
 IR Inten    --      1.2090                 3.6068                 7.0858

                     82                     83                     84
                      A                      A                      A
 Frequencies --   1536.2103              1543.5964              1545.4199
 Red. masses --      1.1106                 1.1014                 1.1709
 Frc consts  --      1.5442                 1.5462                 1.6477
 IR Inten    --      6.4828                 2.0417                 6.2681

                     85                     86                     87
                      A                      A                      A
 Frequencies --   1618.8382              1694.9136              1798.7205
 Red. masses --      5.0760                 1.0896                10.8000
 Frc consts  --      7.8375                 1.8442                20.5874
 IR Inten    --      8.9636                35.9917               143.0747

                     88                     89                     90
                      A                      A                      A
 Frequencies --   2942.5853              3028.6331              3057.4370
 Red. masses --      1.0738                 1.0690                 1.0597
 Frc consts  --      5.4783                 5.7771                 5.8365
 IR Inten    --     79.3461                 5.4606                64.9586

                     91                     92                     93
                      A                      A                      A
 Frequencies --   3058.6219              3059.7078              3063.3241
 Red. masses --      1.0633                 1.0631                 1.0408
 Frc consts  --      5.8605                 5.8636                 5.7546
 IR Inten    --     39.5077                 2.7499                34.9089

                     94                     95                     96
                      A                      A                      A
 Frequencies --   3064.3105              3071.7047              3077.3626
 Red. masses --      1.0799                 1.0663                 1.0604
 Frc consts  --      5.9744                 5.9276                 5.9168
 IR Inten    --     40.9886                39.6816                42.9396

                     97                     98                     99
                      A                      A                      A
 Frequencies --   3102.6796              3106.8263              3112.9657
 Red. masses --      1.1072                 1.1025                 1.1062
 Frc consts  --      6.2798                 6.2697                 6.3160
 IR Inten    --     11.9268                 6.7760                 4.0017

                    100                    101                    102
                      A                      A                      A
 Frequencies --   3127.1296              3130.6315              3136.1638
 Red. masses --      1.0919                 1.1066                 1.0984
 Frc consts  --      6.2912                 6.3900                 6.3652
 IR Inten    --      5.8795                63.0834                16.6412

                    103                    104                    105
                      A                      A                      A
 Frequencies --   3149.6662              3170.7430              3254.1602
 Red. masses --      1.0963                 1.1055                 1.0961
 Frc consts  --      6.4078                 6.5481                 6.8391
 IR Inten    --     19.3660                 7.3184                 2.2981

                    106                    107                    108
                      A                      A                      A
 Frequencies --   3264.6208              3475.3003              3560.6476
 Red. masses --      1.0974                 1.0497                 1.0923
 Frc consts  --      6.8911                 7.4699                 8.1595
 IR Inten    --      0.8098                 1.3593                 0.0412

 - Thermochemistry -
 -------------------
 Temperature   298.150 Kelvin.  Pressure   1.00000 Atm.
 Atom     1 has atomic number  6 and mass  12.00000

 Molecular mass:   235.16846 amu.
 Principal axes and moments of inertia in atomic units:
                           1         2         3
     Eigenvalues --  2721.870255389.724816914.24100
           X            1.00000  -0.00004   0.00271
           Y            0.00008   0.99989  -0.01490
           Z           -0.00270   0.01491   0.99989
 This molecule is an asymmetric top.
 Rotational symmetry number  1.
 Warning -- assumption of classical behavior for rotation
           may cause significant error
 Rotational temperatures (Kelvin)      0.03182     0.01607     0.01253
 Rotational constants (GHZ):           0.66305     0.33485     0.26102
 Zero-point vibrational energy     874965.8 (Joules/Mol)
                                  209.12183 (Kcal/Mol)
 Warning -- explicit consideration of  24 degrees of freedom as
           vibrations may cause significant error
 Vibrational temperatures:     34.49    41.01    63.82    69.67    82.13
          (Kelvin)            108.00   142.80   168.02   218.51   235.37
                              257.09   310.36   315.85   368.05   423.15
                              430.07   490.08   514.66   573.87   593.31
                              596.01   698.93   735.12   863.64   914.74
                              940.03   984.86  1004.97  1047.70  1077.65
                             1123.87  1129.58  1165.03  1209.84  1223.09
                             1251.57  1261.94  1306.34  1350.53  1383.27
                             1391.40  1422.40  1441.55  1453.77  1470.18
                             1515.28  1529.26  1546.99  1554.19  1572.30
                             1628.01  1664.02  1673.71  1715.03  1720.97
                             1758.25  1765.40  1773.47  1789.34  1802.63
                             1815.87  1836.34  1861.30  1886.06  1926.52
                             1937.73  1945.85  1957.33  1983.19  1986.94
                             2035.56  2068.34  2078.94  2113.06  2120.89
                             2145.71  2167.10  2172.29  2173.22  2178.45
                             2188.95  2210.26  2220.89  2223.51  2329.15
                             2438.60  2587.96  4233.72  4357.53  4398.97
                             4400.67  4402.24  4407.44  4408.86  4419.50
                             4427.64  4464.06  4470.03  4478.86  4499.24
                             4504.28  4512.24  4531.67  4561.99  4682.01
                             4697.06  5000.18  5122.98

 Zero-point correction=                           0.333257 (Hartree/Particle)
 Thermal correction to Energy=                    0.351088
 Thermal correction to Enthalpy=                  0.352032
 Thermal correction to Gibbs Free Energy=         0.285148
 Sum of electronic and zero-point Energies=           -747.185293
 Sum of electronic and thermal Energies=              -747.167463
 Sum of electronic and thermal Enthalpies=            -747.166518
 Sum of electronic and thermal Free Energies=         -747.233402

                     E (Thermal)             CV                S
                      KCal/Mol        Cal/Mol-Kelvin    Cal/Mol-Kelvin
 Total                  220.311             65.845            140.768
 Electronic               0.000              0.000              0.000
 Translational            0.889              2.981             42.267
 Rotational               0.889              2.981             32.983
 Vibrational            218.533             59.883             65.518
 Vibration     1          0.593              1.985              6.274
 Vibration     2          0.593              1.984              5.931
 Vibration     3          0.595              1.980              5.054
 Vibration     4          0.595              1.978              4.881
 Vibration     5          0.596              1.975              4.556
 Vibration     6          0.599              1.966              4.016
 Vibration     7          0.604              1.950              3.469
 Vibration     8          0.608              1.935              3.153
 Vibration     9          0.619              1.901              2.649
 Vibration    10          0.623              1.887              2.508
 Vibration    11          0.629              1.869              2.342
 Vibration    12          0.645              1.817              1.995
 Vibration    13          0.647              1.811              1.963
 Vibration    14          0.666              1.753              1.690
 Vibration    15          0.689              1.685              1.450
 Vibration    16          0.692              1.676              1.423
 Vibration    17          0.720              1.594              1.209
 Vibration    18          0.733              1.559              1.132
 Vibration    19          0.765              1.473              0.967
 Vibration    20          0.776              1.443              0.918
 Vibration    21          0.778              1.439              0.912
 Vibration    22          0.842              1.282              0.695
 Vibration    23          0.866              1.226              0.631
 Vibration    24          0.958              1.031              0.449

                           ! Non-Optimized Parameters !
 Normal termination of Gaussian 16 at Sun Dec 13 20:59:57 2020.

 ----------------------------------------------------------------------
 # B3LYP/6-311++G(d,p) empiricaldispersion=gd3bj scf=xqc pop=npa geom=c
 heck
 ----------------------------------------------------------------------

 ---------------------------------------
 CID_103024011_JID_7156_Energie_neutraal
 ---------------------------------------
 Structure from the checkpoint file:  "JID_7156.chk"
 Charge =  0 Multiplicity = 1

 SCF Done:  E(RB3LYP) =  -747.731375817     A.U. after   15 cycles
 Normal termination of Gaussian 16 at Sun Dec 13 21:08:09 2020.

 ----------------------------------------------------------------------
 # B3LYP/6-311++G(d,p) empiricaldispersion=gd3bj scf=xqc pop=npa geom=c
 heck
 ----------------------------------------------------------------------

 -------------------------------------
 CID_103024011_JID_7156_Energie_kation
 -------------------------------------
 Structure from the checkpoint file:  "JID_7156.chk"
 Charge =  1 Multiplicity = 2

 SCF Done:  E(UB3LYP) =  -747.433063031     A.U. after   31 cycles
 Normal termination of Gaussian 16 at Sun Dec 13 21:32:11 2020.
 Gaussian 16:  ES64L-G16RevA.03 25-Dec-2016

 ----------------------------------------------------------------------
 # B3LYP/6-311++G(d,p) empiricaldispersion=gd3bj scf=xqc pop=npa geom=c
 heck
 ----------------------------------------------------------------------

 ------------------------------------
 CID_103024011_JID_7156_Energie_anion
 ------------------------------------
 Structure from the checkpoint file:  "JID_7156.chk"
 Charge = -1 Multiplicity = 2

                         Standard orientation:
 ---------------------------------------------------------------------
 Center     Atomic      Atomic             Coordinates (Angstroms)
 Number     Number       Type             X           Y           Z
 ---------------------------------------------------------------------
      1          6           0        3.834411    2.065925   -0.066241
      2          7           0        3.183215    0.772886   -0.099451
      3          6           0        2.607961    0.097549    0.933475
      4          6           0        2.045610   -1.054665    0.406973
      5          6           0        2.338587   -0.967975   -0.976636
      6          7           0        3.021795    0.137420   -1.280887
      7          6           0        1.234589   -2.101750    1.112420
      8          6           0       -0.276268   -1.763468    1.134246
      9          6           0       -0.817570   -1.710243   -0.294455
     10          8           0       -0.857114   -2.738779   -0.946634
     11          6           0       -1.182314   -0.377132   -0.930764
     12          6           0       -1.870858    0.687688   -0.070392
     13          6           0       -0.990613    1.517717    0.920873
     14          6           0       -1.611341    2.824692    0.366759
     15          6           0       -2.157693    2.020777   -0.838680
     16          6           0       -3.128119    0.148488    0.622941
     17          7           0       -4.048867   -0.453308   -0.342611
     18          1           0        4.690920    2.046301   -0.742509
     19          1           0        3.148329    2.859744   -0.381804
     20          1           0        4.176703    2.268375    0.951144
     21          1           0        2.648575    0.473218    1.946531
     22          1           0        2.076082   -1.674252   -1.753961
     23          1           0        1.355241   -3.067092    0.610332
     24          1           0        1.584058   -2.225687    2.143846
     25          1           0       -0.813864   -2.559978    1.661889
     26          1           0       -0.435313   -0.825373    1.668953
     27          1           0       -0.235330    0.040820   -1.304228
     28          1           0       -1.801697   -0.611281   -1.800187
     29          1           0       -1.133320    1.319048    1.989310
     30          1           0        0.075461    1.425307    0.692383
     31          1           0       -0.921774    3.643604    0.141718
     32          1           0       -2.407901    3.214486    1.007587
     33          1           0       -1.524669    2.117064   -1.726408
     34          1           0       -3.194803    2.210891   -1.138546
     35          1           0       -2.836156   -0.635103    1.333557
     36          1           0       -3.574202    0.961957    1.225416
     37          1           0       -4.844428   -0.863818    0.141130
     38          1           0       -4.426294    0.267387   -0.955547
 ---------------------------------------------------------------------

 SCF Done:  E(UB3LYP) =  -747.723479808     A.U. after   33 cycles
 SCF Done:  E(UB3LYP) =  -747.723479807     a.u. after    1 cycles

 The electronic state is 2-A.
 Alpha  occ. eigenvalues --  -19.01837 -14.30168 -14.23884 -14.20291 -10.16674
 Alpha  occ. eigenvalues --  -10.12086 -10.11346 -10.10128 -10.09743 -10.09566
 Alpha  occ. eigenvalues --  -10.09352 -10.08652 -10.08310 -10.07624 -10.07567
 Alpha  occ. eigenvalues --  -10.07387 -10.07326  -0.96133  -0.95069  -0.80093
 Alpha  occ. eigenvalues --   -0.75553  -0.75390  -0.72397  -0.68112  -0.65550
 Alpha  occ. eigenvalues --   -0.61385  -0.59158  -0.57483  -0.56039  -0.52045
 Alpha  occ. eigenvalues --   -0.49563  -0.48403  -0.44618  -0.43356  -0.42757
 Alpha  occ. eigenvalues --   -0.40964  -0.39523  -0.39125  -0.38185  -0.37380
 Alpha  occ. eigenvalues --   -0.36930  -0.35420  -0.34948  -0.33745  -0.33393
 Alpha  occ. eigenvalues --   -0.32232  -0.31882  -0.30705  -0.30482  -0.30130
 Alpha  occ. eigenvalues --   -0.29273  -0.28165  -0.27330  -0.26824  -0.25431
 Alpha  occ. eigenvalues --   -0.24410  -0.22846  -0.21254  -0.21049  -0.20502
 Alpha  occ. eigenvalues --   -0.16705  -0.15727  -0.15435  -0.14944   0.03687
 Alpha virt. eigenvalues --    0.05301   0.05644   0.07121   0.07369   0.07925
 Alpha virt. eigenvalues --    0.08056   0.08595   0.09402   0.09679   0.09990
 Alpha virt. eigenvalues --    0.10306   0.10784   0.11359   0.12054   0.12188

  Beta  occ. eigenvalues --  -19.01835 -14.30166 -14.23878 -14.20265 -10.16669
  Beta  occ. eigenvalues --  -10.12039 -10.11323 -10.10108 -10.09741 -10.09559
  Beta  occ. eigenvalues --  -10.09352 -10.08646 -10.08310 -10.07607 -10.07565
  Beta  occ. eigenvalues --  -10.07368 -10.07313  -0.96125  -0.95062  -0.80053
  Beta  occ. eigenvalues --   -0.75534  -0.75368  -0.72383  -0.68093  -0.65533
  Beta  occ. eigenvalues --   -0.61341  -0.59111  -0.57446  -0.56011  -0.51996
  Beta  occ. eigenvalues --   -0.49546  -0.48357  -0.44579  -0.43319  -0.42723
  Beta  occ. eigenvalues --   -0.40933  -0.39489  -0.39100  -0.38162  -0.37359
  Beta  occ. eigenvalues --   -0.36893  -0.35395  -0.34902  -0.33723  -0.33362
  Beta  occ. eigenvalues --   -0.32211  -0.31853  -0.30682  -0.30457  -0.30108
  Beta  occ. eigenvalues --   -0.29251  -0.28147  -0.27311  -0.26813  -0.25409
  Beta  occ. eigenvalues --   -0.24390  -0.22826  -0.21232  -0.21026  -0.20489
  Beta  occ. eigenvalues --   -0.16691  -0.15719  -0.15403  -0.14934
  Beta virt. eigenvalues --    0.05780   0.05952   0.06533   0.07583   0.07838
  Beta virt. eigenvalues --    0.08227   0.08527   0.09146   0.09503   0.09850
  Beta virt. eigenvalues --    0.10209   0.10787   0.11084   0.11602   0.12251

 Mulliken charges and spin densities:
               1          2
     1  C    1.021945  -1.315452
     2  N    0.219012  -0.049637
     3  C   -1.104057   0.723617
     4  C    1.276980  -0.618586
     5  C   -0.523466  -0.011790
     6  N   -0.268170   0.163982
     7  C    0.017137  -1.038911
     8  C   -0.045505   0.170611
     9  C   -0.485820   0.093498
    10  O   -0.203664   0.002354
    11  C   -0.306802   0.120763
    12  C    0.144282   0.718912
    13  C   -1.042871   0.560211
    14  C    1.488653  -1.926869
    15  C   -1.136487   0.827976
    16  C    1.029034  -1.908980
    17  N   -0.494454   0.178453
    18  H   -0.092449   0.256613
    19  H   -0.202333   0.382652
    20  H   -0.583342   0.745953
    21  H   -0.903062   1.103418
    22  H    0.165692   0.008361
    23  H    0.213705  -0.022457
    24  H   -0.007818   0.186250
    25  H    0.046300   0.172474
    26  H    0.062053   0.109718
    27  H    0.253359  -0.048631
    28  H    0.217178  -0.003074
    29  H   -0.417140   0.579252
    30  H    1.127868  -1.001049
    31  H   -0.178284   0.327013
    32  H   -0.013683   0.163441
    33  H    0.119837   0.022836
    34  H   -0.264028   0.394035
    35  H    0.141969   0.049187
    36  H   -0.371138   0.532694
    37  H    0.007931   0.232352
    38  H    0.091640   0.118812
 Sum of Mulliken charges =  -1.00000   1.00000

 Dipole moment (field-independent basis, Debye):
    X=             -0.4348    Y=             -3.0154    Z=             -2.3178  Tot=              3.8281
 Quadrupole moment (field-independent basis, Debye-Ang):
   XX=           -185.7972   YY=           -158.3083   ZZ=           -147.1517
   XY=            -10.1540   XZ=             -4.6789   YZ=            -11.6843

 Summary of Natural Population Analysis:

                                       Natural Population
                Natural  -----------------------------------------------
    Atom  No    Charge         Core      Valence    Rydberg      Total
 -----------------------------------------------------------------------
      C    1   -0.17154      0.99963     2.16360    0.00830     3.17154
      N    2   -0.10457      0.99967     2.59210    0.01280     3.60457
      C    3   -0.00447      0.99949     1.99294    0.01204     3.00447
      C    4   -0.07860      0.99952     2.06845    0.01063     3.07860
      C    5   -0.01628      0.99957     2.00287    0.01384     3.01628
      N    6   -0.15395      0.99973     2.64288    0.01135     3.65395
      C    7   -0.19229      0.99959     2.18378    0.00892     3.19229
      C    8   -0.23501      0.99957     2.22668    0.00876     3.23501
      C    9    0.30960      0.99966     1.66964    0.02111     2.69040
      O   10   -0.29157      0.99987     3.28482    0.00687     4.29157
      C   11   -0.24262      0.99952     2.23182    0.01128     3.24262
      C   12   -0.04039      0.99956     2.02621    0.01462     3.04039
      C   13   -0.19075      0.99959     2.18213    0.00903     3.19075
      C   14   -0.19061      0.99964     2.18262    0.00834     3.19061
      C   15   -0.18295      0.99960     2.17489    0.00846     3.18295
      C   16   -0.08725      0.99955     2.07584    0.01186     3.08725
      N   17   -0.42322      0.99977     2.91315    0.01030     3.92322
      H   18    0.10388      0.00000     0.39475    0.00138     0.39612
      H   19    0.09993      0.00000     0.39870    0.00137     0.40007
      H   20    0.10494      0.00000     0.39261    0.00245     0.39506
      H   21    0.10930      0.00000     0.38852    0.00219     0.39070
      H   22    0.10145      0.00000     0.39772    0.00083     0.39855
      H   23    0.10690      0.00000     0.39196    0.00114     0.39310
      H   24    0.10506      0.00000     0.39402    0.00092     0.39494
      H   25    0.10983      0.00000     0.38910    0.00108     0.39017
      H   26    0.10432      0.00000     0.39344    0.00225     0.39568
      H   27    0.11768      0.00000     0.38078    0.00154     0.38232
      H   28    0.11791      0.00000     0.38071    0.00138     0.38209
      H   29    0.09873      0.00000     0.39965    0.00162     0.40127
      H   30    0.10258      0.00000     0.39516    0.00226     0.39742
      H   31    0.09756      0.00000     0.40139    0.00105     0.40244
      H   32    0.09747      0.00000     0.40091    0.00162     0.40253
      H   33    0.09817      0.00000     0.40074    0.00110     0.40183
      H   34    0.09557      0.00000     0.40332    0.00112     0.40443
      H   35    0.09130      0.00000     0.40710    0.00160     0.40870
      H   36    0.08417      0.00000     0.41354    0.00229     0.41583
      H   37    0.17687      0.00000     0.32162    0.00150     0.32313
      H   38    0.17285      0.00000     0.32533    0.00182     0.32715
 =======================================================================
   * Total *    0.00000     16.99354    46.78544    0.22101    64.00000

 Normal termination of Gaussian 16 at Sun Dec 13 21:57:50 2020.
