 Gaussian 16, Revision A.03,

 -----------------------------------------------------------
 # opt freq B3LYP/6-31G(d) empiricaldispersion=gd3bj scf=xqc
 -----------------------------------------------------------

 -------------------------------
 CID_126556163_JID_4200_neutraal
 -------------------------------
 Symbolic Z-matrix:
 Charge =  0 Multiplicity = 1

 SCF Done:  E(RB3LYP) =  -581.269229786     A.U. after   13 cycles
 SCF Done:  E(RB3LYP) =  -581.275530292     A.U. after   11 cycles
 SCF Done:  E(RB3LYP) =  -581.275020459     A.U. after   11 cycles
 SCF Done:  E(RB3LYP) =  -581.276326802     A.U. after   10 cycles
 SCF Done:  E(RB3LYP) =  -581.276799260     A.U. after   10 cycles
 SCF Done:  E(RB3LYP) =  -581.276922566     A.U. after   10 cycles
 SCF Done:  E(RB3LYP) =  -581.276993824     A.U. after   10 cycles
 SCF Done:  E(RB3LYP) =  -581.277037152     A.U. after    9 cycles
 SCF Done:  E(RB3LYP) =  -581.277040431     A.U. after    8 cycles
 SCF Done:  E(RB3LYP) =  -581.277043512     A.U. after    7 cycles
 SCF Done:  E(RB3LYP) =  -581.277044353     A.U. after    7 cycles
 SCF Done:  E(RB3LYP) =  -581.277044550     A.U. after    7 cycles
 Optimization completed.
    -- Stationary point found.
 Normal termination of Gaussian 16 at Thu Dec 10 09:21:47 2020.

 --------------------------------------------------------------------
 #N Geom=AllCheck Guess=TCheck SCRF=Check GenChk RB3LYP/6-31G(d) Freq
 --------------------------------------------------------------------

 Structure from the checkpoint file:  "JID_4200.chk"
 -------------------------------
 CID_126556163_JID_4200_neutraal
 -------------------------------
 Charge =  0 Multiplicity = 1

 SCF Done:  E(RB3LYP) =  -581.277044550     A.U. after    1 cycles

  Exact polarizability: 153.535  -0.807 130.472  -1.820  -3.125 119.796
 Approx polarizability: 193.014   0.382 184.393  -5.060  -6.484 187.262

                      1                      2                      3
                      A                      A                      A
 Frequencies --     56.9769                98.8846               123.3620
 Red. masses --      2.7311                 2.9043                 2.7700
 Frc consts  --      0.0052                 0.0167                 0.0248
 IR Inten    --      0.0292                 0.0509                 0.3647

                      4                      5                      6
                      A                      A                      A
 Frequencies --    159.1781               199.4197               229.4061
 Red. masses --      2.5501                 1.2998                 1.8911
 Frc consts  --      0.0381                 0.0305                 0.0586
 IR Inten    --      0.5506                 0.3324                 0.4478

                      7                      8                      9
                      A                      A                      A
 Frequencies --    245.9015               268.8407               285.6840
 Red. masses --      1.8336                 2.7063                 2.0069
 Frc consts  --      0.0653                 0.1152                 0.0965
 IR Inten    --      1.7392                 1.0998                 1.1346

                     10                     11                     12
                      A                      A                      A
 Frequencies --    288.7401               304.1588               328.7527
 Red. masses --      1.7411                 1.2748                 2.0255
 Frc consts  --      0.0855                 0.0695                 0.1290
 IR Inten    --      1.8032                 0.1576                 0.4406

                     13                     14                     15
                      A                      A                      A
 Frequencies --    337.5804               349.5362               387.1721
 Red. masses --      2.5626                 2.2030                 2.4749
 Frc consts  --      0.1721                 0.1586                 0.2186
 IR Inten    --      1.2912                 0.9367                 1.1278

                     16                     17                     18
                      A                      A                      A
 Frequencies --    399.0875               426.9121               452.2234
 Red. masses --      2.4707                 2.4803                 2.1635
 Frc consts  --      0.2318                 0.2663                 0.2607
 IR Inten    --      0.2091                 0.2664                 2.2048

                     19                     20                     21
                      A                      A                      A
 Frequencies --    481.6646               504.9508               539.9561
 Red. masses --      2.3583                 1.9329                 2.2147
 Frc consts  --      0.3224                 0.2904                 0.3804
 IR Inten    --      1.7090                 3.5518                 9.7644

                     22                     23                     24
                      A                      A                      A
 Frequencies --    558.5108               611.4799               632.7645
 Red. masses --      2.1666                 2.2404                 2.5523
 Frc consts  --      0.3982                 0.4936                 0.6021
 IR Inten    --      2.9926                11.2666                11.0115

                     25                     26                     27
                      A                      A                      A
 Frequencies --    680.8590               707.1155               801.3258
 Red. masses --      2.9850                 2.3131                 2.4313
 Frc consts  --      0.8153                 0.6814                 0.9198
 IR Inten    --     16.8197                37.6465                31.2349

                     28                     29                     30
                      A                      A                      A
 Frequencies --    814.8427               844.9335               873.6943
 Red. masses --      2.4196                 1.9693                 2.0304
 Frc consts  --      0.9465                 0.8283                 0.9132
 IR Inten    --      7.2207                 2.0917                 4.9447

                     31                     32                     33
                      A                      A                      A
 Frequencies --    884.6985               894.4779               914.8454
 Red. masses --      2.0748                 1.6482                 1.7638
 Frc consts  --      0.9568                 0.7770                 0.8697
 IR Inten    --      1.9118                 0.4119                 0.4461

                     34                     35                     36
                      A                      A                      A
 Frequencies --    933.3111               943.6510               967.7853
 Red. masses --      1.7798                 1.9212                 2.0762
 Frc consts  --      0.9134                 1.0080                 1.1457
 IR Inten    --      1.2472                 0.3505                12.3514

                     37                     38                     39
                      A                      A                      A
 Frequencies --    968.9134               995.3091              1013.3453
 Red. masses --      1.3110                 2.2247                 1.8673
 Frc consts  --      0.7252                 1.2985                 1.1297
 IR Inten    --      2.9312                 1.6732                 5.2204

                     40                     41                     42
                      A                      A                      A
 Frequencies --   1047.2966              1050.9924              1056.8445
 Red. masses --      1.8116                 1.7981                 1.4815
 Frc consts  --      1.1707                 1.1702                 0.9750
 IR Inten    --     12.3482                10.9276                 3.3877

                     43                     44                     45
                      A                      A                      A
 Frequencies --   1070.3229              1089.5004              1093.2623
 Red. masses --      1.9959                 1.8364                 1.9709
 Frc consts  --      1.3471                 1.2843                 1.3879
 IR Inten    --     14.9681                 9.1819                 6.6054

                     46                     47                     48
                      A                      A                      A
 Frequencies --   1113.4999              1129.5233              1180.3049
 Red. masses --      2.3438                 2.5828                 2.9015
 Frc consts  --      1.7122                 1.9414                 2.3815
 IR Inten    --     10.5469                17.7086                30.0013

                     49                     50                     51
                      A                      A                      A
 Frequencies --   1199.8081              1204.7669              1235.8309
 Red. masses --      2.1704                 1.8501                 1.5481
 Frc consts  --      1.8408                 1.5822                 1.3931
 IR Inten    --      9.9931                10.9674                18.3764

                     52                     53                     54
                      A                      A                      A
 Frequencies --   1240.3104              1250.2543              1253.7342
 Red. masses --      1.9247                 1.2000                 2.4620
 Frc consts  --      1.7445                 1.1052                 2.2801
 IR Inten    --     21.9683                 1.1948                43.9835

                     55                     56                     57
                      A                      A                      A
 Frequencies --   1275.1040              1291.7412              1299.6642
 Red. masses --      2.1900                 1.3531                 1.5552
 Frc consts  --      2.0979                 1.3302                 1.5477
 IR Inten    --      7.4878                11.0117                14.7432

                     58                     59                     60
                      A                      A                      A
 Frequencies --   1310.3241              1324.8290              1345.7919
 Red. masses --      1.4008                 1.2459                 1.2976
 Frc consts  --      1.4171                 1.2884                 1.3847
 IR Inten    --      2.9419                 2.9227                 1.1127

                     61                     62                     63
                      A                      A                      A
 Frequencies --   1372.6671              1380.7629              1393.6057
 Red. masses --      1.2738                 1.3360                 1.3432
 Frc consts  --      1.4141                 1.5007                 1.5369
 IR Inten    --      5.8347                 9.4833                 1.8480

                     64                     65                     66
                      A                      A                      A
 Frequencies --   1395.8766              1400.4651              1417.1988
 Red. masses --      1.4386                 1.2965                 1.3248
 Frc consts  --      1.6515                 1.4982                 1.5677
 IR Inten    --      6.4772                10.2602                 4.0508

                     67                     68                     69
                      A                      A                      A
 Frequencies --   1421.4897              1423.2697              1426.8186
 Red. masses --      1.2489                 1.2430                 1.2525
 Frc consts  --      1.4869                 1.4835                 1.5023
 IR Inten    --      6.1104                 4.2304                 1.4577

                     70                     71                     72
                      A                      A                      A
 Frequencies --   1438.1959              1454.3665              1502.8548
 Red. masses --      1.3915                 1.2161                 1.1086
 Frc consts  --      1.6958                 1.5155                 1.4753
 IR Inten    --      5.8930                14.4799                10.5203

                     73                     74                     75
                      A                      A                      A
 Frequencies --   1505.6109              1514.2393              1515.3870
 Red. masses --      1.0659                 1.1083                 1.0839
 Frc consts  --      1.4236                 1.4972                 1.4666
 IR Inten    --      1.1432                 4.4174                 2.7890

                     76                     77                     78
                      A                      A                      A
 Frequencies --   1519.1429              1523.3956              1525.4766
 Red. masses --      1.0844                 1.0967                 1.1092
 Frc consts  --      1.4745                 1.4995                 1.5208
 IR Inten    --      3.3104                 6.9318                10.4638

                     79                     80                     81
                      A                      A                      A
 Frequencies --   1526.0382              1529.2443              1537.7541
 Red. masses --      1.0710                 1.0957                 1.0694
 Frc consts  --      1.4695                 1.5097                 1.4899
 IR Inten    --      3.8396                 9.6893                 2.9443

                     82                     83                     84
                      A                      A                      A
 Frequencies --   1546.9421              1549.1680              1564.3263
 Red. masses --      1.0719                 1.0659                 1.0598
 Frc consts  --      1.5113                 1.5072                 1.5280
 IR Inten    --      2.5032                 5.2732                 3.9586

                     85                     86                     87
                      A                      A                      A
 Frequencies --   2959.5653              3002.4790              3012.7826
 Red. masses --      1.0844                 1.0768                 1.0624
 Frc consts  --      5.5962                 5.7195                 5.6818
 IR Inten    --     38.6936                67.1295                22.4561

                     88                     89                     90
                      A                      A                      A
 Frequencies --   3025.3303              3027.8274              3049.0767
 Red. masses --      1.0667                 1.0626                 1.0874
 Frc consts  --      5.7522                 5.7398                 5.9565
 IR Inten    --     21.8851                32.8232                14.6749

                     91                     92                     93
                      A                      A                      A
 Frequencies --   3050.9110              3053.2849              3056.6428
 Red. masses --      1.0386                 1.0931                 1.0377
 Frc consts  --      5.6959                 6.0039                 5.7122
 IR Inten    --     16.0239               115.9282                16.5101

                     94                     95                     96
                      A                      A                      A
 Frequencies --   3061.0561              3065.6737              3069.4289
 Red. masses --      1.0763                 1.0451                 1.0932
 Frc consts  --      5.9421                 5.7871                 6.0682
 IR Inten    --      8.3723                28.9908                58.6845

                     97                     98                     99
                      A                      A                      A
 Frequencies --   3070.1894              3077.4738              3108.7283
 Red. masses --      1.0672                 1.0841                 1.1018
 Frc consts  --      5.9269                 6.0496                 6.2737
 IR Inten    --     15.0644                74.6921                74.0202

                    100                    101                    102
                      A                      A                      A
 Frequencies --   3110.4220              3117.9977              3121.4379
 Red. masses --      1.1040                 1.0987                 1.1001
 Frc consts  --      6.2930                 6.2935                 6.3153
 IR Inten    --     30.6834                22.8893                25.0837

                    103                    104                    105
                      A                      A                      A
 Frequencies --   3127.7783              3135.3393              3139.1105
 Red. masses --      1.1011                 1.1028                 1.1007
 Frc consts  --      6.3468                 6.3870                 6.3902
 IR Inten    --     40.3792                38.7793                26.4022

                    106                    107                    108
                      A                      A                      A
 Frequencies --   3180.8313              3181.5668              3521.3211
 Red. masses --      1.0941                 1.0883                 1.0731
 Frc consts  --      6.5224                 6.4903                 7.8399
 IR Inten    --     10.5401                43.4561                 0.7534

 - Thermochemistry -
 -------------------
 Temperature   298.150 Kelvin.  Pressure   1.00000 Atm.
 Atom     1 has atomic number  6 and mass  12.00000

 Molecular mass:   196.19395 amu.
 Principal axes and moments of inertia in atomic units:
                           1         2         3
     Eigenvalues --  1618.881933455.887454036.65519
           X            0.99996  -0.00428  -0.00766
           Y            0.00420   0.99994  -0.01039
           Z            0.00771   0.01036   0.99992
 This molecule is an asymmetric top.
 Rotational symmetry number  1.
 Warning -- assumption of classical behavior for rotation
           may cause significant error
 Rotational temperatures (Kelvin)      0.05350     0.02506     0.02146
 Rotational constants (GHZ):           1.11481     0.52222     0.44709
 Zero-point vibrational energy     934789.0 (Joules/Mol)
                                  223.41992 (Kcal/Mol)
 Warning -- explicit consideration of  23 degrees of freedom as
           vibrations may cause significant error
 Vibrational temperatures:     81.98   142.27   177.49   229.02   286.92
          (Kelvin)            330.06   353.80   386.80   411.04   415.43
                              437.62   473.00   485.70   502.90   557.05
                              574.20   614.23   650.65   693.01   726.51
                              776.88   803.57   879.78   910.41   979.60
                             1017.38  1152.93  1172.38  1215.67  1257.05
                             1272.88  1286.95  1316.26  1342.83  1357.70
                             1392.43  1394.05  1432.03  1457.98  1506.83
                             1512.14  1520.56  1539.96  1567.55  1572.96
                             1602.08  1625.13  1698.20  1726.26  1733.39
                             1778.09  1784.53  1798.84  1803.84  1834.59
                             1858.53  1869.93  1885.26  1906.13  1936.29
                             1974.96  1986.61  2005.09  2008.36  2014.96
                             2039.03  2045.21  2047.77  2052.87  2069.24
                             2092.51  2162.27  2166.24  2178.65  2180.30
                             2185.71  2191.83  2194.82  2195.63  2200.24
                             2212.49  2225.70  2228.91  2250.72  4258.15
                             4319.90  4334.72  4352.78  4356.37  4386.94
                             4389.58  4393.00  4397.83  4404.18  4410.82
                             4416.22  4417.32  4427.80  4472.77  4475.20
                             4486.10  4491.05  4500.18  4511.05  4516.48
                             4576.51  4577.57  5066.40

 Zero-point correction=                           0.356042 (Hartree/Particle)
 Thermal correction to Energy=                    0.369950
 Thermal correction to Enthalpy=                  0.370894
 Thermal correction to Gibbs Free Energy=         0.317256
 Sum of electronic and zero-point Energies=           -580.921002
 Sum of electronic and thermal Energies=              -580.907094
 Sum of electronic and thermal Enthalpies=            -580.906150
 Sum of electronic and thermal Free Energies=         -580.959788

                     E (Thermal)             CV                S
                      KCal/Mol        Cal/Mol-Kelvin    Cal/Mol-Kelvin
 Total                  232.147             57.865            112.891
 Electronic               0.000              0.000              0.000
 Translational            0.889              2.981             41.727
 Rotational               0.889              2.981             31.491
 Vibrational            230.370             51.904             39.673
 Vibration     1          0.596              1.975              4.559
 Vibration     2          0.604              1.950              3.476
 Vibration     3          0.610              1.930              3.047
 Vibration     4          0.621              1.892              2.560
 Vibration     5          0.638              1.841              2.138
 Vibration     6          0.652              1.796              1.884
 Vibration     7          0.660              1.770              1.760
 Vibration     8          0.673              1.730              1.604
 Vibration     9          0.683              1.700              1.499
 Vibration    10          0.685              1.695              1.481
 Vibration    11          0.695              1.666              1.394
 Vibration    12          0.712              1.618              1.266
 Vibration    13          0.718              1.600              1.224
 Vibration    14          0.727              1.576              1.168
 Vibration    15          0.756              1.498              1.011
 Vibration    16          0.765              1.472              0.966
 Vibration    17          0.789              1.412              0.869
 Vibration    18          0.811              1.356              0.789
 Vibration    19          0.838              1.291              0.706
 Vibration    20          0.860              1.239              0.646
 Vibration    21          0.895              1.162              0.565
 Vibration    22          0.914              1.121              0.527
 Vibration    23          0.971              1.008              0.430

 Optimization completed.
    -- Stationary point found.
 Normal termination of Gaussian 16 at Thu Dec 10 09:34:55 2020.

 ----------------------------------------------------------------------
 # B3LYP/6-311++G(d,p) empiricaldispersion=gd3bj scf=xqc pop=npa geom=c
 heck
 ----------------------------------------------------------------------

 ---------------------------------------
 CID_126556163_JID_4200_Energie_neutraal
 ---------------------------------------
 Structure from the checkpoint file:  "JID_4200.chk"
 Charge =  0 Multiplicity = 1

 SCF Done:  E(RB3LYP) =  -581.436927841     A.U. after   13 cycles
 Normal termination of Gaussian 16 at Thu Dec 10 09:40:20 2020.

 ----------------------------------------------------------------------
 # B3LYP/6-311++G(d,p) empiricaldispersion=gd3bj scf=xqc pop=npa geom=c
 heck
 ----------------------------------------------------------------------

 -------------------------------------
 CID_126556163_JID_4200_Energie_kation
 -------------------------------------
 Structure from the checkpoint file:  "JID_4200.chk"
 Charge =  1 Multiplicity = 2

 SCF Done:  E(UB3LYP) =  -581.180426386     A.U. after   20 cycles
 Normal termination of Gaussian 16 at Thu Dec 10 09:51:30 2020.
 Gaussian 16:  ES64L-G16RevA.03 25-Dec-2016

 ----------------------------------------------------------------------
 # B3LYP/6-311++G(d,p) empiricaldispersion=gd3bj scf=xqc pop=npa geom=c
 heck
 ----------------------------------------------------------------------

 ------------------------------------
 CID_126556163_JID_4200_Energie_anion
 ------------------------------------
 Structure from the checkpoint file:  "JID_4200.chk"
 Charge = -1 Multiplicity = 2

                         Standard orientation:
 ---------------------------------------------------------------------
 Center     Atomic      Atomic             Coordinates (Angstroms)
 Number     Number       Type             X           Y           Z
 ---------------------------------------------------------------------
      1          6           0       -1.455107   -0.367923    1.711347
      2          6           0       -2.017636   -0.520972    0.278414
      3          6           0       -2.151571   -2.019819   -0.069491
      4          6           0       -3.456910    0.037321    0.283585
      5          7           0       -1.243894    0.161069   -0.794585
      6          6           0       -1.389201    1.618052   -0.934913
      7          6           0       -0.233735    2.256209   -0.148709
      8          6           0        0.928236    1.254616   -0.318677
      9          6           0        0.222466   -0.000447   -0.976902
     10          6           0        0.858766   -1.356253   -0.673781
     11          6           0        2.388556   -1.368534   -0.856459
     12          6           0        3.159199   -0.940045    0.399964
     13          6           0        3.030348    0.545559    0.771998
     14          7           0        1.688054    1.096095    0.913817
     15          1           0       -2.101885   -0.882049    2.432456
     16          1           0       -1.404838    0.684828    2.005751
     17          1           0       -0.455525   -0.800905    1.808058
     18          1           0       -2.868334   -2.497175    0.608197
     19          1           0       -2.516558   -2.126852   -1.095497
     20          1           0       -1.213179   -2.566121    0.017291
     21          1           0       -3.520636    1.039939    0.716909
     22          1           0       -3.862626    0.067594   -0.732721
     23          1           0       -4.095311   -0.613575    0.889102
     24          1           0       -1.280481    1.862678   -2.002846
     25          1           0       -2.370967    1.972250   -0.629182
     26          1           0       -0.483358    2.340920    0.914289
     27          1           0        0.026505    3.259930   -0.499579
     28          1           0        1.646484    1.644493   -1.049716
     29          1           0        0.368009    0.148190   -2.059866
     30          1           0        0.644214   -1.684530    0.347162
     31          1           0        0.405995   -2.097872   -1.339679
     32          1           0        2.697696   -2.388647   -1.115198
     33          1           0        2.675207   -0.739512   -1.711588
     34          1           0        2.812850   -1.553182    1.245457
     35          1           0        4.227003   -1.169714    0.274296
     36          1           0        3.568657    0.720693    1.712904
     37          1           0        3.539355    1.150433    0.008777
     38          1           0        1.152137    0.601459    1.622347
 ---------------------------------------------------------------------

 SCF Done:  E(UB3LYP) =  -581.420169145     A.U. after   31 cycles

 The electronic state is 2-A.
 Alpha  occ. eigenvalues --  -14.19612 -14.19341 -10.11376 -10.09359 -10.09332
 Alpha  occ. eigenvalues --  -10.08912 -10.08804 -10.06475 -10.06345 -10.06138
 Alpha  occ. eigenvalues --  -10.06074 -10.06004 -10.05906 -10.05141  -0.83211
 Alpha  occ. eigenvalues --   -0.79936  -0.70856  -0.69530  -0.65027  -0.63611
 Alpha  occ. eigenvalues --   -0.59137  -0.58547  -0.56619  -0.54702  -0.50632
 Alpha  occ. eigenvalues --   -0.48530  -0.46213  -0.42799  -0.39354  -0.38770
 Alpha  occ. eigenvalues --   -0.37060  -0.36768  -0.35834  -0.35058  -0.33097
 Alpha  occ. eigenvalues --   -0.32042  -0.31230  -0.30456  -0.30164  -0.29440
 Alpha  occ. eigenvalues --   -0.28326  -0.27847  -0.27202  -0.26783  -0.26543
 Alpha  occ. eigenvalues --   -0.24830  -0.24364  -0.23970  -0.23005  -0.22757
 Alpha  occ. eigenvalues --   -0.21880  -0.21136  -0.20739  -0.13429  -0.09607
 Alpha  occ. eigenvalues --    0.04545
 Alpha virt. eigenvalues --    0.06373   0.06777   0.07518   0.08460   0.08546
 Alpha virt. eigenvalues --    0.08981   0.09569   0.09776   0.10706   0.10861
 Alpha virt. eigenvalues --    0.11304   0.11631   0.11985   0.12558   0.13470

  Beta  occ. eigenvalues --  -14.19613 -14.19332 -10.11372 -10.09354 -10.09328
  Beta  occ. eigenvalues --  -10.08898 -10.08794 -10.06456 -10.06330 -10.06128
  Beta  occ. eigenvalues --  -10.06050 -10.05978 -10.05881 -10.05119  -0.83203
  Beta  occ. eigenvalues --   -0.79920  -0.70836  -0.69496  -0.65000  -0.63586
  Beta  occ. eigenvalues --   -0.59089  -0.58504  -0.56582  -0.54665  -0.50594
  Beta  occ. eigenvalues --   -0.48479  -0.46167  -0.42758  -0.39326  -0.38744
  Beta  occ. eigenvalues --   -0.37027  -0.36739  -0.35802  -0.35026  -0.33067
  Beta  occ. eigenvalues --   -0.32018  -0.31201  -0.30429  -0.30134  -0.29407
  Beta  occ. eigenvalues --   -0.28295  -0.27818  -0.27170  -0.26756  -0.26511
  Beta  occ. eigenvalues --   -0.24807  -0.24336  -0.23942  -0.22973  -0.22731
  Beta  occ. eigenvalues --   -0.21854  -0.21108  -0.20709  -0.13411  -0.09595
  Beta virt. eigenvalues --    0.06546   0.07180   0.07375   0.08104   0.09015
  Beta virt. eigenvalues --    0.09048   0.09435   0.09825   0.10111   0.11101
  Beta virt. eigenvalues --    0.11334   0.11676   0.12000   0.12241   0.12870

 Mulliken charges and spin densities:
               1          2
     1  C    1.169700  -1.626755
     2  C   -2.044548   1.745899
     3  C    0.677698  -1.074719
     4  C    0.233492  -0.716858
     5  N    0.438039   0.023765
     6  C    0.290775  -0.233827
     7  C    0.696044  -1.154292
     8  C   -1.474586   0.840654
     9  C    0.788134  -1.192441
    10  C   -0.358623   0.186746
    11  C   -0.646681   0.288051
    12  C    0.617306  -0.981566
    13  C    0.321752  -0.655975
    14  N    0.121826   0.024651
    15  H   -0.131309   0.297314
    16  H    0.021699   0.120422
    17  H   -0.253718   0.403930
    18  H    0.008662   0.125230
    19  H    0.003538   0.150967
    20  H   -0.595031   0.764366
    21  H   -0.157914   0.297836
    22  H   -0.155210   0.317593
    23  H   -0.158677   0.290024
    24  H    0.047879   0.082604
    25  H    0.113876   0.030688
    26  H    0.105567   0.031493
    27  H   -0.064126   0.223665
    28  H   -0.000695   0.113100
    29  H    0.028462   0.168431
    30  H    0.501589  -0.410331
    31  H    0.099572   0.102825
    32  H   -0.645493   0.838809
    33  H   -0.007102   0.128949
    34  H   -0.156609   0.296474
    35  H   -0.385279   0.542335
    36  H   -0.233557   0.403700
    37  H   -0.063161   0.203879
    38  H    0.246708   0.002363
 Sum of Mulliken charges =  -1.00000   1.00000

 Dipole moment (field-independent basis, Debye):
    X=             -1.4675    Y=              3.5064    Z=             -1.4206  Tot=              4.0579
 Quadrupole moment (field-independent basis, Debye-Ang):
   XX=           -165.8144   YY=           -140.1018   ZZ=           -129.0851
   XY=              5.1461   XZ=              0.2488   YZ=             -1.9653

 Summary of Natural Population Analysis:

                                       Natural Population
                Natural  -----------------------------------------------
    Atom  No    Charge         Core      Valence    Rydberg      Total
 -----------------------------------------------------------------------
      C    1   -0.29712      0.99961     2.29004    0.00748     3.29712
      C    2    0.06506      0.99957     1.92039    0.01498     2.93494
      C    3   -0.28639      0.99961     2.27919    0.00759     3.28639
      C    4   -0.28839      0.99962     2.28169    0.00709     3.28839
      N    5   -0.28939      0.99970     2.77577    0.01393     3.78939
      C    6   -0.08669      0.99961     2.07664    0.01045     3.08669
      C    7   -0.19841      0.99961     2.19021    0.00858     3.19841
      C    8   -0.01348      0.99956     2.00159    0.01233     3.01348
      C    9   -0.00517      0.99955     1.99226    0.01335     3.00517
      C   10   -0.19889      0.99960     2.18985    0.00944     3.19889
      C   11   -0.18919      0.99962     2.18039    0.00918     3.18919
      C   12   -0.19499      0.99962     2.18710    0.00828     3.19499
      C   13   -0.08375      0.99962     2.07201    0.01212     3.08375
      N   14   -0.34435      0.99973     2.83293    0.01169     3.84435
      H   15    0.10233      0.00000     0.39659    0.00108     0.39767
      H   16    0.09888      0.00000     0.39989    0.00123     0.40112
      H   17    0.09660      0.00000     0.40172    0.00168     0.40340
      H   18    0.09674      0.00000     0.40231    0.00095     0.40326
      H   19    0.10311      0.00000     0.39545    0.00144     0.39689
      H   20    0.10245      0.00000     0.39614    0.00141     0.39755
      H   21    0.09807      0.00000     0.40091    0.00102     0.40193
      H   22    0.10392      0.00000     0.39496    0.00112     0.39608
      H   23    0.10233      0.00000     0.39675    0.00092     0.39767
      H   24    0.08743      0.00000     0.41139    0.00118     0.41257
      H   25    0.10078      0.00000     0.39822    0.00100     0.39922
      H   26    0.09782      0.00000     0.40051    0.00167     0.40218
      H   27    0.09866      0.00000     0.40037    0.00097     0.40134
      H   28    0.09149      0.00000     0.40683    0.00168     0.40851
      H   29    0.09066      0.00000     0.40780    0.00154     0.40934
      H   30    0.09557      0.00000     0.40189    0.00254     0.40443
      H   31    0.10375      0.00000     0.39471    0.00154     0.39625
      H   32    0.10263      0.00000     0.39589    0.00148     0.39737
      H   33    0.09246      0.00000     0.40625    0.00128     0.40754
      H   34    0.09211      0.00000     0.40604    0.00185     0.40789
      H   35    0.09891      0.00000     0.39939    0.00170     0.40109
      H   36    0.09296      0.00000     0.40611    0.00094     0.40704
      H   37    0.08708      0.00000     0.41153    0.00139     0.41292
      H   38    0.17444      0.00000     0.32233    0.00323     0.32556
 =======================================================================
   * Total *    0.00000     13.99464    40.82404    0.18133    55.00000

 Normal termination of Gaussian 16 at Thu Dec 10 10:08:02 2020.
