 Gaussian 16, Revision A.03,

 -----------------------------------------------------------
 # opt freq B3LYP/6-31G(d) empiricaldispersion=gd3bj scf=xqc
 -----------------------------------------------------------

 ------------------------------
 CID_59049724_JID_4543_neutraal
 ------------------------------
 Symbolic Z-matrix:
 Charge =  0 Multiplicity = 1

 SCF Done:  E(RB3LYP) =  -576.457498648     A.U. after   14 cycles
 SCF Done:  E(RB3LYP) =  -576.463138526     A.U. after   12 cycles
 SCF Done:  E(RB3LYP) =  -576.464258830     A.U. after   12 cycles
 SCF Done:  E(RB3LYP) =  -576.464881739     A.U. after   12 cycles
 SCF Done:  E(RB3LYP) =  -576.465210290     A.U. after   12 cycles
 SCF Done:  E(RB3LYP) =  -576.465410482     A.U. after   11 cycles
 SCF Done:  E(RB3LYP) =  -576.465612563     A.U. after   12 cycles
 SCF Done:  E(RB3LYP) =  -576.465656978     A.U. after   10 cycles
 SCF Done:  E(RB3LYP) =  -576.465662339     A.U. after    9 cycles
 SCF Done:  E(RB3LYP) =  -576.465669024     A.U. after    9 cycles
 SCF Done:  E(RB3LYP) =  -576.465674040     A.U. after    8 cycles
 SCF Done:  E(RB3LYP) =  -576.465676576     A.U. after   10 cycles
 SCF Done:  E(RB3LYP) =  -576.465677034     A.U. after    8 cycles
 SCF Done:  E(RB3LYP) =  -576.465677259     A.U. after    8 cycles
 SCF Done:  E(RB3LYP) =  -576.465677327     A.U. after    8 cycles
 SCF Done:  E(RB3LYP) =  -576.465677331     A.U. after    7 cycles
 Optimization completed.
    -- Stationary point found.
 Normal termination of Gaussian 16 at Thu Dec 10 10:06:25 2020.

 --------------------------------------------------------------------
 #N Geom=AllCheck Guess=TCheck SCRF=Check GenChk RB3LYP/6-31G(d) Freq
 --------------------------------------------------------------------

 Structure from the checkpoint file:  "JID_4543.chk"
 ------------------------------
 CID_59049724_JID_4543_neutraal
 ------------------------------
 Charge =  0 Multiplicity = 1

 SCF Done:  E(RB3LYP) =  -576.465677331     A.U. after    1 cycles

  Exact polarizability: 231.520  11.038 133.794   0.658  -0.011  73.680
 Approx polarizability: 323.591  21.487 224.829   0.887  -0.107 108.031

                      1                      2                      3
                      A                      A                      A
 Frequencies --     23.6697                48.5914                86.9547
 Red. masses --      3.7476                 3.2813                 3.1563
 Frc consts  --      0.0012                 0.0046                 0.0141
 IR Inten    --     24.4868                 2.2955                 7.1119

                      4                      5                      6
                      A                      A                      A
 Frequencies --    110.5042               166.2196               224.5220
 Red. masses --      1.7933                 3.4731                 1.2610
 Frc consts  --      0.0129                 0.0565                 0.0375
 IR Inten    --      4.4966                 0.0361                 4.6190

                      7                      8                      9
                      A                      A                      A
 Frequencies --    249.3641               264.1817               271.0535
 Red. masses --      1.7558                 1.9364                 1.1805
 Frc consts  --      0.0643                 0.0796                 0.0511
 IR Inten    --      8.8131                57.4967                 0.2143

                     10                     11                     12
                      A                      A                      A
 Frequencies --    274.3032               314.5493               334.8009
 Red. masses --      2.6950                 2.6145                 1.1642
 Frc consts  --      0.1195                 0.1524                 0.0769
 IR Inten    --      0.2347                 0.1997                54.9221

                     13                     14                     15
                      A                      A                      A
 Frequencies --    338.7006               345.4884               373.1837
 Red. masses --      2.4996                 1.3969                 2.2567
 Frc consts  --      0.1689                 0.0982                 0.1852
 IR Inten    --      0.9167                46.8746                13.8749

                     16                     17                     18
                      A                      A                      A
 Frequencies --    425.0197               443.4776               460.1055
 Red. masses --      3.0441                 2.6884                 3.2130
 Frc consts  --      0.3240                 0.3115                 0.4008
 IR Inten    --     14.6051                 2.1101                 3.6914

                     19                     20                     21
                      A                      A                      A
 Frequencies --    499.5933               518.0446               593.9463
 Red. masses --      2.8456                 3.3957                 4.4117
 Frc consts  --      0.4185                 0.5369                 0.9170
 IR Inten    --      2.9782                 0.6187                 2.1729

                     22                     23                     24
                      A                      A                      A
 Frequencies --    606.1973               610.0119               661.2131
 Red. masses --      1.1366                 1.2614                 3.0127
 Frc consts  --      0.2461                 0.2765                 0.7760
 IR Inten    --      0.8783                80.2182                 4.7924

                     25                     26                     27
                      A                      A                      A
 Frequencies --    674.6614               712.5262               720.5486
 Red. masses --      7.0823                 5.9018                 5.7856
 Frc consts  --      1.8993                 1.7654                 1.7698
 IR Inten    --     18.9320                 5.4700                 3.6004

                     28                     29                     30
                      A                      A                      A
 Frequencies --    747.3459               810.2132               841.2832
 Red. masses --      4.5494                 1.4356                 2.8106
 Frc consts  --      1.4971                 0.5552                 1.1720
 IR Inten    --      0.5767                22.6899                 2.0554

                     31                     32                     33
                      A                      A                      A
 Frequencies --    860.6359               880.7193               905.5608
 Red. masses --      1.4329                 4.0455                 1.2840
 Frc consts  --      0.6253                 1.8488                 0.6204
 IR Inten    --     11.5662                 0.3842                 0.0735

                     34                     35                     36
                      A                      A                      A
 Frequencies --    939.8113               940.3708               953.1999
 Red. masses --      1.7503                 2.3880                 1.7034
 Frc consts  --      0.9108                 1.2442                 0.9119
 IR Inten    --      0.8343                 2.4814                 2.4070

                     37                     38                     39
                      A                      A                      A
 Frequencies --    974.4140               978.9778               991.0983
 Red. masses --      1.1961                 2.1276                 3.1582
 Frc consts  --      0.6691                 1.2014                 1.8278
 IR Inten    --      0.1375                 2.8902                53.9452

                     40                     41                     42
                      A                      A                      A
 Frequencies --   1058.0994              1063.8552              1119.2407
 Red. masses --      1.3964                 1.3865                 1.9767
 Frc consts  --      0.9211                 0.9246                 1.4589
 IR Inten    --      0.0361                 0.0250                 1.0725

                     43                     44                     45
                      A                      A                      A
 Frequencies --   1166.0608              1240.3563              1243.2205
 Red. masses --      1.6015                 2.2795                 2.6892
 Frc consts  --      1.2830                 2.0663                 2.4489
 IR Inten    --      6.0947                 5.4803                 3.8891

                     46                     47                     48
                      A                      A                      A
 Frequencies --   1246.8954              1276.0784              1284.5656
 Red. masses --      2.7261                 1.6675                 1.5438
 Frc consts  --      2.4972                 1.5998                 1.5009
 IR Inten    --      2.3943                11.0353                50.5941

                     49                     50                     51
                      A                      A                      A
 Frequencies --   1311.9022              1327.9752              1370.7367
 Red. masses --      2.3765                 3.1210                 1.9362
 Frc consts  --      2.4099                 3.2428                 2.1434
 IR Inten    --     70.8960               102.7209                16.2687

                     52                     53                     54
                      A                      A                      A
 Frequencies --   1384.1693              1426.1710              1427.3504
 Red. masses --      3.5868                 1.2152                 1.2452
 Frc consts  --      4.0488                 1.4562                 1.4947
 IR Inten    --      9.5122                 3.7616                 8.1447

                     55                     56                     57
                      A                      A                      A
 Frequencies --   1441.3456              1458.1329              1488.6966
 Red. masses --      2.1375                 1.2221                 1.6078
 Frc consts  --      2.6163                 1.5309                 2.0994
 IR Inten    --      0.8973                 4.5696                12.5815

                     58                     59                     60
                      A                      A                      A
 Frequencies --   1512.5389              1515.7896              1516.4602
 Red. masses --      1.0501                 1.6105                 1.0457
 Frc consts  --      1.4155                 2.1802                 1.4168
 IR Inten    --      0.0048                22.5344                 0.1394

                     61                     62                     63
                      A                      A                      A
 Frequencies --   1524.9132              1532.4866              1538.0317
 Red. masses --      1.6511                 1.1330                 1.0508
 Frc consts  --      2.2621                 1.5678                 1.4646
 IR Inten    --     54.8815                12.8687                 4.7267

                     64                     65                     66
                      A                      A                      A
 Frequencies --   1547.4079              1553.6193              1672.1199
 Red. masses --      1.6758                 1.2955                 6.5542
 Frc consts  --      2.3642                 1.8424                10.7971
 IR Inten    --     53.5254                53.7563                12.4519

                     67                     68                     69
                      A                      A                      A
 Frequencies --   1688.7472              1753.4100              3042.9319
 Red. masses --      7.0332                 6.2195                 1.0355
 Frc consts  --     11.8176                11.2660                 5.6491
 IR Inten    --      8.9583               756.5100                27.9878

                     70                     71                     72
                      A                      A                      A
 Frequencies --   3044.3093              3052.1999              3108.7295
 Red. masses --      1.0350                 1.0362                 1.1013
 Frc consts  --      5.6514                 5.6872                 6.2710
 IR Inten    --     27.1222                32.6032                 6.0935

                     73                     74                     75
                      A                      A                      A
 Frequencies --   3109.9910              3118.1670              3118.3426
 Red. masses --      1.1020                 1.1013                 1.1030
 Frc consts  --      6.2800                 6.3091                 6.3194
 IR Inten    --      8.3458               104.4612                19.4150

                     76                     77                     78
                      A                      A                      A
 Frequencies --   3122.9086              3124.7965              3197.1637
 Red. masses --      1.1021                 1.1016                 1.0898
 Frc consts  --      6.3328                 6.3375                 6.5632
 IR Inten    --     31.5141                43.5841                20.6355

                     79                     80                     81
                      A                      A                      A
 Frequencies --   3200.4804              3201.7861              3233.8765
 Red. masses --      1.0894                 1.0580                 1.0902
 Frc consts  --      6.5744                 6.3902                 6.7177
 IR Inten    --      9.1830                 0.5846                11.0861

                     82                     83                     84
                      A                      A                      A
 Frequencies --   3284.4128              3691.0507              3691.3849
 Red. masses --      1.1180                 1.0802                 1.0784
 Frc consts  --      7.1055                 8.6709                 8.6582
 IR Inten    --      9.3185                16.3288                79.7514

 - Thermochemistry -
 -------------------
 Temperature   298.150 Kelvin.  Pressure   1.00000 Atm.
 Atom     1 has atomic number  6 and mass  12.00000

 Molecular mass:   188.13135 amu.
 Principal axes and moments of inertia in atomic units:
                           1         2         3
     Eigenvalues --   981.509954875.981455458.49329
           X            1.00000  -0.00177   0.00037
           Y            0.00177   1.00000  -0.00013
           Z           -0.00037   0.00013   1.00000
 This molecule is an asymmetric top.
 Rotational symmetry number  1.
 Warning -- assumption of classical behavior for rotation
           may cause significant error
 Rotational temperatures (Kelvin)      0.08825     0.01776     0.01587
 Rotational constants (GHZ):           1.83874     0.37013     0.33063
 Zero-point vibrational energy     677134.0 (Joules/Mol)
                                  161.83892 (Kcal/Mol)
 Warning -- explicit consideration of  23 degrees of freedom as
           vibrations may cause significant error
 Vibrational temperatures:     34.06    69.91   125.11   158.99   239.15
          (Kelvin)            323.04   358.78   380.10   389.99   394.66
                              452.57   481.70   487.31   497.08   536.93
                              611.51   638.07   661.99   718.80   745.35
                              854.56   872.18   877.67   951.34   970.69
                             1025.17  1036.71  1075.26  1165.72  1210.42
                             1238.26  1267.16  1302.90  1352.18  1352.98
                             1371.44  1401.96  1408.53  1425.97  1522.37
                             1530.65  1610.34  1677.70  1784.60  1788.72
                             1794.00  1835.99  1848.20  1887.53  1910.66
                             1972.18  1991.51  2051.94  2053.64  2073.77
                             2097.93  2141.90  2176.21  2180.88  2181.85
                             2194.01  2204.91  2212.88  2226.37  2235.31
                             2405.81  2429.73  2522.77  4378.10  4380.08
                             4391.43  4472.77  4474.58  4486.35  4486.60
                             4493.17  4495.89  4600.01  4604.78  4606.66
                             4652.83  4725.54  5310.60  5311.08

 Zero-point correction=                           0.257907 (Hartree/Particle)
 Thermal correction to Energy=                    0.271932
 Thermal correction to Enthalpy=                  0.272876
 Thermal correction to Gibbs Free Energy=         0.217233
 Sum of electronic and zero-point Energies=           -576.207771
 Sum of electronic and thermal Energies=              -576.193745
 Sum of electronic and thermal Enthalpies=            -576.192801
 Sum of electronic and thermal Free Energies=         -576.248445

                     E (Thermal)             CV                S
                      KCal/Mol        Cal/Mol-Kelvin    Cal/Mol-Kelvin
 Total                  170.640             55.102            117.112
 Electronic               0.000              0.000              0.000
 Translational            0.889              2.981             41.602
 Rotational               0.889              2.981             31.636
 Vibrational            168.863             49.140             43.875
 Vibration     1          0.593              1.985              6.300
 Vibration     2          0.595              1.978              4.874
 Vibration     3          0.601              1.958              3.727
 Vibration     4          0.606              1.941              3.260
 Vibration     5          0.624              1.884              2.478
 Vibration     6          0.649              1.804              1.922
 Vibration     7          0.662              1.764              1.735
 Vibration     8          0.671              1.739              1.634
 Vibration     9          0.675              1.727              1.589
 Vibration    10          0.677              1.721              1.569
 Vibration    11          0.702              1.646              1.338
 Vibration    12          0.716              1.606              1.237
 Vibration    13          0.719              1.598              1.218
 Vibration    14          0.724              1.584              1.187
 Vibration    15          0.745              1.527              1.067
 Vibration    16          0.787              1.416              0.875
 Vibration    17          0.803              1.375              0.816
 Vibration    18          0.818              1.339              0.766
 Vibration    19          0.855              1.251              0.659
 Vibration    20          0.873              1.210              0.615
 Vibration    21          0.952              1.045              0.460
 Vibration    22          0.965              1.019              0.439
 Vibration    23          0.969              1.011              0.433

 Optimization completed on the basis of negligible forces.
    -- Stationary point found.
 Normal termination of Gaussian 16 at Thu Dec 10 10:14:50 2020.

 ----------------------------------------------------------------------
 # B3LYP/6-311++G(d,p) empiricaldispersion=gd3bj scf=xqc pop=npa geom=c
 heck
 ----------------------------------------------------------------------

 --------------------------------------
 CID_59049724_JID_4543_Energie_neutraal
 --------------------------------------
 Structure from the checkpoint file:  "JID_4543.chk"
 Charge =  0 Multiplicity = 1

 SCF Done:  E(RB3LYP) =  -576.623919029     A.U. after   15 cycles
 Normal termination of Gaussian 16 at Thu Dec 10 10:18:50 2020.

 ----------------------------------------------------------------------
 # B3LYP/6-311++G(d,p) empiricaldispersion=gd3bj scf=xqc pop=npa geom=c
 heck
 ----------------------------------------------------------------------

 ------------------------------------
 CID_59049724_JID_4543_Energie_kation
 ------------------------------------
 Structure from the checkpoint file:  "JID_4543.chk"
 Charge =  1 Multiplicity = 2

 SCF Done:  E(UB3LYP) =  -576.387811184     A.U. after   20 cycles
 Normal termination of Gaussian 16 at Thu Dec 10 10:26:21 2020.
 Gaussian 16:  ES64L-G16RevA.03 25-Dec-2016

 ----------------------------------------------------------------------
 # B3LYP/6-311++G(d,p) empiricaldispersion=gd3bj scf=xqc pop=npa geom=c
 heck
 ----------------------------------------------------------------------

 -----------------------------------
 CID_59049724_JID_4543_Energie_anion
 -----------------------------------
 Structure from the checkpoint file:  "JID_4543.chk"
 Charge = -1 Multiplicity = 2

                         Standard orientation:
 ---------------------------------------------------------------------
 Center     Atomic      Atomic             Coordinates (Angstroms)
 Number     Number       Type             X           Y           Z
 ---------------------------------------------------------------------
      1          6           0        3.663739    0.956643   -0.015397
      2          6           0        2.705068   -0.245253   -0.004013
      3          6           0        2.990128   -1.096732   -1.260474
      4          6           0        3.002189   -1.082609    1.259108
      5          6           0        1.230606    0.183203    0.000772
      6          6           0        0.231420   -0.818008    0.010759
      7          6           0       -1.098405   -0.442170    0.013726
      8          6           0       -1.478251    0.917309    0.009058
      9          6           0       -0.517742    1.910906    0.000605
     10          6           0        0.835205    1.523384   -0.004378
     11          7           0       -2.868587    0.942766    0.021393
     12          6           0       -3.402216   -0.350782    0.001026
     13          6           0       -4.699168   -0.712909   -0.031104
     14          7           0       -2.276092   -1.181440    0.025332
     15          1           0        4.700133    0.601496   -0.018317
     16          1           0        3.531008    1.588490    0.869564
     17          1           0        3.522564    1.578486   -0.906130
     18          1           0        4.039577   -1.414981   -1.278421
     19          1           0        2.367555   -1.996717   -1.290282
     20          1           0        2.790040   -0.521792   -2.171294
     21          1           0        2.810744   -0.497480    2.165263
     22          1           0        2.379849   -1.982073    1.304970
     23          1           0        4.051777   -1.400717    1.270576
     24          1           0        0.499266   -1.869854    0.014247
     25          1           0       -0.791467    2.961756   -0.003572
     26          1           0        1.582243    2.307195   -0.012266
     27          1           0       -3.440599    1.767701   -0.047929
     28          1           0       -5.483006    0.033256   -0.042062
     29          1           0       -4.983158   -1.757198   -0.040721
     30          1           0       -2.339211   -2.184738   -0.018833
 ---------------------------------------------------------------------

 SCF Done:  E(UB3LYP) =  -576.610959975     A.U. after   31 cycles

 The electronic state is 2-A.
 Alpha  occ. eigenvalues --  -14.24874 -14.24830 -10.15139 -10.11445 -10.11318
 Alpha  occ. eigenvalues --  -10.09354 -10.07549 -10.07251 -10.06955 -10.06559
 Alpha  occ. eigenvalues --  -10.06478 -10.06226 -10.06200 -10.03522  -0.91929
 Alpha  occ. eigenvalues --   -0.79943  -0.75918  -0.71947  -0.66211  -0.64242
 Alpha  occ. eigenvalues --   -0.59963  -0.59093  -0.59021  -0.55333  -0.51838
 Alpha  occ. eigenvalues --   -0.49758  -0.46024  -0.43951  -0.40257  -0.39158
 Alpha  occ. eigenvalues --   -0.37662  -0.35826  -0.35038  -0.34463  -0.34199
 Alpha  occ. eigenvalues --   -0.33565  -0.32210  -0.30487  -0.29947  -0.28857
 Alpha  occ. eigenvalues --   -0.28334  -0.27202  -0.26381  -0.25040  -0.23437
 Alpha  occ. eigenvalues --   -0.23310  -0.22574  -0.22455  -0.15910  -0.13221
 Alpha  occ. eigenvalues --   -0.07286   0.04229
 Alpha virt. eigenvalues --    0.06026   0.06455   0.08062   0.08455   0.08583
 Alpha virt. eigenvalues --    0.08905   0.09677   0.10081   0.10250   0.10681
 Alpha virt. eigenvalues --    0.11530   0.12168   0.12296   0.12399   0.13256

  Beta  occ. eigenvalues --  -14.24835 -14.24790 -10.15137 -10.11444 -10.11317
  Beta  occ. eigenvalues --  -10.09350 -10.07549 -10.07235 -10.06937 -10.06554
  Beta  occ. eigenvalues --  -10.06460 -10.06206 -10.06180 -10.03504  -0.91895
  Beta  occ. eigenvalues --   -0.79876  -0.75901  -0.71930  -0.66194  -0.64212
  Beta  occ. eigenvalues --   -0.59929  -0.59054  -0.58982  -0.55253  -0.51807
  Beta  occ. eigenvalues --   -0.49716  -0.45976  -0.43897  -0.40219  -0.39104
  Beta  occ. eigenvalues --   -0.37638  -0.35795  -0.35011  -0.34436  -0.34159
  Beta  occ. eigenvalues --   -0.33527  -0.32183  -0.30456  -0.29925  -0.28828
  Beta  occ. eigenvalues --   -0.28308  -0.27180  -0.26347  -0.25022  -0.23417
  Beta  occ. eigenvalues --   -0.23292  -0.22543  -0.22432  -0.15901  -0.13199
  Beta  occ. eigenvalues --   -0.07264
  Beta virt. eigenvalues --    0.06338   0.07203   0.07712   0.08671   0.08705
  Beta virt. eigenvalues --    0.08869   0.08936   0.10115   0.10290   0.10520
  Beta virt. eigenvalues --    0.10883   0.11699   0.12365   0.12634   0.12782

 Mulliken charges and spin densities:
               1          2
     1  C    0.033803  -0.485549
     2  C   -0.131436   0.537040
     3  C    0.201330  -0.870642
     4  C    0.196246  -0.866038
     5  C    0.911716  -0.408951
     6  C   -0.028489  -0.478947
     7  C    1.245676  -0.947876
     8  C    1.395790  -1.318050
     9  C   -0.497686  -0.175288
    10  C   -0.898952   0.381958
    11  N   -0.169453  -0.095211
    12  C    0.416054   0.290732
    13  C   -1.276056   0.743945
    14  N   -0.171286  -0.110091
    15  H   -0.006905   0.170176
    16  H   -0.063241   0.190894
    17  H   -0.068936   0.196982
    18  H   -0.067981   0.208478
    19  H   -0.201079   0.343295
    20  H    0.064584   0.075672
    21  H    0.062538   0.077352
    22  H   -0.178377   0.320555
    23  H   -0.057902   0.198845
    24  H   -0.583483   0.749978
    25  H   -0.961419   1.128826
    26  H    0.273602  -0.127664
    27  H   -0.102826   0.427440
    28  H   -0.063848   0.157621
    29  H   -0.080249   0.173638
    30  H   -0.191737   0.510881
 Sum of Mulliken charges =  -1.00000   1.00000

 Dipole moment (field-independent basis, Debye):
    X=              2.5329    Y=              1.0546    Z=              0.1520  Tot=              2.7479
 Quadrupole moment (field-independent basis, Debye-Ang):
   XX=           -160.9502   YY=           -136.5544   ZZ=           -114.3635
   XY=              5.6771   XZ=             -0.1681   YZ=             -0.0700

 Summary of Natural Population Analysis:

                                       Natural Population
                Natural  -----------------------------------------------
    Atom  No    Charge         Core      Valence    Rydberg      Total
 -----------------------------------------------------------------------
      C    1   -0.28495      0.99964     2.27913    0.00619     3.28495
      C    2   -0.05173      0.99956     2.04060    0.01157     3.05173
      C    3   -0.28041      0.99963     2.27356    0.00722     3.28041
      C    4   -0.28040      0.99963     2.27356    0.00721     3.28040
      C    5   -0.01520      0.99949     2.00405    0.01165     3.01520
      C    6   -0.12183      0.99948     2.11342    0.00893     3.12183
      C    7    0.07963      0.99946     1.90942    0.01149     2.92037
      C    8    0.07323      0.99945     1.91604    0.01129     2.92677
      C    9   -0.11949      0.99953     2.11026    0.00970     3.11949
      C   10   -0.11197      0.99952     2.10307    0.00937     3.11197
      N   11   -0.29255      0.99964     2.78409    0.00883     3.79255
      C   12    0.19111      0.99954     1.79556    0.01380     2.80889
      C   13   -0.31329      0.99956     2.30381    0.00992     3.31329
      N   14   -0.29192      0.99964     2.78338    0.00889     3.79192
      H   15    0.09959      0.00000     0.39951    0.00089     0.40041
      H   16    0.10064      0.00000     0.39829    0.00107     0.39936
      H   17    0.10071      0.00000     0.39822    0.00107     0.39929
      H   18    0.09634      0.00000     0.40276    0.00090     0.40366
      H   19    0.10183      0.00000     0.39705    0.00113     0.39817
      H   20    0.10069      0.00000     0.39848    0.00083     0.39931
      H   21    0.10062      0.00000     0.39857    0.00081     0.39938
      H   22    0.10171      0.00000     0.39719    0.00110     0.39829
      H   23    0.09637      0.00000     0.40274    0.00089     0.40363
      H   24    0.10522      0.00000     0.39254    0.00224     0.39478
      H   25    0.10407      0.00000     0.39450    0.00143     0.39593
      H   26    0.10157      0.00000     0.39728    0.00115     0.39843
      H   27    0.20479      0.00000     0.28892    0.00629     0.29521
      H   28    0.09981      0.00000     0.39928    0.00091     0.40019
      H   29    0.10023      0.00000     0.39887    0.00090     0.39977
      H   30    0.20557      0.00000     0.28832    0.00611     0.29443
 =======================================================================
   * Total *   -0.00000     13.99376    36.84246    0.16379    51.00000

 Normal termination of Gaussian 16 at Thu Dec 10 10:38:18 2020.
