 Gaussian 16, Revision A.03,

 -----------------------------------------------------------
 # opt freq B3LYP/6-31G(d) empiricaldispersion=gd3bj scf=xqc
 -----------------------------------------------------------

 -------------------------------
 CID_152494628_JID_1702_neutraal
 -------------------------------
 Symbolic Z-matrix:
 Charge =  0 Multiplicity = 1

 SCF Done:  E(RB3LYP) =  -432.469100692     A.U. after   13 cycles
 SCF Done:  E(RB3LYP) =  -432.470839578     A.U. after   11 cycles
 SCF Done:  E(RB3LYP) =  -432.469343239     A.U. after   11 cycles
 SCF Done:  E(RB3LYP) =  -432.470664397     A.U. after   11 cycles
 SCF Done:  E(RB3LYP) =  -432.471690417     A.U. after    8 cycles
 SCF Done:  E(RB3LYP) =  -432.472303121     A.U. after   10 cycles
 SCF Done:  E(RB3LYP) =  -432.472339094     A.U. after   10 cycles
 SCF Done:  E(RB3LYP) =  -432.472655631     A.U. after   10 cycles
 SCF Done:  E(RB3LYP) =  -432.472697024     A.U. after    9 cycles
 SCF Done:  E(RB3LYP) =  -432.472836808     A.U. after    9 cycles
 SCF Done:  E(RB3LYP) =  -432.472882549     A.U. after    9 cycles
 SCF Done:  E(RB3LYP) =  -432.472890148     A.U. after    9 cycles
 SCF Done:  E(RB3LYP) =  -432.472912985     A.U. after    9 cycles
 SCF Done:  E(RB3LYP) =  -432.472914060     A.U. after    8 cycles
 SCF Done:  E(RB3LYP) =  -432.472914415     A.U. after    7 cycles
 SCF Done:  E(RB3LYP) =  -432.472914524     A.U. after    6 cycles
 Optimization completed.
    -- Stationary point found.
 Normal termination of Gaussian 16 at Tue Dec  8 20:56:19 2020.

 --------------------------------------------------------------------
 #N Geom=AllCheck Guess=TCheck SCRF=Check GenChk RB3LYP/6-31G(d) Freq
 --------------------------------------------------------------------

 Structure from the checkpoint file:  "JID_1702.chk"
 -------------------------------
 CID_152494628_JID_1702_neutraal
 -------------------------------
 Charge =  0 Multiplicity = 1

 SCF Done:  E(RB3LYP) =  -432.472914524     A.U. after    1 cycles

  Exact polarizability: 135.840  -4.001 115.460   0.277   2.129  99.505
 Approx polarizability: 188.840  -9.123 155.525  -0.943   5.037 141.273

                      1                      2                      3
                      A                      A                      A
 Frequencies --     62.0331                65.6461               103.3748
 Red. masses --      2.8801                 2.8991                 2.2669
 Frc consts  --      0.0065                 0.0074                 0.0143
 IR Inten    --      0.0019                 0.0241                 0.0703

                      4                      5                      6
                      A                      A                      A
 Frequencies --    122.8400               126.3232               149.2751
 Red. masses --      1.9758                 1.9852                 2.0646
 Frc consts  --      0.0176                 0.0187                 0.0271
 IR Inten    --      0.0484                 0.2409                 0.1116

                      7                      8                      9
                      A                      A                      A
 Frequencies --    169.2877               199.9002               213.5430
 Red. masses --      1.6405                 1.6217                 2.2980
 Frc consts  --      0.0277                 0.0382                 0.0617
 IR Inten    --      0.2450                 0.0243                 0.1903

                     10                     11                     12
                      A                      A                      A
 Frequencies --    219.6286               255.5730               276.0692
 Red. masses --      1.2457                 1.3992                 1.2313
 Frc consts  --      0.0354                 0.0538                 0.0553
 IR Inten    --      0.0740                 0.8229                 0.1729

                     13                     14                     15
                      A                      A                      A
 Frequencies --    304.2866               340.9522               349.2831
 Red. masses --      1.6714                 2.0450                 2.5949
 Frc consts  --      0.0912                 0.1401                 0.1865
 IR Inten    --      0.2365                 0.1565                 1.5821

                     16                     17                     18
                      A                      A                      A
 Frequencies --    395.6631               406.0465               436.7692
 Red. masses --      2.1882                 2.2793                 1.9810
 Frc consts  --      0.2018                 0.2214                 0.2227
 IR Inten    --      0.7313                 0.4060                 0.7845

                     19                     20                     21
                      A                      A                      A
 Frequencies --    480.3744               543.9217               632.3983
 Red. masses --      2.4404                 3.2014                 2.5016
 Frc consts  --      0.3318                 0.5580                 0.5895
 IR Inten    --      1.1883                 0.6899                 0.6534

                     22                     23                     24
                      A                      A                      A
 Frequencies --    696.6881               773.6108               799.8345
 Red. masses --      2.1952                 1.2830                 1.2662
 Frc consts  --      0.6278                 0.4524                 0.4773
 IR Inten    --      1.3552                 1.5102                 4.9808

                     25                     26                     27
                      A                      A                      A
 Frequencies --    816.4535               847.2171               873.5377
 Red. masses --      1.3345                 2.1317                 2.5696
 Frc consts  --      0.5241                 0.9015                 1.1553
 IR Inten    --      6.0826                 1.3860                 0.5061

                     28                     29                     30
                      A                      A                      A
 Frequencies --    894.9124               898.0065               936.2655
 Red. masses --      1.9418                 1.3122                 1.5947
 Frc consts  --      0.9163                 0.6235                 0.8236
 IR Inten    --      0.7926                 0.9621                 0.2298

                     31                     32                     33
                      A                      A                      A
 Frequencies --    980.6883              1025.6783              1049.0316
 Red. masses --      2.0101                 1.4739                 1.5674
 Frc consts  --      1.1390                 0.9136                 1.0163
 IR Inten    --      1.4132                 7.0650                 1.4094

                     34                     35                     36
                      A                      A                      A
 Frequencies --   1052.2611              1073.0828              1087.0961
 Red. masses --      1.7449                 1.9670                 1.9921
 Frc consts  --      1.1383                 1.3345                 1.3871
 IR Inten    --      1.4456                 1.3162                 0.7473

                     37                     38                     39
                      A                      A                      A
 Frequencies --   1092.5614              1106.6533              1116.0967
 Red. masses --      1.4906                 1.7699                 1.7898
 Frc consts  --      1.0484                 1.2771                 1.3136
 IR Inten    --      9.2070                 0.5391                 3.6038

                     40                     41                     42
                      A                      A                      A
 Frequencies --   1128.9118              1176.9303              1195.8444
 Red. masses --      1.6602                 2.7882                 2.0647
 Frc consts  --      1.2466                 2.2755                 1.7397
 IR Inten    --      0.6423                 3.4621                 5.5735

                     43                     44                     45
                      A                      A                      A
 Frequencies --   1258.7326              1274.2250              1300.2603
 Red. masses --      1.9228                 1.2868                 1.4228
 Frc consts  --      1.7949                 1.2310                 1.4172
 IR Inten    --      1.3774                 1.0257                 0.6209

                     46                     47                     48
                      A                      A                      A
 Frequencies --   1307.1297              1310.8836              1315.8359
 Red. masses --      1.2482                 1.2952                 1.2228
 Frc consts  --      1.2565                 1.3113                 1.2474
 IR Inten    --      0.4400                 0.9366                 1.1100

                     49                     50                     51
                      A                      A                      A
 Frequencies --   1375.6487              1388.8315              1390.5994
 Red. masses --      1.4446                 1.3196                 1.3783
 Frc consts  --      1.6107                 1.4997                 1.5703
 IR Inten    --      4.4875                 1.8795                 1.0103

                     52                     53                     54
                      A                      A                      A
 Frequencies --   1396.9716              1397.1386              1436.3992
 Red. masses --      1.4503                 1.3731                 1.2319
 Frc consts  --      1.6676                 1.5792                 1.4975
 IR Inten    --      4.5140                 3.2085                 1.0290

                     55                     56                     57
                      A                      A                      A
 Frequencies --   1439.5575              1441.5366              1442.8897
 Red. masses --      1.2705                 1.2646                 1.2378
 Frc consts  --      1.5512                 1.5484                 1.5184
 IR Inten    --      4.7325                 4.9577                 6.2062

                     58                     59                     60
                      A                      A                      A
 Frequencies --   1511.0456              1512.1876              1515.2188
 Red. masses --      1.0756                 1.0638                 1.0731
 Frc consts  --      1.4470                 1.4333                 1.4516
 IR Inten    --      1.1084                 2.7679                 2.3788

                     61                     62                     63
                      A                      A                      A
 Frequencies --   1518.0496              1522.8847              1526.9889
 Red. masses --      1.0625                 1.0594                 1.0591
 Frc consts  --      1.4426                 1.4475                 1.4550
 IR Inten    --      1.2753                 1.5687                 2.5147

                     64                     65                     66
                      A                      A                      A
 Frequencies --   1528.9461              1531.4167              1534.8042
 Red. masses --      1.0452                 1.0561                 1.0452
 Frc consts  --      1.4395                 1.4593                 1.4506
 IR Inten    --      5.2582                 4.6469                 0.5042

                     67                     68                     69
                      A                      A                      A
 Frequencies --   1537.1705              1542.1847              1546.2319
 Red. masses --      1.0779                 1.0576                 1.0638
 Frc consts  --      1.5007                 1.4820                 1.4985
 IR Inten    --      8.7651                 5.8998                 3.2257

                     70                     71                     72
                      A                      A                      A
 Frequencies --   1552.2836              1733.5353              3004.7882
 Red. masses --      1.0806                 7.1541                 1.0719
 Frc consts  --      1.5341                12.6670                 5.7021
 IR Inten    --      3.9231                 0.3987                30.3280

                     73                     74                     75
                      A                      A                      A
 Frequencies --   3029.0540              3034.6445              3042.3129
 Red. masses --      1.0539                 1.0584                 1.0549
 Frc consts  --      5.6972                 5.7427                 5.7525
 IR Inten    --      7.2349                42.8692                51.4471

                     76                     77                     78
                      A                      A                      A
 Frequencies --   3042.9866              3044.5841              3046.4219
 Red. masses --      1.0607                 1.0478                 1.0592
 Frc consts  --      5.7867                 5.7222                 5.7915
 IR Inten    --     14.0101                58.9010                61.3619

                     79                     80                     81
                      A                      A                      A
 Frequencies --   3048.9133              3052.4454              3070.4661
 Red. masses --      1.0389                 1.0382                 1.1000
 Frc consts  --      5.6899                 5.6993                 6.1103
 IR Inten    --     14.3350                25.7934                39.1459

                     82                     83                     84
                      A                      A                      A
 Frequencies --   3071.8668              3075.2936              3078.1689
 Red. masses --      1.0996                 1.1006                 1.0952
 Frc consts  --      6.1136                 6.1325                 6.1142
 IR Inten    --      9.7540                15.9956                19.6670

                     85                     86                     87
                      A                      A                      A
 Frequencies --   3094.5576              3107.2887              3110.9274
 Red. masses --      1.0952                 1.0944                 1.0988
 Frc consts  --      6.1794                 6.2258                 6.2655
 IR Inten    --      9.9288                 6.7326                72.9169

                     88                     89                     90
                      A                      A                      A
 Frequencies --   3115.7392              3116.3856              3120.2252
 Red. masses --      1.0984                 1.1005                 1.1003
 Frc consts  --      6.2828                 6.2971                 6.3116
 IR Inten    --     67.0178                66.9723                25.2594

                     91                     92                     93
                      A                      A                      A
 Frequencies --   3122.5448              3133.8638              3158.8593
 Red. masses --      1.1016                 1.1013                 1.0939
 Frc consts  --      6.3286                 6.3723                 6.4313
 IR Inten    --     67.8199                21.7942                25.5411

 - Thermochemistry -
 -------------------
 Temperature   298.150 Kelvin.  Pressure   1.00000 Atm.
 Atom     1 has atomic number  6 and mass  12.00000

 Molecular mass:   154.17215 amu.
 Principal axes and moments of inertia in atomic units:
                           1         2         3
     Eigenvalues --  1592.541672132.425562768.19287
           X            1.00000  -0.00121   0.00039
           Y            0.00120   0.99995   0.01007
           Z           -0.00040  -0.01007   0.99995
 This molecule is an asymmetric top.
 Rotational symmetry number  1.
 Warning -- assumption of classical behavior for rotation
           may cause significant error
 Rotational temperatures (Kelvin)      0.05439     0.04062     0.03129
 Rotational constants (GHZ):           1.13325     0.84633     0.65196
 Zero-point vibrational energy     815174.2 (Joules/Mol)
                                  194.83130 (Kcal/Mol)
 Warning -- explicit consideration of  20 degrees of freedom as
           vibrations may cause significant error
 Vibrational temperatures:     89.25    94.45   148.73   176.74   181.75
          (Kelvin)            214.77   243.57   287.61   307.24   316.00
                              367.71   397.20   437.80   490.55   502.54
                              569.27   584.21   628.41   691.15   782.58
                              909.88  1002.38  1113.05  1150.78  1174.69
                             1218.96  1256.83  1287.58  1292.03  1347.08
                             1410.99  1475.72  1509.32  1513.97  1543.93
                             1564.09  1571.95  1592.23  1605.81  1624.25
                             1693.34  1720.55  1811.04  1833.33  1870.78
                             1880.67  1886.07  1893.19  1979.25  1998.22
                             2000.76  2009.93  2010.17  2066.66  2071.20
                             2074.05  2076.00  2174.06  2175.70  2180.06
                             2184.13  2191.09  2197.00  2199.81  2203.37
                             2208.24  2211.65  2218.86  2224.68  2233.39
                             2494.17  4323.22  4358.13  4366.18  4377.21
                             4378.18  4380.48  4383.12  4386.71  4391.79
                             4417.72  4419.73  4424.66  4428.80  4452.38
                             4470.70  4475.93  4482.85  4483.78  4489.31
                             4492.65  4508.93  4544.89

 Zero-point correction=                           0.310483 (Hartree/Particle)
 Thermal correction to Energy=                    0.324611
 Thermal correction to Enthalpy=                  0.325555
 Thermal correction to Gibbs Free Energy=         0.270746
 Sum of electronic and zero-point Energies=           -432.162431
 Sum of electronic and thermal Energies=              -432.148304
 Sum of electronic and thermal Enthalpies=            -432.147360
 Sum of electronic and thermal Free Energies=         -432.202168

                     E (Thermal)             CV                S
                      KCal/Mol        Cal/Mol-Kelvin    Cal/Mol-Kelvin
 Total                  203.696             52.632            115.354
 Electronic               0.000              0.000              0.000
 Translational            0.889              2.981             41.008
 Rotational               0.889              2.981             30.620
 Vibrational            201.919             46.671             43.726
 Vibration     1          0.597              1.972              4.391
 Vibration     2          0.597              1.971              4.280
 Vibration     3          0.605              1.947              3.390
 Vibration     4          0.610              1.930              3.055
 Vibration     5          0.611              1.927              3.001
 Vibration     6          0.618              1.903              2.681
 Vibration     7          0.625              1.880              2.443
 Vibration     8          0.638              1.840              2.134
 Vibration     9          0.644              1.820              2.013
 Vibration    10          0.647              1.811              1.962
 Vibration    11          0.666              1.753              1.692
 Vibration    12          0.678              1.718              1.558
 Vibration    13          0.695              1.666              1.393
 Vibration    14          0.720              1.594              1.208
 Vibration    15          0.727              1.577              1.169
 Vibration    16          0.762              1.479              0.979
 Vibration    17          0.771              1.457              0.941
 Vibration    18          0.797              1.390              0.837
 Vibration    19          0.837              1.294              0.709
 Vibration    20          0.899              1.153              0.557

 Optimization completed.
    -- Stationary point found.
 Normal termination of Gaussian 16 at Tue Dec  8 21:06:12 2020.

 ----------------------------------------------------------------------
 # B3LYP/6-311++G(d,p) empiricaldispersion=gd3bj scf=xqc pop=npa geom=c
 heck
 ----------------------------------------------------------------------

 ---------------------------------------
 CID_152494628_JID_1702_Energie_neutraal
 ---------------------------------------
 Structure from the checkpoint file:  "JID_1702.chk"
 Charge =  0 Multiplicity = 1

 SCF Done:  E(RB3LYP) =  -432.592242773     A.U. after   13 cycles
 Normal termination of Gaussian 16 at Tue Dec  8 21:10:43 2020.

 ----------------------------------------------------------------------
 # B3LYP/6-311++G(d,p) empiricaldispersion=gd3bj scf=xqc pop=npa geom=c
 heck
 ----------------------------------------------------------------------

 -------------------------------------
 CID_152494628_JID_1702_Energie_kation
 -------------------------------------
 Structure from the checkpoint file:  "JID_1702.chk"
 Charge =  1 Multiplicity = 2

 SCF Done:  E(UB3LYP) =  -432.299454590     A.U. after   16 cycles
 Normal termination of Gaussian 16 at Tue Dec  8 21:19:00 2020.
 Gaussian 16:  ES64L-G16RevA.03 25-Dec-2016

 ----------------------------------------------------------------------
 # B3LYP/6-311++G(d,p) empiricaldispersion=gd3bj scf=xqc pop=npa geom=c
 heck
 ----------------------------------------------------------------------

 ------------------------------------
 CID_152494628_JID_1702_Energie_anion
 ------------------------------------
 Structure from the checkpoint file:  "JID_1702.chk"
 Charge = -1 Multiplicity = 2

                         Standard orientation:
 ---------------------------------------------------------------------
 Center     Atomic      Atomic             Coordinates (Angstroms)
 Number     Number       Type             X           Y           Z
 ---------------------------------------------------------------------
      1          6           0       -2.579145   -0.649442    1.320790
      2          6           0       -2.251705   -1.113715   -0.099346
      3          6           0       -1.836357    0.021022   -1.057735
      4          6           0       -0.690434    0.896197   -0.568904
      5          6           0        0.608949    0.548130   -0.659146
      6          6           0        1.728991    1.467247   -0.189831
      7          6           0        1.973902    1.445215    1.328748
      8          6           0        1.082981   -0.751164   -1.281317
      9          6           0        1.955258   -1.631738   -0.362044
     10          6           0        1.210748   -2.196511    0.849286
     11          6           0       -1.151176    2.219002    0.001265
     12          1           0       -1.704599   -0.189393    1.793787
     13          1           0       -2.893224   -1.491555    1.947551
     14          1           0       -3.390372    0.089147    1.323358
     15          1           0       -1.448031   -1.855922   -0.053401
     16          1           0       -3.123212   -1.626336   -0.528693
     17          1           0       -1.598533   -0.418379   -2.033695
     18          1           0       -2.710592    0.664205   -1.225780
     19          1           0        2.658121    1.182454   -0.699473
     20          1           0        1.528238    2.499092   -0.500506
     21          1           0        2.251780    0.444888    1.674097
     22          1           0        2.781467    2.133516    1.605181
     23          1           0        1.073164    1.742000    1.876098
     24          1           0        0.240396   -1.348730   -1.640704
     25          1           0        1.684794   -0.501384   -2.169204
     26          1           0        2.358802   -2.459869   -0.959105
     27          1           0        2.825120   -1.055491   -0.023088
     28          1           0        0.421708   -2.890907    0.538176
     29          1           0        1.890257   -2.743848    1.512427
     30          1           0        0.736294   -1.399696    1.431842
     31          1           0       -1.693263    2.794214   -0.762713
     32          1           0       -1.859152    2.061621    0.824880
     33          1           0       -0.341246    2.844909    0.378367
 ---------------------------------------------------------------------

 SCF Done:  E(UB3LYP) =  -432.573703623     A.U. after   32 cycles

 The electronic state is 2-A.
 Alpha  occ. eigenvalues --  -10.06346 -10.06331 -10.06243 -10.06200 -10.06199
 Alpha  occ. eigenvalues --  -10.06138 -10.06112 -10.05596 -10.05505 -10.05426
 Alpha  occ. eigenvalues --  -10.05245  -0.72895  -0.68787  -0.66606  -0.64045
 Alpha  occ. eigenvalues --   -0.60498  -0.58025  -0.54861  -0.51209  -0.48803
 Alpha  occ. eigenvalues --   -0.47092  -0.39702  -0.37574  -0.35871  -0.34869
 Alpha  occ. eigenvalues --   -0.33608  -0.33001  -0.32544  -0.31035  -0.30016
 Alpha  occ. eigenvalues --   -0.29568  -0.28107  -0.27803  -0.27067  -0.26753
 Alpha  occ. eigenvalues --   -0.24839  -0.24359  -0.23893  -0.23790  -0.23177
 Alpha  occ. eigenvalues --   -0.22713  -0.21756  -0.19716  -0.12184   0.04736
 Alpha virt. eigenvalues --    0.06678   0.07038   0.07536   0.08651   0.09096
 Alpha virt. eigenvalues --    0.09258   0.09630   0.10018   0.11474   0.11590
 Alpha virt. eigenvalues --    0.11865   0.12270   0.12566   0.12888   0.13106

  Beta  occ. eigenvalues --  -10.06330 -10.06316 -10.06232 -10.06182 -10.06179
  Beta  occ. eigenvalues --  -10.06135 -10.06108 -10.05569 -10.05480 -10.05398
  Beta  occ. eigenvalues --  -10.05221  -0.72871  -0.68755  -0.66572  -0.64004
  Beta  occ. eigenvalues --   -0.60460  -0.57980  -0.54811  -0.51141  -0.48739
  Beta  occ. eigenvalues --   -0.47031  -0.39669  -0.37543  -0.35841  -0.34827
  Beta  occ. eigenvalues --   -0.33565  -0.32971  -0.32520  -0.31005  -0.29984
  Beta  occ. eigenvalues --   -0.29529  -0.28072  -0.27768  -0.27022  -0.26715
  Beta  occ. eigenvalues --   -0.24805  -0.24328  -0.23862  -0.23759  -0.23144
  Beta  occ. eigenvalues --   -0.22678  -0.21722  -0.19693  -0.12130
  Beta virt. eigenvalues --    0.06811   0.07412   0.07834   0.08092   0.09245
  Beta virt. eigenvalues --    0.09502   0.09764   0.10106   0.10435   0.11901
  Beta virt. eigenvalues --    0.12029   0.12310   0.12595   0.12877   0.13208

 Mulliken charges and spin densities:
               1          2
     1  C    0.349738  -1.039360
     2  C   -0.033588  -0.003078
     3  C   -0.678525   0.068853
     4  C    0.074289   0.097571
     5  C   -0.132436   0.891967
     6  C   -1.752096   1.204599
     7  C    1.153877  -1.692150
     8  C   -0.485891   0.199448
     9  C    0.305562  -0.615727
    10  C    0.344267  -0.913379
    11  C    2.186772  -2.709184
    12  H    0.045851   0.113329
    13  H   -0.177773   0.311567
    14  H   -0.165478   0.301586
    15  H    0.291781  -0.215545
    16  H   -0.215470   0.373577
    17  H   -0.137084   0.315729
    18  H   -0.065410   0.208671
    19  H   -0.233787   0.389751
    20  H   -0.117071   0.285652
    21  H   -0.028021   0.179024
    22  H   -0.434021   0.565936
    23  H   -0.107688   0.246673
    24  H   -0.021281   0.138457
    25  H   -0.165974   0.337923
    26  H   -0.406532   0.573620
    27  H    0.113882   0.010348
    28  H   -0.111929   0.248999
    29  H   -0.295952   0.445756
    30  H    0.095947   0.038125
    31  H   -0.303913   0.452579
    32  H   -0.016987   0.182314
    33  H    0.124940   0.006370
 Sum of Mulliken charges =  -1.00000   1.00000

 Dipole moment (field-independent basis, Debye):
    X=             -1.0118    Y=             -0.1039    Z=             -1.0332  Tot=              1.4498
 Quadrupole moment (field-independent basis, Debye-Ang):
   XX=           -132.9850   YY=           -126.4355   ZZ=           -112.5200
   XY=              1.4727   XZ=              0.3384   YZ=             -1.0744

 Summary of Natural Population Analysis:

                                       Natural Population
                Natural  -----------------------------------------------
    Atom  No    Charge         Core      Valence    Rydberg      Total
 -----------------------------------------------------------------------
      C    1   -0.28729      0.99967     2.28214    0.00548     3.28729
      C    2   -0.18622      0.99963     2.17917    0.00743     3.18622
      C    3   -0.19930      0.99959     2.19068    0.00904     3.19930
      C    4   -0.00913      0.99942     1.99874    0.01096     3.00913
      C    5   -0.01327      0.99941     2.00183    0.01203     3.01327
      C    6   -0.20349      0.99960     2.19477    0.00912     3.20349
      C    7   -0.28119      0.99965     2.27604    0.00550     3.28119
      C    8   -0.19827      0.99958     2.18941    0.00927     3.19827
      C    9   -0.18749      0.99963     2.17995    0.00791     3.18749
      C   10   -0.28782      0.99966     2.28240    0.00576     3.28782
      C   11   -0.29700      0.99962     2.29124    0.00614     3.29700
      H   12    0.09900      0.00000     0.39971    0.00129     0.40100
      H   13    0.09834      0.00000     0.40075    0.00090     0.40166
      H   14    0.09475      0.00000     0.40416    0.00109     0.40525
      H   15    0.09540      0.00000     0.40261    0.00199     0.40460
      H   16    0.09107      0.00000     0.40783    0.00110     0.40893
      H   17    0.10186      0.00000     0.39697    0.00118     0.39814
      H   18    0.09608      0.00000     0.40249    0.00142     0.40392
      H   19    0.09728      0.00000     0.40126    0.00146     0.40272
      H   20    0.10041      0.00000     0.39834    0.00126     0.39959
      H   21    0.09721      0.00000     0.40148    0.00131     0.40279
      H   22    0.09649      0.00000     0.40236    0.00115     0.40351
      H   23    0.09685      0.00000     0.40189    0.00126     0.40315
      H   24    0.09873      0.00000     0.39966    0.00161     0.40127
      H   25    0.09978      0.00000     0.39891    0.00131     0.40022
      H   26    0.09517      0.00000     0.40343    0.00140     0.40483
      H   27    0.09340      0.00000     0.40512    0.00149     0.40660
      H   28    0.09456      0.00000     0.40415    0.00130     0.40544
      H   29    0.09838      0.00000     0.40068    0.00094     0.40162
      H   30    0.09946      0.00000     0.39917    0.00137     0.40054
      H   31    0.10005      0.00000     0.39890    0.00105     0.39995
      H   32    0.10373      0.00000     0.39489    0.00137     0.39627
      H   33    0.10246      0.00000     0.39656    0.00098     0.39754
 =======================================================================
   * Total *    0.00000     10.99547    32.88767    0.11686    44.00000

 Normal termination of Gaussian 16 at Tue Dec  8 21:34:36 2020.
