 Gaussian 16, Revision A.03,

 -----------------------------------------------------------
 # opt freq B3LYP/6-31G(d) empiricaldispersion=gd3bj scf=xqc
 -----------------------------------------------------------

 -------------------------------
 CID_148732524_JID_1443_neutraal
 -------------------------------
 Symbolic Z-matrix:
 Charge =  0 Multiplicity = 1

 SCF Done:  E(RB3LYP) =  -484.363857971     A.U. after   13 cycles
 SCF Done:  E(RB3LYP) =  -484.367167440     A.U. after   10 cycles
 SCF Done:  E(RB3LYP) =  -484.367462034     A.U. after   11 cycles
 SCF Done:  E(RB3LYP) =  -484.367542490     A.U. after   10 cycles
 SCF Done:  E(RB3LYP) =  -484.367574350     A.U. after    9 cycles
 SCF Done:  E(RB3LYP) =  -484.367591113     A.U. after    9 cycles
 SCF Done:  E(RB3LYP) =  -484.367598623     A.U. after    9 cycles
 SCF Done:  E(RB3LYP) =  -484.367604902     A.U. after    8 cycles
 SCF Done:  E(RB3LYP) =  -484.367623035     A.U. after    9 cycles
 SCF Done:  E(RB3LYP) =  -484.367660458     A.U. after   10 cycles
 SCF Done:  E(RB3LYP) =  -484.367915028     A.U. after    9 cycles
 SCF Done:  E(RB3LYP) =  -484.367915740     A.U. after    9 cycles
 SCF Done:  E(RB3LYP) =  -484.367914543     A.U. after    9 cycles
 SCF Done:  E(RB3LYP) =  -484.367916282     A.U. after    9 cycles
 SCF Done:  E(RB3LYP) =  -484.367916261     A.U. after    7 cycles
 SCF Done:  E(RB3LYP) =  -484.367916302     A.U. after    7 cycles
 Optimization completed.
    -- Stationary point found.
 Normal termination of Gaussian 16 at Tue Dec  8 20:07:23 2020.

 --------------------------------------------------------------------
 #N Geom=AllCheck Guess=TCheck SCRF=Check GenChk RB3LYP/6-31G(d) Freq
 --------------------------------------------------------------------

 Structure from the checkpoint file:  "JID_1443.chk"
 -------------------------------
 CID_148732524_JID_1443_neutraal
 -------------------------------
 Charge =  0 Multiplicity = 1

 SCF Done:  E(RB3LYP) =  -484.367916302     A.U. after    1 cycles

  Exact polarizability: 112.883  -0.182 103.206  -1.342   0.035  92.760
 Approx polarizability: 137.733  -1.615 147.351  -0.098   1.993 135.504

                      1                      2                      3
                      A                      A                      A
 Frequencies --     23.8620                70.2260                99.1791
 Red. masses --      2.1816                 2.4920                 2.2848
 Frc consts  --      0.0007                 0.0072                 0.0132
 IR Inten    --      0.0154                 0.3532                 0.3837

                      4                      5                      6
                      A                      A                      A
 Frequencies --    136.2828               180.1956               187.2654
 Red. masses --      3.2272                 2.2433                 1.5447
 Frc consts  --      0.0353                 0.0429                 0.0319
 IR Inten    --      1.3302                 3.0396                11.3502

                      7                      8                      9
                      A                      A                      A
 Frequencies --    205.4431               209.9976               231.1075
 Red. masses --      1.4348                 1.3884                 1.5698
 Frc consts  --      0.0357                 0.0361                 0.0494
 IR Inten    --     12.3200                19.3169                 1.0740

                     10                     11                     12
                      A                      A                      A
 Frequencies --    268.0773               294.0821               323.4197
 Red. masses --      1.9011                 1.7265                 3.1462
 Frc consts  --      0.0805                 0.0880                 0.1939
 IR Inten    --      1.0769                 1.0674                 1.9504

                     13                     14                     15
                      A                      A                      A
 Frequencies --    344.1684               366.2381               458.6207
 Red. masses --      2.3886                 2.6140                 3.2405
 Frc consts  --      0.1667                 0.2066                 0.4016
 IR Inten    --      1.0239                 4.2690                 4.1484

                     16                     17                     18
                      A                      A                      A
 Frequencies --    490.1453               552.6005               593.1896
 Red. masses --      2.3318                 3.1107                 2.3106
 Frc consts  --      0.3301                 0.5597                 0.4790
 IR Inten    --      0.5568                 9.3565                 0.4895

                     19                     20                     21
                      A                      A                      A
 Frequencies --    619.9314               748.2918               779.4760
 Red. masses --      3.0141                 2.5577                 1.3059
 Frc consts  --      0.6825                 0.8438                 0.4675
 IR Inten    --      3.9488                 2.8275                 0.6387

                     22                     23                     24
                      A                      A                      A
 Frequencies --    801.8218               861.3466               877.5226
 Red. masses --      1.4096                 1.9782                 2.2090
 Frc consts  --      0.5340                 0.8647                 1.0022
 IR Inten    --      2.5015                 4.2433                17.4265

                     25                     26                     27
                      A                      A                      A
 Frequencies --    892.4266               908.3055               939.8162
 Red. masses --      2.3078                 2.5206                 5.0091
 Frc consts  --      1.0829                 1.2252                 2.6068
 IR Inten    --      0.9971                 0.9448                12.6692

                     28                     29                     30
                      A                      A                      A
 Frequencies --    949.1261               976.3617               990.1779
 Red. masses --      2.0041                 1.4477                 1.8079
 Frc consts  --      1.0637                 0.8131                 1.0444
 IR Inten    --      4.4335                 2.0926                 6.7212

                     31                     32                     33
                      A                      A                      A
 Frequencies --   1011.0325              1023.0066              1039.3110
 Red. masses --      1.5226                 1.7717                 1.5678
 Frc consts  --      0.9170                 1.0924                 0.9978
 IR Inten    --      2.1783                 4.5731                 2.4992

                     34                     35                     36
                      A                      A                      A
 Frequencies --   1055.2944              1087.7306              1117.6113
 Red. masses --      1.8106                 2.0252                 2.9521
 Frc consts  --      1.1880                 1.4118                 2.1725
 IR Inten    --      3.4580                 4.0375                 0.7191

                     37                     38                     39
                      A                      A                      A
 Frequencies --   1159.7683              1191.3877              1206.8242
 Red. masses --      1.5521                 1.7879                 1.6894
 Frc consts  --      1.2301                 1.4952                 1.4496
 IR Inten    --      3.0852                25.6451                 6.4422

                     40                     41                     42
                      A                      A                      A
 Frequencies --   1227.3326              1239.6696              1248.4540
 Red. masses --      2.0272                 1.6291                 1.5087
 Frc consts  --      1.7992                 1.4750                 1.3855
 IR Inten    --      8.0887                43.4737                21.9382

                     43                     44                     45
                      A                      A                      A
 Frequencies --   1275.2490              1287.1203              1314.0723
 Red. masses --      1.8886                 1.2647                 1.2763
 Frc consts  --      1.8096                 1.2345                 1.2985
 IR Inten    --      5.9252                 3.1007                 1.1438

                     46                     47                     48
                      A                      A                      A
 Frequencies --   1331.4124              1342.9528              1346.0988
 Red. masses --      1.1167                 1.2954                 1.2705
 Frc consts  --      1.1663                 1.3765                 1.3563
 IR Inten    --      1.7432                 1.3277                 5.4622

                     49                     50                     51
                      A                      A                      A
 Frequencies --   1353.2981              1365.0443              1378.8253
 Red. masses --      1.4011                 1.3418                 1.3147
 Frc consts  --      1.5119                 1.4731                 1.4727
 IR Inten    --      3.3652                 0.7692                 2.5352

                     52                     53                     54
                      A                      A                      A
 Frequencies --   1400.8207              1412.0351              1430.2686
 Red. masses --      1.5474                 1.4446                 1.2948
 Frc consts  --      1.7890                 1.6971                 1.5605
 IR Inten    --      2.2213                 2.2648                13.5004

                     55                     56                     57
                      A                      A                      A
 Frequencies --   1436.2475              1507.0367              1516.6926
 Red. masses --      1.2500                 1.0756                 1.0592
 Frc consts  --      1.5193                 1.4393                 1.4356
 IR Inten    --      2.0650                 0.6961                 0.5307

                     58                     59                     60
                      A                      A                      A
 Frequencies --   1519.4669              1521.7407              1527.3523
 Red. masses --      1.0790                 1.0874                 1.0845
 Frc consts  --      1.4678                 1.4837                 1.4906
 IR Inten    --      2.0641                 2.5252                 0.0790

                     61                     62                     63
                      A                      A                      A
 Frequencies --   1531.0998              1538.2017              1548.6263
 Red. masses --      1.0592                 1.0491                 1.0830
 Frc consts  --      1.4630                 1.4624                 1.5303
 IR Inten    --      7.2117                 6.1781                 0.6464

                     64                     65                     66
                      A                      A                      A
 Frequencies --   1549.2560              1690.2600              3041.3164
 Red. masses --      1.0736                 1.0662                 1.0685
 Frc consts  --      1.5182                 1.7948                 5.8231
 IR Inten    --      0.1417                20.6397                28.7258

                     67                     68                     69
                      A                      A                      A
 Frequencies --   3045.6605              3052.0957              3055.6311
 Red. masses --      1.0771                 1.0640                 1.0558
 Frc consts  --      5.8866                 5.8399                 5.8082
 IR Inten    --     12.2258                28.9560                58.5202

                     70                     71                     72
                      A                      A                      A
 Frequencies --   3056.8041              3060.7167              3064.5491
 Red. masses --      1.0484                 1.0614                 1.0435
 Frc consts  --      5.7719                 5.8582                 5.7741
 IR Inten    --      2.3473                20.6830                 3.9723

                     73                     74                     75
                      A                      A                      A
 Frequencies --   3070.2590              3090.0629              3096.5049
 Red. masses --      1.0563                 1.0969                 1.1001
 Frc consts  --      5.8666                 6.1712                 6.2145
 IR Inten    --     40.0488                21.5692                18.7908

                     76                     77                     78
                      A                      A                      A
 Frequencies --   3098.7702              3107.2070              3114.4806
 Red. masses --      1.0991                 1.1025                 1.1045
 Frc consts  --      6.2182                 6.2712                 6.3125
 IR Inten    --     30.0285                24.9484                69.6804

                     79                     80                     81
                      A                      A                      A
 Frequencies --   3118.4935              3133.3282              3137.5147
 Red. masses --      1.1010                 1.1008                 1.1026
 Frc consts  --      6.3088                 6.3677                 6.3952
 IR Inten    --     62.2088                35.6936                27.8428

                     82                     83                     84
                      A                      A                      A
 Frequencies --   3146.7215              3417.7951              3509.9111
 Red. masses --      1.1022                 1.0476                 1.0964
 Frc consts  --      6.4302                 7.2100                 7.9584
 IR Inten    --     22.5011                 4.5807                 0.5516

 - Thermochemistry -
 -------------------
 Temperature   298.150 Kelvin.  Pressure   1.00000 Atm.
 Atom     1 has atomic number  6 and mass  12.00000

 Molecular mass:   157.14666 amu.
 Principal axes and moments of inertia in atomic units:
                           1         2         3
     Eigenvalues --  1158.117432388.786192720.92830
           X            0.99982   0.01825  -0.00426
           Y           -0.01824   0.99983   0.00377
           Z            0.00433  -0.00370   0.99998
 This molecule is an asymmetric top.
 Rotational symmetry number  1.
 Warning -- assumption of classical behavior for rotation
           may cause significant error
 Rotational temperatures (Kelvin)      0.07479     0.03626     0.03183
 Rotational constants (GHZ):           1.55834     0.75551     0.66328
 Zero-point vibrational energy     726893.7 (Joules/Mol)
                                  173.73175 (Kcal/Mol)
 Warning -- explicit consideration of  19 degrees of freedom as
           vibrations may cause significant error
 Vibrational temperatures:     34.33   101.04   142.70   196.08   259.26
          (Kelvin)            269.43   295.59   302.14   332.51   385.70
                              423.12   465.33   495.18   526.93   659.85
                              705.21   795.07   853.47   891.94  1076.63
                             1121.49  1153.64  1239.29  1262.56  1284.00
                             1306.85  1352.19  1365.58  1404.77  1424.65
                             1454.65  1471.88  1495.34  1518.33  1565.00
                             1607.99  1668.65  1714.14  1736.35  1765.86
                             1783.61  1796.25  1834.80  1851.88  1890.66
                             1915.61  1932.21  1936.74  1947.09  1963.99
                             1983.82  2015.47  2031.60  2057.84  2066.44
                             2168.29  2182.18  2186.17  2189.45  2197.52
                             2202.91  2213.13  2228.13  2229.03  2431.91
                             4375.78  4382.03  4391.28  4396.37  4398.06
                             4403.69  4409.20  4417.42  4445.91  4455.18
                             4458.44  4470.58  4481.04  4486.82  4508.16
                             4514.18  4527.43  4917.44  5049.98

 Zero-point correction=                           0.276859 (Hartree/Particle)
 Thermal correction to Energy=                    0.289636
 Thermal correction to Enthalpy=                  0.290580
 Thermal correction to Gibbs Free Energy=         0.237795
 Sum of electronic and zero-point Energies=           -484.091057
 Sum of electronic and thermal Energies=              -484.078281
 Sum of electronic and thermal Enthalpies=            -484.077336
 Sum of electronic and thermal Free Energies=         -484.130122

                     E (Thermal)             CV                S
                      KCal/Mol        Cal/Mol-Kelvin    Cal/Mol-Kelvin
 Total                  181.749             48.115            111.095
 Electronic               0.000              0.000              0.000
 Translational            0.889              2.981             41.065
 Rotational               0.889              2.981             30.399
 Vibrational            179.972             42.153             39.631
 Vibration     1          0.593              1.985              6.284
 Vibration     2          0.598              1.968              4.147
 Vibration     3          0.604              1.950              3.470
 Vibration     4          0.614              1.917              2.855
 Vibration     5          0.629              1.867              2.326
 Vibration     6          0.632              1.857              2.255
 Vibration     7          0.640              1.832              2.084
 Vibration     8          0.642              1.826              2.044
 Vibration     9          0.653              1.793              1.870
 Vibration    10          0.673              1.732              1.609
 Vibration    11          0.689              1.685              1.450
 Vibration    12          0.708              1.629              1.293
 Vibration    13          0.723              1.587              1.193
 Vibration    14          0.739              1.542              1.096
 Vibration    15          0.817              1.342              0.770
 Vibration    16          0.846              1.272              0.683
 Vibration    17          0.908              1.134              0.539
 Vibration    18          0.951              1.046              0.462
 Vibration    19          0.980              0.990              0.417

 Optimization completed.
    -- Stationary point found.
 Normal termination of Gaussian 16 at Tue Dec  8 20:14:00 2020.

 ----------------------------------------------------------------------
 # B3LYP/6-311++G(d,p) empiricaldispersion=gd3bj scf=xqc pop=npa geom=c
 heck
 ----------------------------------------------------------------------

 ---------------------------------------
 CID_148732524_JID_1443_Energie_neutraal
 ---------------------------------------
 Structure from the checkpoint file:  "JID_1443.chk"
 Charge =  0 Multiplicity = 1

 SCF Done:  E(RB3LYP) =  -484.511489957     A.U. after   14 cycles
 Normal termination of Gaussian 16 at Tue Dec  8 20:17:06 2020.

 ----------------------------------------------------------------------
 # B3LYP/6-311++G(d,p) empiricaldispersion=gd3bj scf=xqc pop=npa geom=c
 heck
 ----------------------------------------------------------------------

 -------------------------------------
 CID_148732524_JID_1443_Energie_kation
 -------------------------------------
 Structure from the checkpoint file:  "JID_1443.chk"
 Charge =  1 Multiplicity = 2

 SCF Done:  E(UB3LYP) =  -484.178319125     A.U. after   24 cycles
 Normal termination of Gaussian 16 at Tue Dec  8 20:23:23 2020.
 Gaussian 16:  ES64L-G16RevA.03 25-Dec-2016

 ----------------------------------------------------------------------
 # B3LYP/6-311++G(d,p) empiricaldispersion=gd3bj scf=xqc pop=npa geom=c
 heck
 ----------------------------------------------------------------------

 ------------------------------------
 CID_148732524_JID_1443_Energie_anion
 ------------------------------------
 Structure from the checkpoint file:  "JID_1443.chk"
 Charge = -1 Multiplicity = 2

                         Standard orientation:
 ---------------------------------------------------------------------
 Center     Atomic      Atomic             Coordinates (Angstroms)
 Number     Number       Type             X           Y           Z
 ---------------------------------------------------------------------
      1          6           0       -2.631889   -1.637758   -0.747275
      2          6           0       -1.155754   -1.230159   -0.714724
      3          6           0       -0.830961   -0.027613    0.190454
      4          6           0       -1.410675   -0.190471    1.599714
      5          6           0        0.679379    0.274271    0.270580
      6          6           0        1.544449   -0.781525    1.015230
      7          6           0        2.939124   -0.752184    0.326834
      8          6           0        2.888479    0.436405   -0.654891
      9          6           0        1.412039    0.493251   -1.065874
     10          8           0       -1.497571    1.064794   -0.499596
     11          7           0       -1.372561    2.299628    0.232570
     12          1           0       -2.967095   -2.044530    0.212480
     13          1           0       -2.797636   -2.409437   -1.507193
     14          1           0       -3.263237   -0.778452   -0.992076
     15          1           0       -0.544165   -2.082993   -0.397645
     16          1           0       -0.838266   -0.976304   -1.731296
     17          1           0       -1.044029   -1.110655    2.066645
     18          1           0       -1.121256    0.656174    2.227408
     19          1           0       -2.503042   -0.235048    1.566740
     20          1           0        0.753711    1.215197    0.829326
     21          1           0        1.610205   -0.549154    2.082720
     22          1           0        1.105905   -1.782551    0.942817
     23          1           0        3.099971   -1.682141   -0.231277
     24          1           0        3.761033   -0.668210    1.045133
     25          1           0        3.573570    0.319451   -1.501583
     26          1           0        3.162414    1.365591   -0.137798
     27          1           0        1.198346   -0.321056   -1.769424
     28          1           0        1.125581    1.429732   -1.554833
     29          1           0       -0.985801    2.940516   -0.462625
     30          1           0       -2.342864    2.592828    0.360976
 ---------------------------------------------------------------------

 SCF Done:  E(UB3LYP) =  -484.494364094     A.U. after   27 cycles

 The electronic state is 2-A.
 Alpha  occ. eigenvalues --  -19.02937 -14.23094 -10.11423 -10.05864 -10.05827
 Alpha  occ. eigenvalues --  -10.05626 -10.05611 -10.05492 -10.05266 -10.05045
 Alpha  occ. eigenvalues --  -10.04499  -0.94500  -0.74196  -0.71418  -0.65567
 Alpha  occ. eigenvalues --   -0.62514  -0.60087  -0.58687  -0.53149  -0.47879
 Alpha  occ. eigenvalues --   -0.46154  -0.42463  -0.39460  -0.38641  -0.37407
 Alpha  occ. eigenvalues --   -0.35722  -0.34317  -0.31886  -0.31805  -0.30754
 Alpha  occ. eigenvalues --   -0.29976  -0.27672  -0.27279  -0.25882  -0.24503
 Alpha  occ. eigenvalues --   -0.23611  -0.23117  -0.23001  -0.22435  -0.21458
 Alpha  occ. eigenvalues --   -0.21107  -0.19836  -0.15347  -0.14435   0.04804
 Alpha virt. eigenvalues --    0.06944   0.07218   0.08071   0.09142   0.09319
 Alpha virt. eigenvalues --    0.09576   0.10441   0.10873   0.11750   0.12077
 Alpha virt. eigenvalues --    0.12344   0.13111   0.13417   0.14292   0.14544

  Beta  occ. eigenvalues --  -19.02925 -14.23033 -10.11421 -10.05854 -10.05810
  Beta  occ. eigenvalues --  -10.05613 -10.05593 -10.05486 -10.05247 -10.05030
  Beta  occ. eigenvalues --  -10.04476  -0.94463  -0.74148  -0.71357  -0.65496
  Beta  occ. eigenvalues --   -0.62482  -0.60049  -0.58649  -0.53101  -0.47838
  Beta  occ. eigenvalues --   -0.46096  -0.42411  -0.39406  -0.38591  -0.37360
  Beta  occ. eigenvalues --   -0.35697  -0.34280  -0.31852  -0.31774  -0.30726
  Beta  occ. eigenvalues --   -0.29944  -0.27645  -0.27250  -0.25850  -0.24470
  Beta  occ. eigenvalues --   -0.23589  -0.23081  -0.22967  -0.22410  -0.21430
  Beta  occ. eigenvalues --   -0.21083  -0.19811  -0.15322  -0.14381
  Beta virt. eigenvalues --    0.06941   0.07750   0.08096   0.08647   0.09538
  Beta virt. eigenvalues --    0.09870   0.10083   0.10857   0.11212   0.12252
  Beta virt. eigenvalues --    0.12537   0.12579   0.13339   0.13759   0.14531

 Mulliken charges and spin densities:
               1          2
     1  C    0.873456  -1.490612
     2  C   -0.393787   0.106465
     3  C    0.131984   0.113078
     4  C    0.164228  -0.816184
     5  C   -0.851960   0.922744
     6  C    0.736892  -1.324893
     7  C    0.307714  -0.740870
     8  C    0.182375  -0.634901
     9  C   -0.528291   0.375552
    10  O   -0.105631   0.082261
    11  N   -0.038518  -0.207837
    12  H   -0.035047   0.166113
    13  H   -0.118577   0.251129
    14  H    0.025870   0.156067
    15  H   -0.151495   0.298044
    16  H    0.087012   0.069299
    17  H   -0.175787   0.330765
    18  H    0.058131   0.112210
    19  H   -0.197657   0.361341
    20  H    0.253137   0.033213
    21  H   -0.169404   0.327466
    22  H    0.133565  -0.005267
    23  H   -0.101179   0.229936
    24  H   -0.112365   0.255315
    25  H   -0.322167   0.489411
    26  H   -0.005967   0.133511
    27  H    0.019306   0.092755
    28  H   -0.166426   0.318233
    29  H   -0.225808   0.471398
    30  H   -0.273605   0.524260
 Sum of Mulliken charges =  -1.00000   1.00000

 Dipole moment (field-independent basis, Debye):
    X=              0.7928    Y=             -2.7790    Z=             -0.0789  Tot=              2.8909
 Quadrupole moment (field-independent basis, Debye-Ang):
   XX=           -127.9099   YY=           -116.4145   ZZ=           -104.8849
   XY=              4.9430   XZ=              1.3623   YZ=              1.8714

 Summary of Natural Population Analysis:

                                       Natural Population
                Natural  -----------------------------------------------
    Atom  No    Charge         Core      Valence    Rydberg      Total
 -----------------------------------------------------------------------
      C    1   -0.28447      0.99966     2.28030    0.00451     3.28447
      C    2   -0.19729      0.99956     2.18922    0.00851     3.19729
      C    3    0.15038      0.99949     1.83079    0.01934     2.84962
      C    4   -0.30499      0.99961     2.29777    0.00762     3.30499
      C    5   -0.12618      0.99954     2.11384    0.01280     3.12618
      C    6   -0.19040      0.99962     2.18261    0.00816     3.19040
      C    7   -0.18959      0.99964     2.18299    0.00695     3.18959
      C    8   -0.18922      0.99964     2.18198    0.00761     3.18922
      C    9   -0.18978      0.99962     2.18030    0.00986     3.18978
      O   10   -0.25126      0.99988     3.23839    0.01300     4.25126
      N   11   -0.25749      0.99975     2.74619    0.01155     3.75749
      H   12    0.09476      0.00000     0.40414    0.00111     0.40524
      H   13    0.09545      0.00000     0.40361    0.00093     0.40455
      H   14    0.10350      0.00000     0.39499    0.00151     0.39650
      H   15    0.09764      0.00000     0.40111    0.00125     0.40236
      H   16    0.10202      0.00000     0.39637    0.00162     0.39798
      H   17    0.10104      0.00000     0.39791    0.00105     0.39896
      H   18    0.10969      0.00000     0.38891    0.00140     0.39031
      H   19    0.10309      0.00000     0.39580    0.00111     0.39691
      H   20    0.10779      0.00000     0.38976    0.00245     0.39221
      H   21    0.09921      0.00000     0.39976    0.00104     0.40079
      H   22    0.09520      0.00000     0.40331    0.00148     0.40480
      H   23    0.09300      0.00000     0.40555    0.00144     0.40700
      H   24    0.09710      0.00000     0.40168    0.00122     0.40290
      H   25    0.09720      0.00000     0.40172    0.00109     0.40280
      H   26    0.09317      0.00000     0.40538    0.00145     0.40683
      H   27    0.09259      0.00000     0.40575    0.00166     0.40741
      H   28    0.10435      0.00000     0.39451    0.00114     0.39565
      H   29    0.17204      0.00000     0.32393    0.00403     0.32796
      H   30    0.17145      0.00000     0.32429    0.00426     0.32855
 =======================================================================
   * Total *    0.00000     10.99600    32.86284    0.14116    44.00000

 Normal termination of Gaussian 16 at Tue Dec  8 20:30:27 2020.
