 Gaussian 16, Revision A.03,

 -----------------------------------------------------------
 # opt freq B3LYP/6-31G(d) empiricaldispersion=gd3bj scf=xqc
 -----------------------------------------------------------

 -------------------------------
 CID_103294535_JID_9322_neutraal
 -------------------------------
 Symbolic Z-matrix:
 Charge =  0 Multiplicity = 1

 SCF Done:  E(RB3LYP) =  -817.380415005     A.U. after   15 cycles
 SCF Done:  E(RB3LYP) =  -817.396850383     A.U. after   13 cycles
 SCF Done:  E(RB3LYP) =  -817.397826859     A.U. after   14 cycles
 SCF Done:  E(RB3LYP) =  -817.402183669     A.U. after   13 cycles
 SCF Done:  E(RB3LYP) =  -817.405424367     A.U. after   13 cycles
 SCF Done:  E(RB3LYP) =  -817.407472178     A.U. after   13 cycles
 SCF Done:  E(RB3LYP) =  -817.408508218     A.U. after   14 cycles
 SCF Done:  E(RB3LYP) =  -817.409073295     A.U. after   12 cycles
 SCF Done:  E(RB3LYP) =  -817.409158261     A.U. after   12 cycles
 SCF Done:  E(RB3LYP) =  -817.409283518     A.U. after   11 cycles
 SCF Done:  E(RB3LYP) =  -817.409321253     A.U. after   10 cycles
 SCF Done:  E(RB3LYP) =  -817.409324986     A.U. after   11 cycles
 SCF Done:  E(RB3LYP) =  -817.409326884     A.U. after    9 cycles
 SCF Done:  E(RB3LYP) =  -817.409326912     A.U. after    7 cycles
 SCF Done:  E(RB3LYP) =  -817.409326963     A.U. after    7 cycles
 Optimization completed.
    -- Stationary point found.
 Normal termination of Gaussian 16 at Sun Dec 13 16:17:40 2020.

 --------------------------------------------------------------------
 #N Geom=AllCheck Guess=TCheck SCRF=Check GenChk RB3LYP/6-31G(d) Freq
 --------------------------------------------------------------------

 Structure from the checkpoint file:  "JID_9322.chk"
 -------------------------------
 CID_103294535_JID_9322_neutraal
 -------------------------------
 Charge =  0 Multiplicity = 1

 SCF Done:  E(RB3LYP) =  -817.409326963     A.U. after    1 cycles

  Exact polarizability: 239.676   9.306 154.432  10.689  15.970 121.733
 Approx polarizability: 319.831   9.768 252.696  12.241  39.726 201.780

                      1                      2                      3
                      A                      A                      A
 Frequencies --     28.4606                32.3801                45.9515
 Red. masses --      4.6712                 4.6159                 4.8895
 Frc consts  --      0.0022                 0.0029                 0.0061
 IR Inten    --      0.9248                 1.6508                 3.5401

                      4                      5                      6
                      A                      A                      A
 Frequencies --     50.8662                77.0680                84.2657
 Red. masses --      2.8919                 3.4649                 3.1530
 Frc consts  --      0.0044                 0.0121                 0.0132
 IR Inten    --      1.9773                 2.1957                 0.2037

                      7                      8                      9
                      A                      A                      A
 Frequencies --    105.8220               115.6458               151.6968
 Red. masses --      3.7759                 3.6251                 3.9783
 Frc consts  --      0.0249                 0.0286                 0.0539
 IR Inten    --      1.0852                 3.7056                 0.2090

                     10                     11                     12
                      A                      A                      A
 Frequencies --    165.6830               199.2131               233.1105
 Red. masses --      2.9383                 3.7988                 3.3205
 Frc consts  --      0.0475                 0.0888                 0.1063
 IR Inten    --      0.9443                 0.4937                 0.0743

                     13                     14                     15
                      A                      A                      A
 Frequencies --    301.1893               312.9215               354.8042
 Red. masses --      4.5284                 3.3810                 4.5554
 Frc consts  --      0.2420                 0.1951                 0.3379
 IR Inten    --      0.9659                 0.9836                 1.2183

                     16                     17                     18
                      A                      A                      A
 Frequencies --    386.7418               388.4010               404.5010
 Red. masses --      4.0900                 4.0779                 3.5752
 Frc consts  --      0.3604                 0.3624                 0.3447
 IR Inten    --      2.1464                 0.3941                 1.1268

                     19                     20                     21
                      A                      A                      A
 Frequencies --    440.4864               459.2620               520.9759
 Red. masses --      2.8859                 3.6496                 4.0065
 Frc consts  --      0.3299                 0.4535                 0.6407
 IR Inten    --      6.0169                 1.2504                 2.7485

                     22                     23                     24
                      A                      A                      A
 Frequencies --    587.7825               631.7680               642.6523
 Red. masses --      3.8312                 4.9220                 5.1223
 Frc consts  --      0.7799                 1.1575                 1.2464
 IR Inten    --      2.0921                 1.4410                 1.1059

                     25                     26                     27
                      A                      A                      A
 Frequencies --    669.9662               706.8854               738.7219
 Red. masses --      5.7241                 3.9262                 3.4826
 Frc consts  --      1.5138                 1.1559                 1.1197
 IR Inten    --      8.9519                10.8168                12.3790

                     28                     29                     30
                      A                      A                      A
 Frequencies --    762.5737               764.8889               772.0000
 Red. masses --      2.4391                 1.9842                 1.3702
 Frc consts  --      0.8357                 0.6840                 0.4811
 IR Inten    --     14.8202                27.9784                35.7621

                     31                     32                     33
                      A                      A                      A
 Frequencies --    795.5461               809.7609               820.6850
 Red. masses --      1.8779                 1.1563                 1.5931
 Frc consts  --      0.7003                 0.4467                 0.6322
 IR Inten    --      3.8315                 2.5690                 5.6249

                     34                     35                     36
                      A                      A                      A
 Frequencies --    827.3478               838.2292               868.8084
 Red. masses --      1.6590                 1.3494                 1.7396
 Frc consts  --      0.6691                 0.5586                 0.7737
 IR Inten    --     28.8909                 4.8370                 5.4757

                     37                     38                     39
                      A                      A                      A
 Frequencies --    878.2408               917.5059               939.5665
 Red. masses --      1.3754                 3.8167                 4.1426
 Frc consts  --      0.6250                 1.8930                 2.1546
 IR Inten    --     12.8573                19.1371                13.2456

                     40                     41                     42
                      A                      A                      A
 Frequencies --    950.5466               960.0948               991.1430
 Red. masses --      1.3529                 3.2180                 2.1257
 Frc consts  --      0.7202                 1.7477                 1.2303
 IR Inten    --      0.1651                23.5889                15.2064

                     43                     44                     45
                      A                      A                      A
 Frequencies --    999.9386              1001.6980              1007.3367
 Red. masses --      1.3744                 1.4947                 4.8976
 Frc consts  --      0.8097                 0.8836                 2.9281
 IR Inten    --      1.1431                16.6893                40.0054

                     46                     47                     48
                      A                      A                      A
 Frequencies --   1042.5439              1051.5219              1070.6628
 Red. masses --      6.7839                 1.4222                 1.4695
 Frc consts  --      4.3443                 0.9265                 0.9925
 IR Inten    --      1.2384                 5.6815                11.1535

                     49                     50                     51
                      A                      A                      A
 Frequencies --   1074.0708              1080.7152              1094.1424
 Red. masses --      2.1996                 1.4068                 1.4184
 Frc consts  --      1.4951                 0.9681                 1.0005
 IR Inten    --      7.4953                 2.2573                 4.0007

                     52                     53                     54
                      A                      A                      A
 Frequencies --   1099.4129              1109.2384              1125.9042
 Red. masses --      1.7375                 3.4391                 1.6965
 Frc consts  --      1.2374                 2.4931                 1.2671
 IR Inten    --      6.8206                14.1852                 4.5629

                     55                     56                     57
                      A                      A                      A
 Frequencies --   1129.7277              1136.2936              1144.6173
 Red. masses --      1.4020                 1.1676                 2.2425
 Frc consts  --      1.0543                 0.8882                 1.7311
 IR Inten    --      9.2134                 6.8995                 8.2284

                     58                     59                     60
                      A                      A                      A
 Frequencies --   1182.9240              1195.4043              1204.2573
 Red. masses --      2.1855                 1.6303                 1.8475
 Frc consts  --      1.8018                 1.3726                 1.5786
 IR Inten    --     19.2173                 6.6867                 4.7340

                     61                     62                     63
                      A                      A                      A
 Frequencies --   1206.7629              1212.4942              1225.3311
 Red. masses --      2.0459                 1.3980                 2.5630
 Frc consts  --      1.7554                 1.2109                 2.2673
 IR Inten    --      1.0016                 1.6895                 2.6620

                     64                     65                     66
                      A                      A                      A
 Frequencies --   1236.5600              1242.0798              1255.0328
 Red. masses --      1.8182                 1.9388                 1.7390
 Frc consts  --      1.6380                 1.7623                 1.6139
 IR Inten    --      7.6025                 5.6452                 5.5589

                     67                     68                     69
                      A                      A                      A
 Frequencies --   1291.4360              1331.1901              1356.0302
 Red. masses --      1.5227                 2.7227                 1.4622
 Frc consts  --      1.4963                 2.8426                 1.5841
 IR Inten    --     11.0935                 2.4273                49.9574

                     70                     71                     72
                      A                      A                      A
 Frequencies --   1400.1577              1403.4705              1408.6661
 Red. masses --      1.8295                 2.2446                 2.4330
 Frc consts  --      2.1132                 2.6050                 2.8445
 IR Inten    --     15.1955                20.8629                26.0969

                     73                     74                     75
                      A                      A                      A
 Frequencies --   1444.9605              1450.2023              1488.5572
 Red. masses --      2.6305                 2.8133                 1.1465
 Frc consts  --      3.2359                 3.4859                 1.4968
 IR Inten    --     43.0781                35.3591                27.9544

                     76                     77                     78
                      A                      A                      A
 Frequencies --   1492.0071              1494.4334              1509.0552
 Red. masses --      2.6085                 1.0906                 1.2338
 Frc consts  --      3.4212                 1.4350                 1.6554
 IR Inten    --    172.6039                 2.5727                23.9182

                     79                     80                     81
                      A                      A                      A
 Frequencies --   1520.5700              1533.0245              1535.8167
 Red. masses --      3.8081                 1.4417                 1.4850
 Frc consts  --      5.1877                 1.9963                 2.0637
 IR Inten    --     44.5287                 5.5629                13.8409

                     82                     83                     84
                      A                      A                      A
 Frequencies --   1538.6216              1608.0204              1631.1317
 Red. masses --      1.1120                 5.7608                 7.7044
 Frc consts  --      1.5510                 8.7763                12.0773
 IR Inten    --      5.2290                 0.2078                 3.5110

                     85                     86                     87
                      A                      A                      A
 Frequencies --   1634.9128              2970.1369              3046.3702
 Red. masses --      5.5390                 1.0718                 1.0886
 Frc consts  --      8.7231                 5.5710                 5.9521
 IR Inten    --     81.7368                61.5010                24.6945

                     88                     89                     90
                      A                      A                      A
 Frequencies --   3138.8249              3141.6702              3144.7406
 Red. masses --      1.0512                 1.0741                 1.0736
 Frc consts  --      6.1021                 6.2461                 6.2553
 IR Inten    --     20.7818                20.0471                 7.2139

                     91                     92                     93
                      A                      A                      A
 Frequencies --   3151.9884              3154.8154              3160.0300
 Red. masses --      1.0823                 1.0531                 1.0613
 Frc consts  --      6.3353                 6.1757                 6.2443
 IR Inten    --      6.2943                15.8336                 7.4703

                     94                     95                     96
                      A                      A                      A
 Frequencies --   3201.0681              3214.1089              3216.9914
 Red. masses --      1.0884                 1.1188                 1.0942
 Frc consts  --      6.5711                 6.8097                 6.6719
 IR Inten    --      4.3794                 0.8350                20.2779

                     97                     98                     99
                      A                      A                      A
 Frequencies --   3228.6297              3231.9633              3239.0457
 Red. masses --      1.1156                 1.1200                 1.0960
 Frc consts  --      6.8514                 6.8930                 6.7746
 IR Inten    --     31.9459                 0.3493                 2.6174

                    100                    101                    102
                      A                      A                      A
 Frequencies --   3246.1461              3246.2514              3489.8018
 Red. masses --      1.1162                 1.0966                 1.0741
 Frc consts  --      6.9299                 6.8085                 7.7074
 IR Inten    --     19.4739                 6.3529                 0.1472

 - Thermochemistry -
 -------------------
 Temperature   298.150 Kelvin.  Pressure   1.00000 Atm.
 Atom     1 has atomic number  6 and mass  12.00000

 Molecular mass:   255.14840 amu.
 Principal axes and moments of inertia in atomic units:
                           1         2         3
     Eigenvalues --  1992.567059682.12760**********
           X            0.99996   0.00849   0.00063
           Y           -0.00848   0.99993  -0.00871
           Z           -0.00070   0.00870   0.99996
 This molecule is an asymmetric top.
 Rotational symmetry number  1.
 Warning -- assumption of classical behavior for rotation
           may cause significant error
 Rotational temperatures (Kelvin)      0.04347     0.00895     0.00830
 Rotational constants (GHZ):           0.90574     0.18640     0.17289
 Zero-point vibrational energy     784497.1 (Joules/Mol)
                                  187.49931 (Kcal/Mol)
 Warning -- explicit consideration of  22 degrees of freedom as
           vibrations may cause significant error
 Vibrational temperatures:     40.95    46.59    66.11    73.19   110.88
          (Kelvin)            121.24   152.25   166.39   218.26   238.38
                              286.62   335.39   433.34   450.22   510.48
                              556.44   558.82   581.99   633.76   660.78
                              749.57   845.69   908.97   924.63   963.93
                             1017.05  1062.86  1097.17  1100.50  1110.74
                             1144.61  1165.07  1180.78  1190.37  1206.02
                             1250.02  1263.59  1320.09  1351.83  1367.62
                             1381.36  1426.03  1438.69  1441.22  1449.33
                             1499.99  1512.91  1540.44  1545.35  1554.91
                             1574.23  1581.81  1595.95  1619.92  1625.43
                             1634.87  1646.85  1701.96  1719.92  1732.66
                             1736.26  1744.51  1762.98  1779.13  1787.08
                             1805.71  1858.09  1915.29  1951.03  2014.51
                             2019.28  2026.76  2078.98  2086.52  2141.70
                             2146.67  2150.16  2171.19  2187.76  2205.68
                             2209.70  2213.73  2313.58  2346.83  2352.27
                             4273.36  4383.05  4516.07  4520.16  4524.58
                             4535.01  4539.08  4546.58  4605.62  4624.39
                             4628.53  4645.28  4650.07  4660.26  4670.48
                             4670.63  5021.05

 Zero-point correction=                           0.298799 (Hartree/Particle)
 Thermal correction to Energy=                    0.315651
 Thermal correction to Enthalpy=                  0.316595
 Thermal correction to Gibbs Free Energy=         0.251792
 Sum of electronic and zero-point Energies=           -817.110528
 Sum of electronic and thermal Energies=              -817.093676
 Sum of electronic and thermal Enthalpies=            -817.092732
 Sum of electronic and thermal Free Energies=         -817.157535

                     E (Thermal)             CV                S
                      KCal/Mol        Cal/Mol-Kelvin    Cal/Mol-Kelvin
 Total                  198.074             64.168            136.390
 Electronic               0.000              0.000              0.000
 Translational            0.889              2.981             42.510
 Rotational               0.889              2.981             33.665
 Vibrational            196.296             58.207             60.215
 Vibration     1          0.593              1.984              5.934
 Vibration     2          0.594              1.983              5.678
 Vibration     3          0.595              1.979              4.984
 Vibration     4          0.595              1.977              4.783
 Vibration     5          0.599              1.964              3.964
 Vibration     6          0.601              1.960              3.789
 Vibration     7          0.605              1.945              3.344
 Vibration     8          0.608              1.936              3.172
 Vibration     9          0.619              1.901              2.651
 Vibration    10          0.624              1.885              2.484
 Vibration    11          0.637              1.841              2.140
 Vibration    12          0.654              1.790              1.855
 Vibration    13          0.693              1.671              1.410
 Vibration    14          0.701              1.649              1.347
 Vibration    15          0.731              1.565              1.145
 Vibration    16          0.755              1.498              1.013
 Vibration    17          0.757              1.495              1.006
 Vibration    18          0.770              1.460              0.946
 Vibration    19          0.800              1.382              0.825
 Vibration    20          0.817              1.340              0.768
 Vibration    21          0.876              1.204              0.608
 Vibration    22          0.945              1.058              0.471

 Optimization completed.
    -- Stationary point found.
 Normal termination of Gaussian 16 at Sun Dec 13 16:36:11 2020.

 ----------------------------------------------------------------------
 # B3LYP/6-311++G(d,p) empiricaldispersion=gd3bj scf=xqc pop=npa geom=c
 heck
 ----------------------------------------------------------------------

 ---------------------------------------
 CID_103294535_JID_9322_Energie_neutraal
 ---------------------------------------
 Structure from the checkpoint file:  "JID_9322.chk"
 Charge =  0 Multiplicity = 1

 SCF Done:  E(RB3LYP) =  -817.622771153     A.U. after   16 cycles
 Normal termination of Gaussian 16 at Sun Dec 13 16:45:09 2020.

 ----------------------------------------------------------------------
 # B3LYP/6-311++G(d,p) empiricaldispersion=gd3bj scf=xqc pop=npa geom=c
 heck
 ----------------------------------------------------------------------

 -------------------------------------
 CID_103294535_JID_9322_Energie_kation
 -------------------------------------
 Structure from the checkpoint file:  "JID_9322.chk"
 Charge =  1 Multiplicity = 2

 SCF Done:  E(UB3LYP) =  -817.332690527     A.U. after   31 cycles
 Normal termination of Gaussian 16 at Sun Dec 13 17:09:20 2020.
 Gaussian 16:  ES64L-G16RevA.03 25-Dec-2016

 ----------------------------------------------------------------------
 # B3LYP/6-311++G(d,p) empiricaldispersion=gd3bj scf=xqc pop=npa geom=c
 heck
 ----------------------------------------------------------------------

 ------------------------------------
 CID_103294535_JID_9322_Energie_anion
 ------------------------------------
 Structure from the checkpoint file:  "JID_9322.chk"
 Charge = -1 Multiplicity = 2

                         Standard orientation:
 ---------------------------------------------------------------------
 Center     Atomic      Atomic             Coordinates (Angstroms)
 Number     Number       Type             X           Y           Z
 ---------------------------------------------------------------------
      1          6           0        1.030768    2.213553   -1.042475
      2          6           0       -0.402310    2.177259   -1.497638
      3          6           0        0.012167    1.416100   -0.256366
      4          6           0        0.015502   -0.063104   -0.287663
      5          6           0       -1.026178   -0.940977   -0.541207
      6          6           0       -0.434955   -2.227674   -0.496695
      7          7           0        0.867064   -2.181489   -0.244656
      8          7           0        1.133619   -0.851611   -0.109190
      9          6           0        2.445260   -0.432286    0.206063
     10          7           0        3.425862   -0.991365   -0.504679
     11          7           0        4.689866   -0.655468   -0.248911
     12          6           0        4.954149    0.254147    0.691896
     13          6           0        3.965578    0.878154    1.459608
     14          6           0        2.655693    0.513540    1.218075
     15          6           0       -2.458412   -0.573366   -0.767857
     16          7           0       -3.000809    0.143444    0.394693
     17          6           0       -4.389113    0.496277    0.243628
     18          6           0       -5.502578   -0.533758    0.294973
     19          6           0       -5.304874    0.452803    1.428636
     20          1           0        1.414641    3.125058   -0.594080
     21          1           0        1.759906    1.663224   -1.629308
     22          1           0       -1.018707    3.060290   -1.361270
     23          1           0       -0.631005    1.596867   -2.386150
     24          1           0       -0.330338    1.854542    0.678772
     25          1           0       -0.916210   -3.187404   -0.639623
     26          1           0        6.007554    0.482058    0.828840
     27          1           0        4.224723    1.603590    2.224265
     28          1           0        1.823272    0.918212    1.780977
     29          1           0       -2.551129    0.101095   -1.629566
     30          1           0       -3.038230   -1.478801   -1.019060
     31          1           0       -2.872952   -0.432960    1.224692
     32          1           0       -4.530067    1.321407   -0.453397
     33          1           0       -6.365638   -0.413757   -0.354457
     34          1           0       -5.220599   -1.567774    0.478318
     35          1           0       -4.902022    0.071527    2.364554
     36          1           0       -6.026599    1.254255    1.557826
 ---------------------------------------------------------------------

 SCF Done:  E(UB3LYP) =  -817.630159932     A.U. after   33 cycles
 SCF Done:  E(UB3LYP) =  -817.630159932     a.u. after    1 cycles

 The electronic state is 2-A.
 Alpha  occ. eigenvalues --  -14.27636 -14.21443 -14.21440 -14.18458 -14.17676
 Alpha  occ. eigenvalues --  -10.12011 -10.11105 -10.10679 -10.10209 -10.09444
 Alpha  occ. eigenvalues --  -10.09071 -10.08866 -10.08019 -10.07768 -10.07575
 Alpha  occ. eigenvalues --  -10.07261 -10.06214 -10.05183 -10.04445  -0.93770
 Alpha  occ. eigenvalues --   -0.86691  -0.83594  -0.77011  -0.75322  -0.73849
 Alpha  occ. eigenvalues --   -0.68585  -0.67760  -0.65644  -0.58986  -0.53495
 Alpha  occ. eigenvalues --   -0.52912  -0.52423  -0.51871  -0.51022  -0.50587
 Alpha  occ. eigenvalues --   -0.47121  -0.45202  -0.42131  -0.41805  -0.40808
 Alpha  occ. eigenvalues --   -0.39575  -0.38002  -0.37561  -0.36600  -0.34931
 Alpha  occ. eigenvalues --   -0.33163  -0.32934  -0.32073  -0.31339  -0.29003
 Alpha  occ. eigenvalues --   -0.28992  -0.28898  -0.28222  -0.27560  -0.27103
 Alpha  occ. eigenvalues --   -0.26775  -0.23598  -0.22075  -0.21412  -0.20640
 Alpha  occ. eigenvalues --   -0.17808  -0.17609  -0.17388  -0.17010  -0.13952
 Alpha  occ. eigenvalues --   -0.13353  -0.12671  -0.08941   0.03927
 Alpha virt. eigenvalues --    0.05263   0.06757   0.07049   0.07384   0.08294
 Alpha virt. eigenvalues --    0.08637   0.09419   0.09459   0.09832   0.10309
 Alpha virt. eigenvalues --    0.11185   0.11394   0.11704   0.11986   0.12893

  Beta  occ. eigenvalues --  -14.27633 -14.21435 -14.21423 -14.18086 -14.17128
  Beta  occ. eigenvalues --  -10.12003 -10.11174 -10.10677 -10.10193 -10.09431
  Beta  occ. eigenvalues --  -10.09062 -10.08864 -10.08025 -10.07751 -10.07572
  Beta  occ. eigenvalues --  -10.07357 -10.06209 -10.05003 -10.04138  -0.93732
  Beta  occ. eigenvalues --   -0.85924  -0.83580  -0.76982  -0.75294  -0.73723
  Beta  occ. eigenvalues --   -0.68423  -0.67250  -0.65307  -0.58921  -0.53243
  Beta  occ. eigenvalues --   -0.52667  -0.52338  -0.51719  -0.50985  -0.50513
  Beta  occ. eigenvalues --   -0.46985  -0.45087  -0.42084  -0.41767  -0.40776
  Beta  occ. eigenvalues --   -0.39522  -0.37794  -0.37424  -0.36541  -0.34895
  Beta  occ. eigenvalues --   -0.33080  -0.32855  -0.31924  -0.31292  -0.28975
  Beta  occ. eigenvalues --   -0.28880  -0.28749  -0.27441  -0.27138  -0.27071
  Beta  occ. eigenvalues --   -0.26455  -0.23582  -0.22057  -0.21365  -0.20551
  Beta  occ. eigenvalues --   -0.17518  -0.17317  -0.16905  -0.14810  -0.13899
  Beta  occ. eigenvalues --   -0.13110  -0.12166  -0.08301
  Beta virt. eigenvalues --    0.05660   0.06836   0.07031   0.07399   0.08306
  Beta virt. eigenvalues --    0.08781   0.09387   0.09530   0.09817   0.10088
  Beta virt. eigenvalues --    0.10391   0.11176   0.11343   0.11694   0.12013

 Mulliken charges and spin densities:
               1          2
     1  C   -0.163950  -0.190804
     2  C   -0.167142  -0.337651
     3  C   -0.462371   0.224603
     4  C    0.117434  -0.012874
     5  C    0.395497  -0.027573
     6  C   -0.364240  -0.065148
     7  N   -0.139218  -0.016264
     8  N    0.598911   0.053860
     9  C   -1.049339  -0.265858
    10  N   -0.080611   0.268928
    11  N   -0.092589   0.137205
    12  C   -0.307001  -0.059375
    13  C   -0.440148   0.297597
    14  C    0.755868   0.223689
    15  C   -0.756094   0.022019
    16  N    0.159306  -0.079870
    17  C   -0.557265   0.521649
    18  C    0.006283  -0.355302
    19  C    0.298618  -0.689682
    20  H    0.047424   0.107242
    21  H    0.192702   0.008864
    22  H   -0.018096   0.165063
    23  H    0.092165   0.043874
    24  H    0.120370   0.125116
    25  H    0.115726   0.014260
    26  H    0.127144   0.011678
    27  H    0.099919   0.009669
    28  H    0.080145   0.070945
    29  H    0.096999   0.028215
    30  H    0.097315   0.028204
    31  H    0.232848  -0.055982
    32  H   -0.080300   0.305358
    33  H   -0.018956   0.147266
    34  H    0.123631   0.010918
    35  H    0.034246   0.098516
    36  H   -0.095228   0.231643
 Sum of Mulliken charges =  -1.00000   1.00000

 Dipole moment (field-independent basis, Debye):
    X=             -6.2810    Y=              1.8121    Z=              1.1881  Tot=              6.6443
 Quadrupole moment (field-independent basis, Debye-Ang):
   XX=           -206.2618   YY=           -140.4072   ZZ=           -128.1067
   XY=             21.4489   XZ=              8.6970   YZ=             -1.9520

 Summary of Natural Population Analysis:

                                       Natural Population
                Natural  -----------------------------------------------
    Atom  No    Charge         Core      Valence    Rydberg      Total
 -----------------------------------------------------------------------
      C    1   -0.19001      0.99962     2.18355    0.00684     3.19001
      C    2   -0.19268      0.99962     2.18507    0.00799     3.19268
      C    3   -0.13423      0.99957     2.12237    0.01228     3.13423
      C    4    0.09482      0.99945     1.89314    0.01259     2.90518
      C    5   -0.07978      0.99946     2.07142    0.00890     3.07978
      C    6   -0.01651      0.99959     2.00191    0.01501     3.01651
      N    7   -0.13141      0.99973     2.62024    0.01143     3.63141
      N    8   -0.10812      0.99958     2.59324    0.01530     3.60812
      C    9    0.15555      0.99950     1.82736    0.01759     2.84445
      N   10   -0.05044      0.99967     2.53731    0.01346     3.55044
      N   11   -0.08483      0.99973     2.56820    0.01690     3.58483
      C   12   -0.01781      0.99961     2.00371    0.01449     3.01781
      C   13   -0.06134      0.99956     2.05247    0.00931     3.06134
      C   14   -0.08014      0.99952     2.07323    0.00739     3.08014
      C   15   -0.09038      0.99959     2.08146    0.00933     3.09038
      N   16   -0.32992      0.99973     2.81870    0.01149     3.82992
      C   17   -0.01544      0.99958     2.00102    0.01484     3.01544
      C   18   -0.21359      0.99963     2.20700    0.00696     3.21359
      C   19   -0.20049      0.99963     2.19375    0.00711     3.20049
      H   20    0.10225      0.00000     0.39662    0.00113     0.39775
      H   21    0.11034      0.00000     0.38830    0.00136     0.38966
      H   22    0.10087      0.00000     0.39812    0.00101     0.39913
      H   23    0.10150      0.00000     0.39751    0.00098     0.39850
      H   24    0.11216      0.00000     0.38636    0.00148     0.38784
      H   25    0.09283      0.00000     0.40609    0.00108     0.40717
      H   26    0.08458      0.00000     0.41407    0.00135     0.41542
      H   27    0.09303      0.00000     0.40584    0.00113     0.40697
      H   28    0.09841      0.00000     0.39991    0.00167     0.40159
      H   29    0.09527      0.00000     0.40296    0.00177     0.40473
      H   30    0.08345      0.00000     0.41484    0.00171     0.41655
      H   31    0.17031      0.00000     0.32639    0.00330     0.32969
      H   32    0.09780      0.00000     0.40093    0.00127     0.40220
      H   33    0.10062      0.00000     0.39812    0.00126     0.39938
      H   34    0.10018      0.00000     0.39876    0.00106     0.39982
      H   35    0.10000      0.00000     0.39892    0.00108     0.40000
      H   36    0.10313      0.00000     0.39559    0.00128     0.39687
 =======================================================================
   * Total *   -0.00000     18.99239    48.76448    0.24312    68.00000

 Normal termination of Gaussian 16 at Sun Dec 13 17:35:49 2020.
