 Gaussian 16, Revision A.03,

 -----------------------------------------------------------
 # opt freq B3LYP/6-31G(d) empiricaldispersion=gd3bj scf=xqc
 -----------------------------------------------------------

 -----------------------------
 CID_54074443_JID_336_neutraal
 -----------------------------
 Symbolic Z-matrix:
 Charge =  0 Multiplicity = 1

 SCF Done:  E(RB3LYP) =  -464.948579549     A.U. after   14 cycles
 SCF Done:  E(RB3LYP) =  -464.950527687     A.U. after   13 cycles
 SCF Done:  E(RB3LYP) =  -464.949479110     A.U. after   12 cycles
 SCF Done:  E(RB3LYP) =  -464.950881785     A.U. after   12 cycles
 SCF Done:  E(RB3LYP) =  -464.950926583     A.U. after   11 cycles
 SCF Done:  E(RB3LYP) =  -464.950972453     A.U. after   12 cycles
 SCF Done:  E(RB3LYP) =  -464.950984291     A.U. after   10 cycles
 SCF Done:  E(RB3LYP) =  -464.950988340     A.U. after   10 cycles
 SCF Done:  E(RB3LYP) =  -464.950989651     A.U. after    9 cycles
 SCF Done:  E(RB3LYP) =  -464.950990726     A.U. after    9 cycles
 SCF Done:  E(RB3LYP) =  -464.950992932     A.U. after    8 cycles
 SCF Done:  E(RB3LYP) =  -464.950993463     A.U. after    8 cycles
 SCF Done:  E(RB3LYP) =  -464.950993927     A.U. after    8 cycles
 SCF Done:  E(RB3LYP) =  -464.950994257     A.U. after    8 cycles
 SCF Done:  E(RB3LYP) =  -464.950994304     A.U. after    7 cycles
 Optimization completed.
    -- Stationary point found.

 1\1\GINC-NODE100\FOpt\RB3LYP\6-31G(d)\C8H16O2\VSC10255\08-Dec-2020\0\\
 # opt freq B3LYP/6-31G(d) empiricaldispersion=gd3bj scf=xqc\\CID_54074
 443_JID_336_neutraal\\0,1\C,0.9030857463,0.2336240138,-0.0483825492\C,
 -0.0127428235,-0.1623550605,-1.2118261008\C,0.5114109124,-1.3348212325
 ,-2.0541968077\C,0.6184632541,-2.6808302247,-1.3348207332\O,-0.6470056
 086,-3.2510408193,-1.0163425353\C,-1.1853326954,-2.9229123625,0.261801
 3253\C,-1.302497475,-4.1753781917,1.1331700886\C,0.0203094985,-4.92296
 30845,1.3032219562\C,1.0938372678,-4.1820060759,2.0600788089\O,0.99873

 Normal termination of Gaussian 16 at Tue Dec  8 10:26:39 2020.

 --------------------------------------------------------------------
 #N Geom=AllCheck Guess=TCheck SCRF=Check GenChk RB3LYP/6-31G(d) Freq
 --------------------------------------------------------------------

 Structure from the checkpoint file:  "JID_336.chk"
 -----------------------------
 CID_54074443_JID_336_neutraal
 -----------------------------
 Charge =  0 Multiplicity = 1

 SCF Done:  E(RB3LYP) =  -464.950994304     A.U. after    1 cycles

  Exact polarizability:  96.682   3.726  85.507  -1.813  -0.219  85.760
 Approx polarizability: 118.976   6.953 124.601  -3.943  -5.021 123.587

                      1                      2                      3
                      A                      A                      A
 Frequencies --     22.0381                45.1220                52.3525
 Red. masses --      4.1589                 3.1383                 5.7406
 Frc consts  --      0.0012                 0.0038                 0.0093
 IR Inten    --      1.3898                 1.2171                 3.9729

                      4                      5                      6
                      A                      A                      A
 Frequencies --     97.3696               126.1066               167.5033
 Red. masses --      3.1156                 2.6607                 1.4901
 Frc consts  --      0.0174                 0.0249                 0.0246
 IR Inten    --      0.7622                 9.0572                 0.2091

                      7                      8                      9
                      A                      A                      A
 Frequencies --    187.6726               212.9289               245.8543
 Red. masses --      3.3849                 2.2409                 2.1936
 Frc consts  --      0.0702                 0.0599                 0.0781
 IR Inten    --      4.9644                 0.7269                 2.7640

                     10                     11                     12
                      A                      A                      A
 Frequencies --    261.9625               299.8026               382.8008
 Red. masses --      1.5601                 2.4142                 1.9791
 Frc consts  --      0.0631                 0.1278                 0.1709
 IR Inten    --      0.9296                 7.9719                 2.6590

                     13                     14                     15
                      A                      A                      A
 Frequencies --    418.2587               467.6222               531.3528
 Red. masses --      2.2664                 1.9570                 2.2656
 Frc consts  --      0.2336                 0.2521                 0.3769
 IR Inten    --      1.1478                 2.0149                 4.3624

                     16                     17                     18
                      A                      A                      A
 Frequencies --    643.6564               745.0573               762.6146
 Red. masses --      1.6253                 1.6757                 1.5814
 Frc consts  --      0.3967                 0.5481                 0.5419
 IR Inten    --      4.3314                10.6710                 6.0722

                     19                     20                     21
                      A                      A                      A
 Frequencies --    805.3633               815.3199               840.9978
 Red. masses --      2.2145                 2.9190                 2.1501
 Frc consts  --      0.8463                 1.1432                 0.8960
 IR Inten    --      1.8771                 7.2174                 6.8704

                     22                     23                     24
                      A                      A                      A
 Frequencies --    877.2731               925.4096               954.8068
 Red. masses --      1.5330                 1.7763                 1.9385
 Frc consts  --      0.6951                 0.8963                 1.0412
 IR Inten    --      1.2861                 2.2199                14.2902

                     25                     26                     27
                      A                      A                      A
 Frequencies --    981.4265               998.9554              1048.8508
 Red. masses --      2.2310                 1.4836                 1.6669
 Frc consts  --      1.2661                 0.8723                 1.0804
 IR Inten    --      7.7735                 3.7971                20.3142

                     28                     29                     30
                      A                      A                      A
 Frequencies --   1070.8907              1088.9805              1118.7947
 Red. masses --      1.6647                 1.9686                 2.4415
 Frc consts  --      1.1248                 1.3755                 1.8006
 IR Inten    --     30.8867                 2.2484                22.4544

                     31                     32                     33
                      A                      A                      A
 Frequencies --   1143.0678              1161.6559              1174.6073
 Red. masses --      2.0223                 2.2611                 3.0537
 Frc consts  --      1.5568                 1.7978                 2.4823
 IR Inten    --     13.2196                25.2574               113.5606

                     34                     35                     36
                      A                      A                      A
 Frequencies --   1227.4237              1264.0711              1283.3059
 Red. masses --      1.3013                 1.2410                 1.3125
 Frc consts  --      1.1551                 1.1683                 1.2735
 IR Inten    --      1.5499                 6.3410                 1.9709

                     37                     38                     39
                      A                      A                      A
 Frequencies --   1308.9237              1329.0423              1353.7192
 Red. masses --      1.2882                 1.1478                 1.1080
 Frc consts  --      1.3004                 1.1945                 1.1964
 IR Inten    --      2.8127                 4.9189                 5.6810

                     40                     41                     42
                      A                      A                      A
 Frequencies --   1386.6820              1392.6419              1403.7905
 Red. masses --      1.3724                 1.5797                 1.4090
 Frc consts  --      1.5548                 1.8051                 1.6359
 IR Inten    --     13.5004                 3.9350                11.5429

                     43                     44                     45
                      A                      A                      A
 Frequencies --   1413.1108              1423.8805              1441.5918
 Red. masses --      1.4358                 1.3106                 1.2076
 Frc consts  --      1.6893                 1.5655                 1.4787
 IR Inten    --      0.9267                22.1304                 7.3823

                     46                     47                     48
                      A                      A                      A
 Frequencies --   1448.7188              1451.9235              1474.4495
 Red. masses --      1.2540                 1.2686                 1.0976
 Frc consts  --      1.5506                 1.5757                 1.4059
 IR Inten    --      4.8544                10.0498                22.3284

                     49                     50                     51
                      A                      A                      A
 Frequencies --   1500.8544              1505.0888              1519.4785
 Red. masses --      1.0912                 1.0967                 1.0772
 Frc consts  --      1.4482                 1.4637                 1.4653
 IR Inten    --      1.3780                 4.6973                 1.8186

                     52                     53                     54
                      A                      A                      A
 Frequencies --   1526.9954              1531.6603              1543.7023
 Red. masses --      1.0614                 1.0546                 1.0703
 Frc consts  --      1.4581                 1.4577                 1.5027
 IR Inten    --      1.5437                 7.4139                 3.3858

                     55                     56                     57
                      A                      A                      A
 Frequencies --   1552.6452              1824.2683              2895.0365
 Red. masses --      1.0845                 9.3207                 1.0835
 Frc consts  --      1.5404                18.2758                 5.3503
 IR Inten    --      3.2705               125.1215               149.0613

                     58                     59                     60
                      A                      A                      A
 Frequencies --   3020.2284              3028.5839              3029.9619
 Red. masses --      1.0641                 1.0620                 1.0630
 Frc consts  --      5.7186                 5.7390                 5.7497
 IR Inten    --     17.6414                35.0420                47.3782

                     61                     62                     63
                      A                      A                      A
 Frequencies --   3039.3229              3044.1025              3046.3413
 Red. masses --      1.0678                 1.0610                 1.0430
 Frc consts  --      5.8115                 5.7929                 5.7029
 IR Inten    --     14.2238                32.8603                21.4264

                     64                     65                     66
                      A                      A                      A
 Frequencies --   3054.0923              3062.6430              3070.2291
 Red. masses --      1.0807                 1.0765                 1.0978
 Frc consts  --      5.9391                 5.9494                 6.0971
 IR Inten    --      7.4794                38.7911                21.4316

                     67                     68                     69
                      A                      A                      A
 Frequencies --   3078.0976              3083.9605              3095.9257
 Red. masses --      1.0993                 1.1009                 1.1035
 Frc consts  --      6.1366                 6.1692                 6.2317
 IR Inten    --     41.3817                59.8123                14.5962

                     70                     71                     72
                      A                      A                      A
 Frequencies --   3109.9065              3119.5271              3133.9699
 Red. masses --      1.1009                 1.1017                 1.0960
 Frc consts  --      6.2731                 6.3170                 6.3423
 IR Inten    --     51.7215                49.2704                19.7647

 - Thermochemistry -
 -------------------
 Temperature   298.150 Kelvin.  Pressure   1.00000 Atm.
 Atom     1 has atomic number  6 and mass  12.00000

 Molecular mass:   144.11503 amu.
 Principal axes and moments of inertia in atomic units:
                           1         2         3
     Eigenvalues --   991.679792310.809892730.59332
           X            0.99941   0.03428  -0.00286
           Y           -0.03428   0.99941   0.00041
           Z            0.00287  -0.00031   1.00000
 This molecule is an asymmetric top.
 Rotational symmetry number  1.
 Warning -- assumption of classical behavior for rotation
           may cause significant error
 Rotational temperatures (Kelvin)      0.08734     0.03748     0.03172
 Rotational constants (GHZ):           1.81988     0.78100     0.66093
 Zero-point vibrational energy     614260.7 (Joules/Mol)
                                  146.81184 (Kcal/Mol)
 Warning -- explicit consideration of  15 degrees of freedom as
           vibrations may cause significant error
 Vibrational temperatures:     31.71    64.92    75.32   140.09   181.44
          (Kelvin)            241.00   270.02   306.36   353.73   376.91
                              431.35   550.76   601.78   672.80   764.50
                              926.08  1071.97  1097.23  1158.74  1173.06
                             1210.01  1262.20  1331.46  1373.75  1412.05
                             1437.27  1509.06  1540.77  1566.80  1609.70
                             1644.62  1671.36  1690.00  1765.99  1818.72
                             1846.39  1883.25  1912.20  1947.70  1995.13
                             2003.70  2019.74  2033.15  2048.65  2074.13
                             2084.38  2088.99  2121.40  2159.39  2165.49
                             2186.19  2197.01  2203.72  2221.04  2233.91
                             2624.72  4165.31  4345.44  4357.46  4359.44
                             4372.91  4379.78  4383.01  4394.16  4406.46
                             4417.37  4428.70  4437.13  4454.35  4474.46
                             4488.30  4509.08

 Zero-point correction=                           0.233960 (Hartree/Particle)
 Thermal correction to Energy=                    0.246073
 Thermal correction to Enthalpy=                  0.247017
 Thermal correction to Gibbs Free Energy=         0.194096
 Sum of electronic and zero-point Energies=           -464.717035
 Sum of electronic and thermal Energies=              -464.704921
 Sum of electronic and thermal Enthalpies=            -464.703977
 Sum of electronic and thermal Free Energies=         -464.756899

                     E (Thermal)             CV                S
                      KCal/Mol        Cal/Mol-Kelvin    Cal/Mol-Kelvin
 Total                  154.413             42.603            111.383
 Electronic               0.000              0.000              0.000
 Translational            0.889              2.981             40.807
 Rotational               0.889              2.981             30.216
 Vibrational            152.636             36.641             40.360
 Vibration     1          0.593              1.985              6.442
 Vibration     2          0.595              1.979              5.020
 Vibration     3          0.596              1.977              4.726
 Vibration     4          0.603              1.951              3.506
 Vibration     5          0.611              1.927              3.005
 Vibration     6          0.624              1.882              2.463
 Vibration     7          0.632              1.857              2.251
 Vibration     8          0.644              1.821              2.018
 Vibration     9          0.660              1.770              1.760
 Vibration    10          0.669              1.742              1.649
 Vibration    11          0.692              1.674              1.418
 Vibration    12          0.752              1.507              1.028
 Vibration    13          0.781              1.431              0.898
 Vibration    14          0.825              1.322              0.744
 Vibration    15          0.886              1.181              0.584

                           ! Non-Optimized Parameters !

 1\1\GINC-NODE100\Freq\RB3LYP\6-31G(d)\C8H16O2\VSC10255\08-Dec-2020\0\\
 #N Geom=AllCheck Guess=TCheck SCRF=Check GenChk RB3LYP/6-31G(d) Freq\\
 CID_54074443_JID_336_neutraal\\0,1\C,0.9030857463,0.2336240138,-0.0483
 825492\C,-0.0127428235,-0.1623550605,-1.2118261008\C,0.5114109124,-1.3
 348212325,-2.0541968077\C,0.6184632541,-2.6808302247,-1.3348207332\O,-
 0.6470056086,-3.2510408193,-1.0163425353\C,-1.1853326954,-2.9229123625
 ,0.2618013253\C,-1.302497475,-4.1753781917,1.1331700886\C,0.0203094985
 ,-4.9229630845,1.3032219562\C,1.0938372678,-4.1820060759,2.0600788089\

 Normal termination of Gaussian 16 at Tue Dec  8 10:31:39 2020.

 ----------------------------------------------------------------------
 # B3LYP/6-311++G(d,p) empiricaldispersion=gd3bj scf=xqc pop=npa geom=c
 heck
 ----------------------------------------------------------------------

 -------------------------------------
 CID_54074443_JID_336_Energie_neutraal
 -------------------------------------
 Structure from the checkpoint file:  "JID_336.chk"
 Charge =  0 Multiplicity = 1

 SCF Done:  E(RB3LYP) =  -465.089859197     A.U. after   13 cycles
 Normal termination of Gaussian 16 at Tue Dec  8 10:33:56 2020.

 ----------------------------------------------------------------------
 # B3LYP/6-311++G(d,p) empiricaldispersion=gd3bj scf=xqc pop=npa geom=c
 heck
 ----------------------------------------------------------------------

 -----------------------------------
 CID_54074443_JID_336_Energie_kation
 -----------------------------------
 Structure from the checkpoint file:  "JID_336.chk"
 Charge =  1 Multiplicity = 2

 SCF Done:  E(UB3LYP) =  -464.760684846     A.U. after   24 cycles
 Normal termination of Gaussian 16 at Tue Dec  8 10:40:41 2020.
 Gaussian 16:  ES64L-G16RevA.03 25-Dec-2016

 ----------------------------------
 CID_54074443_JID_336_Energie_anion
 ----------------------------------
 Structure from the checkpoint file:  "JID_336.chk"
 Charge = -1 Multiplicity = 2

                         Standard orientation:
 ---------------------------------------------------------------------
 Center     Atomic      Atomic             Coordinates (Angstroms)
 Number     Number       Type             X           Y           Z
 ---------------------------------------------------------------------
      1          6           0        2.406586    1.659993   -0.364012
      2          6           0        2.732804    0.169228   -0.506644
      3          6           0        2.359923   -0.676568    0.719974
      4          6           0        0.867256   -0.764529    1.043870
      5          8           0        0.126883   -1.515292    0.086696
      6          6           0       -0.433325   -0.780137   -0.998122
      7          6           0       -1.961744   -0.843099   -0.957462
      8          6           0       -2.554967   -0.352514    0.363535
      9          6           0       -2.349221    1.110597    0.665670
     10          8           0       -1.726702    1.891410   -0.024162
     11          1           0        1.332042    1.845112   -0.258005
     12          1           0        2.748821    2.221428   -1.240420
     13          1           0        2.902118    2.085240    0.517796
     14          1           0        2.239465   -0.238917   -1.397286
     15          1           0        3.810314    0.057055   -0.684368
     16          1           0        2.730351   -1.700613    0.585002
     17          1           0        2.870862   -0.268982    1.605283
     18          1           0        0.740347   -1.292416    1.996729
     19          1           0        0.433378    0.238145    1.164501
     20          1           0       -0.110029    0.262906   -0.973284
     21          1           0       -0.073997   -1.222626   -1.936543
     22          1           0       -2.356226   -0.248034   -1.790379
     23          1           0       -2.280647   -1.879794   -1.116132
     24          1           0       -3.638186   -0.540690    0.410656
     25          1           0       -2.130157   -0.922433    1.203195
     26          1           0       -2.823783    1.457853    1.612127
 ---------------------------------------------------------------------

 SCF Done:  E(UB3LYP) =  -465.073749645     A.U. after   33 cycles
 SCF Done:  E(UB3LYP) =  -465.073749645     a.u. after    1 cycles

 The electronic state is 2-A.
 Alpha  occ. eigenvalues --  -19.01254 -19.00533 -10.14034 -10.10689 -10.10487
 Alpha  occ. eigenvalues --  -10.06794 -10.06399 -10.06278 -10.05986 -10.05462
 Alpha  occ. eigenvalues --   -0.93572  -0.92308  -0.69675  -0.68221  -0.62839
 Alpha  occ. eigenvalues --   -0.59196  -0.54092  -0.50355  -0.46565  -0.44220
 Alpha  occ. eigenvalues --   -0.39542  -0.38248  -0.37334  -0.35629  -0.34872
 Alpha  occ. eigenvalues --   -0.32798  -0.32437  -0.30514  -0.29527  -0.28795
 Alpha  occ. eigenvalues --   -0.27794  -0.26110  -0.25118  -0.24242  -0.23563
 Alpha  occ. eigenvalues --   -0.23276  -0.22240  -0.20424  -0.14812  -0.14445
 Alpha  occ. eigenvalues --    0.04845
 Alpha virt. eigenvalues --    0.06587   0.07219   0.07821   0.08494   0.09185
 Alpha virt. eigenvalues --    0.09531   0.10125   0.10782   0.11469   0.12033
 Alpha virt. eigenvalues --    0.12695   0.13396   0.14187   0.15001   0.15331

  Beta  occ. eigenvalues --  -19.01249 -19.00411 -10.13901 -10.10675 -10.10479
  Beta  occ. eigenvalues --  -10.06774 -10.06387 -10.06262 -10.05969 -10.05442
  Beta  occ. eigenvalues --   -0.93342  -0.92296  -0.69632  -0.68164  -0.62772
  Beta  occ. eigenvalues --   -0.59111  -0.54019  -0.50247  -0.46505  -0.44013
  Beta  occ. eigenvalues --   -0.39493  -0.38161  -0.37284  -0.35495  -0.34806
  Beta  occ. eigenvalues --   -0.32737  -0.32315  -0.30429  -0.29484  -0.28645
  Beta  occ. eigenvalues --   -0.27573  -0.26063  -0.25015  -0.24004  -0.23536
  Beta  occ. eigenvalues --   -0.23237  -0.22194  -0.20389  -0.14795  -0.14325
  Beta virt. eigenvalues --    0.07087   0.07818   0.08313   0.08478   0.08923
  Beta virt. eigenvalues --    0.09763   0.10113   0.10581   0.11157   0.11745
  Beta virt. eigenvalues --    0.12511   0.13047   0.13737   0.14441   0.15086

 Mulliken charges and spin densities:
               1          2
     1  C    0.426856  -0.959683
     2  C   -0.466189   0.394362
     3  C    1.134787  -1.524676
     4  C   -0.254918   0.027207
     5  O   -0.078260   0.029685
     6  C   -0.326617   0.073777
     7  C    0.734108  -1.206343
     8  C   -0.023269  -0.039827
     9  C    0.615622  -0.662288
    10  O   -0.274764   0.039282
    11  H   -0.082832   0.231180
    12  H   -0.033986   0.159369
    13  H   -0.060030   0.185010
    14  H    0.022120   0.100759
    15  H   -0.483405   0.662756
    16  H    0.010940   0.143764
    17  H   -0.285252   0.410996
    18  H   -0.423140   0.591481
    19  H    0.010343   0.113915
    20  H    0.284061  -0.148471
    21  H   -0.114570   0.261134
    22  H    0.066735   0.076372
    23  H   -0.109663   0.270895
    24  H   -0.873137   1.085548
    25  H   -0.031846   0.210914
    26  H   -0.383693   0.472882
 Sum of Mulliken charges =  -1.00000   1.00000

 Dipole moment (field-independent basis, Debye):
    X=              1.5728    Y=             -0.3049    Z=             -2.1677  Tot=              2.6955
 Quadrupole moment (field-independent basis, Debye-Ang):
   XX=           -137.8228   YY=           -101.0701   ZZ=            -93.0390
   XY=              0.7297   XZ=              3.0583   YZ=              1.7274

 Summary of Natural Population Analysis:

                                       Natural Population
                Natural  -----------------------------------------------
    Atom  No    Charge         Core      Valence    Rydberg      Total
 -----------------------------------------------------------------------
      C    1   -0.29065      0.99966     2.28507    0.00592     3.29065
      C    2   -0.19410      0.99964     2.18646    0.00800     3.19410
      C    3   -0.20073      0.99962     2.19216    0.00895     3.20073
      C    4   -0.00905      0.99956     1.99641    0.01307     3.00905
      O    5   -0.31012      0.99988     3.30035    0.00990     4.31012
      C    6   -0.01279      0.99956     2.00160    0.01164     3.01279
      C    7   -0.20076      0.99962     2.19053    0.01061     3.20076
      C    8   -0.24850      0.99961     2.23867    0.01022     3.24850
      C    9    0.24377      0.99973     1.73587    0.02063     2.75623
      O   10   -0.27577      0.99988     3.26889    0.00699     4.27577
      H   11    0.10219      0.00000     0.39671    0.00110     0.39781
      H   12    0.09724      0.00000     0.40197    0.00079     0.40276
      H   13    0.09538      0.00000     0.40363    0.00099     0.40462
      H   14    0.09435      0.00000     0.40419    0.00146     0.40565
      H   15    0.09593      0.00000     0.40264    0.00142     0.40407
      H   16    0.09888      0.00000     0.39982    0.00130     0.40112
      H   17    0.09585      0.00000     0.40264    0.00151     0.40415
      H   18    0.08881      0.00000     0.40974    0.00145     0.41119
      H   19    0.08157      0.00000     0.41675    0.00168     0.41843
      H   20    0.09224      0.00000     0.40589    0.00187     0.40776
      H   21    0.08180      0.00000     0.41702    0.00118     0.41820
      H   22    0.10112      0.00000     0.39784    0.00104     0.39888
      H   23    0.09913      0.00000     0.39967    0.00119     0.40087
      H   24    0.11251      0.00000     0.38592    0.00157     0.38749
      H   25    0.11672      0.00000     0.38073    0.00255     0.38328
      H   26    0.04497      0.00000     0.45179    0.00324     0.45503
 =======================================================================
   * Total *    0.00000      9.99677    29.87295    0.13027    40.00000

 Normal termination of Gaussian 16 at Tue Dec  8 10:51:27 2020.
