 Gaussian 16, Revision A.03,

 -----------------------------------------------------------
 # opt freq B3LYP/6-31G(d) empiricaldispersion=gd3bj scf=xqc
 -----------------------------------------------------------

 -----------------------------
 CID_57684259_JID_840_neutraal
 -----------------------------
 Symbolic Z-matrix:
 Charge =  0 Multiplicity = 1

 SCF Done:  E(RB3LYP) =  -426.654503276     A.U. after   15 cycles
 SCF Done:  E(RB3LYP) =  -426.655783979     A.U. after   12 cycles
 SCF Done:  E(RB3LYP) =  -426.655273570     A.U. after   12 cycles
 SCF Done:  E(RB3LYP) =  -426.656240647     A.U. after   11 cycles
 SCF Done:  E(RB3LYP) =  -426.656252797     A.U. after   10 cycles
 SCF Done:  E(RB3LYP) =  -426.656257755     A.U. after    9 cycles
 SCF Done:  E(RB3LYP) =  -426.656258335     A.U. after    7 cycles
 SCF Done:  E(RB3LYP) =  -426.656258463     A.U. after    7 cycles
 SCF Done:  E(RB3LYP) =  -426.656258496     A.U. after    6 cycles
 Optimization completed.
    -- Stationary point found.

 1\1\GINC-NODE105\FOpt\RB3LYP\6-31G(d)\C9H14O1\VSC10255\08-Dec-2020\0\\
 # opt freq B3LYP/6-31G(d) empiricaldispersion=gd3bj scf=xqc\\CID_57684
 259_JID_840_neutraal\\0,1\C,1.037050889,-0.0417040293,0.0454231241\C,0
 .3136069097,-0.7194815331,1.2133225981\C,1.1205446832,-0.7751253327,2.
 518726504\C,2.4633905285,-1.5115451832,2.4055836315\C,3.1678981859,-1.
 5925918434,3.7621516804\C,3.2558279154,-0.2485241378,4.4445617833\C,2.
 4140624338,0.7517435582,4.1189233851\C,1.3300818307,0.6143711365,3.129
 0118516\O,0.6068933949,1.5625855373,2.8497028004\C,4.309992927,-0.0947

 Normal termination of Gaussian 16 at Tue Dec  8 12:50:17 2020.

 --------------------------------------------------------------------
 #N Geom=AllCheck Guess=TCheck SCRF=Check GenChk RB3LYP/6-31G(d) Freq
 --------------------------------------------------------------------

 Structure from the checkpoint file:  "JID_840.chk"
 -----------------------------
 CID_57684259_JID_840_neutraal
 -----------------------------
 Charge =  0 Multiplicity = 1

 SCF Done:  E(RB3LYP) =  -426.656258496     A.U. after    1 cycles

  Exact polarizability: 119.172   9.922  95.774  -2.713   2.207  69.370
 Approx polarizability: 156.633  32.688 155.788  -3.650   3.854 104.241

                      1                      2                      3
                      A                      A                      A
 Frequencies --     61.3911               103.0698               143.5344
 Red. masses --      3.3395                 2.2048                 2.1894
 Frc consts  --      0.0074                 0.0138                 0.0266
 IR Inten    --      0.8439                 0.9719                 0.3242

                      4                      5                      6
                      A                      A                      A
 Frequencies --    184.8214               196.3084               223.2760
 Red. masses --      1.9969                 1.3919                 1.4060
 Frc consts  --      0.0402                 0.0316                 0.0413
 IR Inten    --      0.7523                 0.7844                 0.7835

                      7                      8                      9
                      A                      A                      A
 Frequencies --    248.6460               303.4514               323.0021
 Red. masses --      2.6889                 1.8491                 2.6669
 Frc consts  --      0.0979                 0.1003                 0.1639
 IR Inten    --      0.9275                 0.1752                 6.2103

                     10                     11                     12
                      A                      A                      A
 Frequencies --    379.5718               435.3307               481.0938
 Red. masses --      3.5977                 2.3397                 3.0258
 Frc consts  --      0.3054                 0.2612                 0.4126
 IR Inten    --      2.1003                 2.1597                 3.3098

                     13                     14                     15
                      A                      A                      A
 Frequencies --    513.2030               520.3124               654.2999
 Red. masses --      3.9570                 4.1116                 3.6694
 Frc consts  --      0.6140                 0.6558                 0.9255
 IR Inten    --      2.6605                 2.2416                 0.2605

                     16                     17                     18
                      A                      A                      A
 Frequencies --    689.6071               750.0336               795.5122
 Red. masses --      3.1960                 1.8903                 1.5010
 Frc consts  --      0.8955                 0.6265                 0.5597
 IR Inten    --      4.8538                 5.2281                 2.9013

                     19                     20                     21
                      A                      A                      A
 Frequencies --    811.0846               879.5541               908.2801
 Red. masses --      1.8177                 2.1619                 1.5746
 Frc consts  --      0.7046                 0.9854                 0.7654
 IR Inten    --      1.3628                 0.2214                12.9506

                     22                     23                     24
                      A                      A                      A
 Frequencies --    943.5352               989.4882              1014.2041
 Red. masses --      2.0098                 1.8986                 1.4360
 Frc consts  --      1.0542                 1.0952                 0.8703
 IR Inten    --      0.8738                 2.4200                 6.2938

                     25                     26                     27
                      A                      A                      A
 Frequencies --   1033.5619              1054.8406              1065.1465
 Red. masses --      1.9951                 1.4884                 1.4606
 Frc consts  --      1.2557                 0.9758                 0.9763
 IR Inten    --      6.6366                 6.9275                 3.6459

                     28                     29                     30
                      A                      A                      A
 Frequencies --   1110.3883              1110.9803              1161.5256
 Red. masses --      1.7256                 2.6241                 1.5468
 Frc consts  --      1.2535                 1.9083                 1.2296
 IR Inten    --      0.3166                 9.7089                 2.5523

                     31                     32                     33
                      A                      A                      A
 Frequencies --   1173.2684              1213.2103              1238.4927
 Red. masses --      2.4599                 1.6435                 2.0509
 Frc consts  --      1.9951                 1.4253                 1.8534
 IR Inten    --      0.5487                 0.5099                89.1582

                     34                     35                     36
                      A                      A                      A
 Frequencies --   1264.8496              1311.3028              1321.0130
 Red. masses --      1.3180                 1.2017                 1.4150
 Frc consts  --      1.2424                 1.2175                 1.4548
 IR Inten    --      2.9094                 2.8095                 4.3553

                     37                     38                     39
                      A                      A                      A
 Frequencies --   1346.9023              1384.7365              1392.5036
 Red. masses --      1.5198                 1.5414                 1.4691
 Frc consts  --      1.6244                 1.7414                 1.6783
 IR Inten    --     14.7083                12.6002                 3.6083

                     40                     41                     42
                      A                      A                      A
 Frequencies --   1405.5465              1418.3215              1439.5074
 Red. masses --      1.9074                 1.5747                 1.3066
 Frc consts  --      2.2201                 1.8664                 1.5952
 IR Inten    --      8.8405                 0.1412                 6.3630

                     43                     44                     45
                      A                      A                      A
 Frequencies --   1442.2805              1500.7201              1508.1611
 Red. masses --      1.2744                 1.0822                 1.0511
 Frc consts  --      1.5619                 1.4360                 1.4086
 IR Inten    --      8.2912                 6.3183                 5.8207

                     46                     47                     48
                      A                      A                      A
 Frequencies --   1511.1923              1512.3019              1524.8270
 Red. masses --      1.0802                 1.0732                 1.0906
 Frc consts  --      1.4535                 1.4461                 1.4940
 IR Inten    --      8.9365                11.2745                 3.2200

                     49                     50                     51
                      A                      A                      A
 Frequencies --   1535.1784              1540.3603              1708.1771
 Red. masses --      1.0469                 1.0512                 6.6035
 Frc consts  --      1.4537                 1.4696                11.3525
 IR Inten    --      4.4925                 5.5756                43.7832

                     52                     53                     54
                      A                      A                      A
 Frequencies --   1765.1239              2978.0119              3004.7403
 Red. masses --     11.3929                 1.0806                 1.0693
 Frc consts  --     20.9139                 5.6464                 5.6879
 IR Inten    --    220.6786                20.3068                19.4209

                     55                     56                     57
                      A                      A                      A
 Frequencies --   3033.8663              3045.2735              3047.5188
 Red. masses --      1.0395                 1.0679                 1.0627
 Frc consts  --      5.6374                 5.8349                 5.8152
 IR Inten    --     21.6242                28.5511                23.5783

                     58                     59                     60
                      A                      A                      A
 Frequencies --   3055.4186              3062.4759              3080.7440
 Red. masses --      1.0419                 1.0827                 1.0991
 Frc consts  --      5.7309                 5.9825                 6.1462
 IR Inten    --     28.0505                45.4136                17.7610

                     61                     62                     63
                      A                      A                      A
 Frequencies --   3090.5451              3100.3757              3118.4506
 Red. masses --      1.1038                 1.0969                 1.0999
 Frc consts  --      6.2118                 6.2123                 6.3022
 IR Inten    --     36.8069                 4.2177                47.7499

                     64                     65                     66
                      A                      A                      A
 Frequencies --   3135.0544              3136.9006              3187.4998
 Red. masses --      1.1023                 1.1000                 1.0911
 Frc consts  --      6.3834                 6.3774                 6.5315
 IR Inten    --     27.0895                18.2525                12.5750

 - Thermochemistry -
 -------------------
 Temperature   298.150 Kelvin.  Pressure   1.00000 Atm.
 Atom     1 has atomic number  6 and mass  12.00000

 Molecular mass:   138.10447 amu.
 Principal axes and moments of inertia in atomic units:
                           1         2         3
     Eigenvalues --   746.049251986.123982464.06391
           X            0.99988  -0.01489   0.00335
           Y            0.01486   0.99986   0.00811
           Z           -0.00347  -0.00806   0.99996
 This molecule is an asymmetric top.
 Rotational symmetry number  1.
 Warning -- assumption of classical behavior for rotation
           may cause significant error
 Rotational temperatures (Kelvin)      0.11610     0.04361     0.03515
 Rotational constants (GHZ):           2.41906     0.90867     0.73242
 Zero-point vibrational energy     559995.3 (Joules/Mol)
                                  133.84210 (Kcal/Mol)
 Warning -- explicit consideration of  14 degrees of freedom as
           vibrations may cause significant error
 Vibrational temperatures:     88.33   148.29   206.51   265.92   282.44
          (Kelvin)            321.24   357.75   436.60   464.73   546.12
                              626.34   692.19   738.38   748.61   941.39
                              992.19  1079.13  1144.56  1166.97  1265.48
                             1306.81  1357.54  1423.65  1459.21  1487.07
                             1517.68  1532.51  1597.60  1598.45  1671.18
                             1688.07  1745.54  1781.91  1819.84  1886.67
                             1900.64  1937.89  1992.33  2003.50  2022.27
                             2040.65  2071.13  2075.12  2159.20  2169.91
                             2174.27  2175.87  2193.89  2208.78  2216.23
                             2457.69  2539.62  4284.69  4323.15  4365.06
                             4381.47  4384.70  4396.07  4406.22  4432.50
                             4446.61  4460.75  4486.75  4510.64  4513.30
                             4586.10

 Zero-point correction=                           0.213291 (Hartree/Particle)
 Thermal correction to Energy=                    0.223616
 Thermal correction to Enthalpy=                  0.224560
 Thermal correction to Gibbs Free Energy=         0.177852
 Sum of electronic and zero-point Energies=           -426.442968
 Sum of electronic and thermal Energies=              -426.432643
 Sum of electronic and thermal Enthalpies=            -426.431698
 Sum of electronic and thermal Free Energies=         -426.478406

                     E (Thermal)             CV                S
                      KCal/Mol        Cal/Mol-Kelvin    Cal/Mol-Kelvin
 Total                  140.321             39.081             98.305
 Electronic               0.000              0.000              0.000
 Translational            0.889              2.981             40.680
 Rotational               0.889              2.981             29.680
 Vibrational            138.544             33.120             27.944
 Vibration     1          0.597              1.973              4.412
 Vibration     2          0.605              1.947              3.395
 Vibration     3          0.616              1.910              2.756
 Vibration     4          0.631              1.861              2.279
 Vibration     5          0.636              1.845              2.167
 Vibration     6          0.649              1.806              1.932
 Vibration     7          0.662              1.765              1.740
 Vibration     8          0.695              1.667              1.398
 Vibration     9          0.708              1.629              1.295
 Vibration    10          0.750              1.514              1.041
 Vibration    11          0.796              1.393              0.841
 Vibration    12          0.837              1.292              0.707
 Vibration    13          0.868              1.221              0.626
 Vibration    14          0.875              1.205              0.609

 Optimization completed.
    -- Stationary point found.

 1\1\GINC-NODE105\Freq\RB3LYP\6-31G(d)\C9H14O1\VSC10255\08-Dec-2020\0\\
 #N Geom=AllCheck Guess=TCheck SCRF=Check GenChk RB3LYP/6-31G(d) Freq\\
 CID_57684259_JID_840_neutraal\\0,1\C,1.037050889,-0.0417040293,0.04542
 31241\C,0.3136069097,-0.7194815331,1.2133225981\C,1.1205446832,-0.7751
 253327,2.518726504\C,2.4633905285,-1.5115451832,2.4055836315\C,3.16789
 81859,-1.5925918434,3.7621516804\C,3.2558279154,-0.2485241378,4.444561
 7833\C,2.4140624338,0.7517435582,4.1189233851\C,1.3300818307,0.6143711
 365,3.1290118516\O,0.6068933949,1.5625855373,2.8497028004\C,4.30999292

 Normal termination of Gaussian 16 at Tue Dec  8 13:06:25 2020.

 ----------------------------------------------------------------------
 # B3LYP/6-311++G(d,p) empiricaldispersion=gd3bj scf=xqc pop=npa geom=c
 heck
 ----------------------------------------------------------------------

 -------------------------------------
 CID_57684259_JID_840_Energie_neutraal
 -------------------------------------
 Structure from the checkpoint file:  "JID_840.chk"
 Charge =  0 Multiplicity = 1

 SCF Done:  E(RB3LYP) =  -426.775424161     A.U. after   14 cycles
 Normal termination of Gaussian 16 at Tue Dec  8 13:09:56 2020.

 ----------------------------------------------------------------------
 # B3LYP/6-311++G(d,p) empiricaldispersion=gd3bj scf=xqc pop=npa geom=c
 heck
 ----------------------------------------------------------------------

 -----------------------------------
 CID_57684259_JID_840_Energie_kation
 -----------------------------------
 Structure from the checkpoint file:  "JID_840.chk"
 Charge =  1 Multiplicity = 2

 SCF Done:  E(UB3LYP) =  -426.454848392     A.U. after   23 cycles
 Normal termination of Gaussian 16 at Tue Dec  8 13:17:25 2020.
 Gaussian 16:  ES64L-G16RevA.03 25-Dec-2016

 ----------------------------------
 CID_57684259_JID_840_Energie_anion
 ----------------------------------
 Structure from the checkpoint file:  "JID_840.chk"
 Charge = -1 Multiplicity = 2

                         Standard orientation:
 ---------------------------------------------------------------------
 Center     Atomic      Atomic             Coordinates (Angstroms)
 Number     Number       Type             X           Y           Z
 ---------------------------------------------------------------------
      1          6           0        2.897486   -0.357383    0.956531
      2          6           0        2.401568   -0.374099   -0.492788
      3          6           0        0.875134   -0.305419   -0.646434
      4          6           0        0.114300   -1.446725    0.044148
      5          6           0       -1.390183   -1.351283   -0.221555
      6          6           0       -1.939019    0.024216    0.072920
      7          6           0       -1.132703    1.103350    0.094583
      8          6           0        0.309685    1.048576   -0.205959
      9          8           0        1.004878    2.055286   -0.147925
     10          6           0       -3.415732    0.123690    0.323026
     11          1           0        2.550822    0.542219    1.474245
     12          1           0        3.992457   -0.358510    0.986614
     13          1           0        2.553740   -1.232693    1.519158
     14          1           0        2.831087    0.479855   -1.025709
     15          1           0        2.758873   -1.282244   -0.996019
     16          1           0        0.644944   -0.368312   -1.724408
     17          1           0        0.501086   -2.414694   -0.296306
     18          1           0        0.284163   -1.398032    1.126616
     19          1           0       -1.935876   -2.097841    0.370201
     20          1           0       -1.604450   -1.593978   -1.275178
     21          1           0       -1.523138    2.093466    0.317862
     22          1           0       -3.979369   -0.294532   -0.522115
     23          1           0       -3.699302   -0.464162    1.206416
     24          1           0       -3.737282    1.157624    0.475200
 ---------------------------------------------------------------------

 SCF Done:  E(UB3LYP) =  -426.768387878     A.U. after   33 cycles
 SCF Done:  E(UB3LYP) =  -426.768387878     a.u. after    1 cycles

 The electronic state is 2-A.
 Alpha  occ. eigenvalues --  -18.92654 -10.07207 -10.04076 -10.04021 -10.03966
 Alpha  occ. eigenvalues --  -10.03862 -10.03821 -10.03808 -10.03039 -10.00919
 Alpha  occ. eigenvalues --   -0.86549  -0.70357  -0.66214  -0.61419  -0.57670
 Alpha  occ. eigenvalues --   -0.55455  -0.49768  -0.46020  -0.41548  -0.37152
 Alpha  occ. eigenvalues --   -0.33746  -0.33572  -0.31221  -0.30372  -0.29770
 Alpha  occ. eigenvalues --   -0.28073  -0.27281  -0.25928  -0.24951  -0.24424
 Alpha  occ. eigenvalues --   -0.23886  -0.22826  -0.21578  -0.19524  -0.18874
 Alpha  occ. eigenvalues --   -0.18568  -0.11480  -0.08472   0.05537
 Alpha virt. eigenvalues --    0.08073   0.08334   0.09569   0.09689   0.11163
 Alpha virt. eigenvalues --    0.11358   0.11877   0.12453   0.13428   0.13727
 Alpha virt. eigenvalues --    0.14344   0.15094   0.15265   0.15913   0.17938

  Beta  occ. eigenvalues --  -18.92260 -10.06955 -10.04088 -10.04013 -10.03983
  Beta  occ. eigenvalues --  -10.03883 -10.03805 -10.03791 -10.02621 -10.00952
  Beta  occ. eigenvalues --   -0.85838  -0.70063  -0.65995  -0.61303  -0.57384
  Beta  occ. eigenvalues --   -0.55385  -0.49646  -0.45816  -0.40955  -0.36943
  Beta  occ. eigenvalues --   -0.33654  -0.33486  -0.30951  -0.30023  -0.29565
  Beta  occ. eigenvalues --   -0.27845  -0.27190  -0.25736  -0.24786  -0.24004
  Beta  occ. eigenvalues --   -0.23754  -0.22288  -0.21247  -0.19294  -0.18542
  Beta  occ. eigenvalues --   -0.18095  -0.10019  -0.08150
  Beta virt. eigenvalues --    0.08130   0.08701   0.09627   0.10092   0.10788
  Beta virt. eigenvalues --    0.11433   0.11611   0.12604   0.12663   0.13450
  Beta virt. eigenvalues --    0.13872   0.14360   0.15138   0.15489   0.15834

 Mulliken charges and spin densities:
               1          2
     1  C   -0.356351  -0.200164
     2  C   -0.066937  -0.407536
     3  C    0.649047   0.311983
     4  C   -0.986210   0.506020
     5  C    0.289849  -0.869879
     6  C    0.340912   0.724308
     7  C   -0.330510  -0.076281
     8  C   -0.776187   0.083981
     9  O   -0.381937   0.135729
    10  C    0.795067  -1.356984
    11  H    0.158355   0.019758
    12  H    0.083494   0.021161
    13  H   -0.027158   0.153930
    14  H    0.103823   0.057113
    15  H   -0.035516   0.154835
    16  H    0.007219   0.158401
    17  H   -0.330407   0.463959
    18  H    0.306989  -0.192950
    19  H   -0.602025   0.781205
    20  H    0.286229  -0.136167
    21  H    0.086610   0.035858
    22  H    0.107573   0.014718
    23  H   -0.343255   0.506924
    24  H    0.021327   0.110078
 Sum of Mulliken charges =  -1.00000   1.00000

 Dipole moment (field-independent basis, Debye):
    X=              1.6762    Y=             -0.0986    Z=             -1.7998  Tot=              2.4614
 Quadrupole moment (field-independent basis, Debye-Ang):
   XX=           -101.1989   YY=            -98.2771   ZZ=            -79.1395
   XY=             -8.8661   XZ=              9.5617   YZ=              3.8106

 Summary of Natural Population Analysis:

                                       Natural Population
                Natural  -----------------------------------------------
    Atom  No    Charge         Core      Valence    Rydberg      Total
 -----------------------------------------------------------------------
      C    1   -0.28845      0.99966     2.28414    0.00464     3.28845
      C    2   -0.18928      0.99963     2.17869    0.01096     3.18928
      C    3   -0.14736      0.99956     2.13767    0.01013     3.14736
      C    4   -0.18304      0.99963     2.17347    0.00994     3.18304
      C    5   -0.20567      0.99959     2.19670    0.00938     3.20567
      C    6    0.09573      0.99952     1.89479    0.00997     2.90427
      C    7   -0.16998      0.99943     2.16106    0.00949     3.16998
      C    8    0.29630      0.99961     1.68228    0.02181     2.70370
      O    9   -0.27851      0.99988     3.27228    0.00635     4.27851
      C   10   -0.30014      0.99963     2.29496    0.00555     3.30014
      H   11    0.10640      0.00000     0.39255    0.00105     0.39360
      H   12    0.09074      0.00000     0.40847    0.00078     0.40926
      H   13    0.09203      0.00000     0.40693    0.00103     0.40797
      H   14    0.10408      0.00000     0.39475    0.00117     0.39592
      H   15    0.08856      0.00000     0.41037    0.00107     0.41144
      H   16    0.10220      0.00000     0.39606    0.00174     0.39780
      H   17    0.09341      0.00000     0.40521    0.00138     0.40659
      H   18    0.09512      0.00000     0.40338    0.00150     0.40488
      H   19    0.10360      0.00000     0.39391    0.00249     0.39640
      H   20    0.09824      0.00000     0.40065    0.00111     0.40176
      H   21    0.09372      0.00000     0.40415    0.00213     0.40628
      H   22    0.09777      0.00000     0.40120    0.00103     0.40223
      H   23    0.10731      0.00000     0.38926    0.00342     0.39269
      H   24    0.09722      0.00000     0.40193    0.00084     0.40278
 =======================================================================
   * Total *   -0.00000      9.99613    27.88488    0.11899    38.00000

 Normal termination of Gaussian 16 at Tue Dec  8 13:26:53 2020.
