 Gaussian 16, Revision A.03,

 -----------------------------------------------------------
 # opt freq B3LYP/6-31G(d) empiricaldispersion=gd3bj scf=xqc
 -----------------------------------------------------------

 ------------------------------
 CID_84064889_JID_2795_neutraal
 ------------------------------
 Symbolic Z-matrix:
 Charge =  0 Multiplicity = 1

 SCF Done:  E(RB3LYP) =  -538.584231074     A.U. after   14 cycles
 SCF Done:  E(RB3LYP) =  -538.588379027     A.U. after   12 cycles
 SCF Done:  E(RB3LYP) =  -538.588122000     A.U. after   12 cycles
 SCF Done:  E(RB3LYP) =  -538.588928607     A.U. after   11 cycles
 SCF Done:  E(RB3LYP) =  -538.589166463     A.U. after   10 cycles
 SCF Done:  E(RB3LYP) =  -538.589099510     A.U. after   11 cycles
 SCF Done:  E(RB3LYP) =  -538.589215505     A.U. after   11 cycles
 SCF Done:  E(RB3LYP) =  -538.589254992     A.U. after    9 cycles
 SCF Done:  E(RB3LYP) =  -538.589269944     A.U. after    9 cycles
 SCF Done:  E(RB3LYP) =  -538.589275772     A.U. after    9 cycles
 SCF Done:  E(RB3LYP) =  -538.589277015     A.U. after    8 cycles
 SCF Done:  E(RB3LYP) =  -538.589277592     A.U. after    7 cycles
 SCF Done:  E(RB3LYP) =  -538.589277674     A.U. after    7 cycles
 SCF Done:  E(RB3LYP) =  -538.589277702     A.U. after    6 cycles
 Optimization completed.
    -- Stationary point found.
 Normal termination of Gaussian 16 at Wed Dec  9 18:02:24 2020.

 --------------------------------------------------------------------
 #N Geom=AllCheck Guess=TCheck SCRF=Check GenChk RB3LYP/6-31G(d) Freq
 --------------------------------------------------------------------

 Structure from the checkpoint file:  "JID_2795.chk"
 ------------------------------
 CID_84064889_JID_2795_neutraal
 ------------------------------
 Charge =  0 Multiplicity = 1

 SCF Done:  E(RB3LYP) =  -538.589277702     A.U. after    1 cycles

  Exact polarizability: 125.888  -0.550 105.800  -2.818   4.402  95.181
 Approx polarizability: 158.371  -5.362 145.160 -10.233  11.392 145.813

                      1                      2                      3
                      A                      A                      A
 Frequencies --     51.1059                66.5524                81.4767
 Red. masses --      3.8346                 2.9019                 3.9980
 Frc consts  --      0.0059                 0.0076                 0.0156
 IR Inten    --      1.7953                 0.9899                 0.5654

                      4                      5                      6
                      A                      A                      A
 Frequencies --     98.9993               135.2704               149.7342
 Red. masses --      2.4824                 1.9743                 2.0662
 Frc consts  --      0.0143                 0.0213                 0.0273
 IR Inten    --      1.1825                 0.8493                 0.1300

                      7                      8                      9
                      A                      A                      A
 Frequencies --    184.8717               217.6745               236.7113
 Red. masses --      2.1067                 2.6380                 2.5859
 Frc consts  --      0.0424                 0.0736                 0.0854
 IR Inten    --      0.8659                 0.3855                 0.8178

                     10                     11                     12
                      A                      A                      A
 Frequencies --    262.1947               268.0965               314.1729
 Red. masses --      1.3575                 1.6662                 3.2629
 Frc consts  --      0.0550                 0.0706                 0.1898
 IR Inten    --      0.3698                 1.1862                 1.0794

                     13                     14                     15
                      A                      A                      A
 Frequencies --    347.5973               389.5046               476.4876
 Red. masses --      2.2105                 2.5295                 4.5043
 Frc consts  --      0.1574                 0.2261                 0.6025
 IR Inten    --      2.4366                 0.0522                17.9266

                     16                     17                     18
                      A                      A                      A
 Frequencies --    546.5254               579.3946               615.2139
 Red. masses --      2.1137                 3.1347                 2.9163
 Frc consts  --      0.3720                 0.6200                 0.6503
 IR Inten    --      1.3511                 1.8734                 6.5672

                     19                     20                     21
                      A                      A                      A
 Frequencies --    651.1208               670.1373               716.2700
 Red. masses --      3.1437                 2.1870                 1.4644
 Frc consts  --      0.7853                 0.5787                 0.4427
 IR Inten    --     14.0906                35.8516               103.7282

                     22                     23                     24
                      A                      A                      A
 Frequencies --    785.7154               817.6481               830.3812
 Red. masses --      2.0993                 1.5243                 2.0578
 Frc consts  --      0.7636                 0.6004                 0.8360
 IR Inten    --      8.8448                23.0422                 6.4467

                     25                     26                     27
                      A                      A                      A
 Frequencies --    864.5032               899.3114               928.9863
 Red. masses --      1.3590                 2.0556                 2.2324
 Frc consts  --      0.5984                 0.9795                 1.1351
 IR Inten    --     36.7616                 7.1774                 4.2137

                     28                     29                     30
                      A                      A                      A
 Frequencies --    947.7546               992.4541              1002.9943
 Red. masses --      1.7324                 2.2419                 1.5603
 Frc consts  --      0.9168                 1.3010                 0.9248
 IR Inten    --      1.2788                 0.4720                14.3863

                     31                     32                     33
                      A                      A                      A
 Frequencies --   1011.2655              1045.4144              1059.8030
 Red. masses --      2.0320                 1.6962                 2.6551
 Frc consts  --      1.2243                 1.0922                 1.7571
 IR Inten    --      5.3548                 3.5703                 7.6238

                     34                     35                     36
                      A                      A                      A
 Frequencies --   1075.8772              1104.7678              1123.8982
 Red. masses --      2.0371                 1.3447                 2.1142
 Frc consts  --      1.3892                 0.9670                 1.5735
 IR Inten    --      0.2032                 1.6449                10.3338

                     37                     38                     39
                      A                      A                      A
 Frequencies --   1141.5829              1166.0499              1171.6218
 Red. masses --      2.0106                 2.6075                 1.3996
 Frc consts  --      1.5438                 2.0889                 1.1320
 IR Inten    --     25.1776                 9.2914                19.4433

                     40                     41                     42
                      A                      A                      A
 Frequencies --   1200.0873              1224.8311              1235.2575
 Red. masses --      1.8889                 1.7040                 1.4871
 Frc consts  --      1.6028                 1.5061                 1.3370
 IR Inten    --     21.6813                 4.2990                 3.3747

                     43                     44                     45
                      A                      A                      A
 Frequencies --   1280.5635              1293.3638              1295.3891
 Red. masses --      1.6378                 1.2967                 1.3606
 Frc consts  --      1.5824                 1.2780                 1.3452
 IR Inten    --     47.1001                 0.5799                 0.3147

                     46                     47                     48
                      A                      A                      A
 Frequencies --   1319.7001              1330.8752              1348.2159
 Red. masses --      1.4544                 1.4015                 1.2914
 Frc consts  --      1.4924                 1.4626                 1.3830
 IR Inten    --     18.2712                 8.8178                18.7554

                     49                     50                     51
                      A                      A                      A
 Frequencies --   1352.1751              1380.1923              1402.1022
 Red. masses --      1.3984                 1.6085                 1.5079
 Frc consts  --      1.5065                 1.8054                 1.7466
 IR Inten    --     32.0892                12.9549                11.4869

                     52                     53                     54
                      A                      A                      A
 Frequencies --   1412.4866              1434.1146              1446.2146
 Red. masses --      1.3337                 1.4363                 1.2463
 Frc consts  --      1.5677                 1.7405                 1.5358
 IR Inten    --     10.7900                10.7002                 4.9722

                     55                     56                     57
                      A                      A                      A
 Frequencies --   1455.3616              1485.5160              1500.7511
 Red. masses --      2.1487                 1.1898                 1.0964
 Frc consts  --      2.6814                 1.5470                 1.4549
 IR Inten    --    121.7420                 0.2066                 2.1225

                     58                     59                     60
                      A                      A                      A
 Frequencies --   1501.8122              1520.2870              1526.9629
 Red. masses --      1.1935                 1.0498                 1.0767
 Frc consts  --      1.5861                 1.4296                 1.4791
 IR Inten    --     15.4118                11.1311                 1.6668

                     61                     62                     63
                      A                      A                      A
 Frequencies --   1529.6210              1531.7608              1538.1004
 Red. masses --      1.0760                 1.0576                 1.0712
 Frc consts  --      1.4834                 1.4621                 1.4931
 IR Inten    --      6.5348                 4.4751                 9.9949

                     64                     65                     66
                      A                      A                      A
 Frequencies --   1547.2387              1552.9760              1829.8542
 Red. masses --      1.0667                 1.0722                10.8102
 Frc consts  --      1.5045                 1.5235                21.3263
 IR Inten    --     13.6157                 4.8953               528.0795

                     67                     68                     69
                      A                      A                      A
 Frequencies --   2960.6431              2964.2644              2971.9196
 Red. masses --      1.0836                 1.0710                 1.0600
 Frc consts  --      5.5964                 5.5445                 5.5160
 IR Inten    --     58.4837                36.0343               133.3785

                     70                     71                     72
                      A                      A                      A
 Frequencies --   3017.0475              3046.2366              3057.5273
 Red. masses --      1.0837                 1.0368                 1.0850
 Frc consts  --      5.8118                 5.6687                 5.9763
 IR Inten    --     35.8335                31.4508                39.4633

                     73                     74                     75
                      A                      A                      A
 Frequencies --   3059.3419              3062.6299              3080.2353
 Red. masses --      1.0639                 1.0690                 1.0752
 Frc consts  --      5.8670                 5.9077                 6.0103
 IR Inten    --     22.1592                18.8369                 6.3088

                     76                     77                     78
                      A                      A                      A
 Frequencies --   3083.9383              3088.7963              3112.6000
 Red. masses --      1.0757                 1.0860                 1.1024
 Frc consts  --      6.0276                 6.1046                 6.2926
 IR Inten    --     37.0652                14.6340                71.0433

                     79                     80                     81
                      A                      A                      A
 Frequencies --   3117.5075              3123.1233              3129.7164
 Red. masses --      1.1013                 1.1015                 1.1032
 Frc consts  --      6.3065                 6.3302                 6.3665
 IR Inten    --     32.5877                17.2358                26.6964

                     82                     83                     84
                      A                      A                      A
 Frequencies --   3136.3565              3494.6037              3559.3587
 Red. masses --      1.0994                 1.0735                 1.0787
 Frc consts  --      6.3716                 7.7240                 8.0517
 IR Inten    --     28.0306                 0.4426               166.0653

 - Thermochemistry -
 -------------------
 Temperature   298.150 Kelvin.  Pressure   1.00000 Atm.
 Atom     1 has atomic number  6 and mass  12.00000

 Molecular mass:   170.14191 amu.
 Principal axes and moments of inertia in atomic units:
                           1         2         3
     Eigenvalues --  1482.995452985.441203722.13090
           X            0.99932   0.03298   0.01629
           Y           -0.03246   0.99898  -0.03136
           Z           -0.01731   0.03081   0.99938
 This molecule is an asymmetric top.
 Rotational symmetry number  1.
 Warning -- assumption of classical behavior for rotation
           may cause significant error
 Rotational temperatures (Kelvin)      0.05840     0.02901     0.02327
 Rotational constants (GHZ):           1.21696     0.60451     0.48487
 Zero-point vibrational energy     715192.2 (Joules/Mol)
                                  170.93504 (Kcal/Mol)
 Warning -- explicit consideration of  18 degrees of freedom as
           vibrations may cause significant error
 Vibrational temperatures:     73.53    95.75   117.23   142.44   194.62
          (Kelvin)            215.43   265.99   313.19   340.57   377.24
                              385.73   452.02   500.11   560.41   685.56
                              786.33   833.62   885.16   936.82   964.18
                             1030.55  1130.47  1176.41  1194.73  1243.83
                             1293.91  1336.60  1363.61  1427.92  1443.09
                             1454.99  1504.12  1524.82  1547.95  1589.51
                             1617.04  1642.48  1677.69  1685.70  1726.66
                             1762.26  1777.26  1842.45  1860.86  1863.78
                             1898.75  1914.83  1939.78  1945.48  1985.79
                             2017.31  2032.25  2063.37  2080.78  2093.94
                             2137.33  2159.25  2160.77  2187.35  2196.96
                             2200.78  2203.86  2212.98  2226.13  2234.39
                             2632.75  4259.71  4264.92  4275.93  4340.86
                             4382.86  4399.10  4401.71  4406.44  4431.77
                             4437.10  4444.09  4478.34  4485.40  4493.48
                             4502.96  4512.52  5027.96  5121.12

 Zero-point correction=                           0.272402 (Hartree/Particle)
 Thermal correction to Energy=                    0.285398
 Thermal correction to Enthalpy=                  0.286343
 Thermal correction to Gibbs Free Energy=         0.232736
 Sum of electronic and zero-point Energies=           -538.316875
 Sum of electronic and thermal Energies=              -538.303879
 Sum of electronic and thermal Enthalpies=            -538.302935
 Sum of electronic and thermal Free Energies=         -538.356542

                     E (Thermal)             CV                S
                      KCal/Mol        Cal/Mol-Kelvin    Cal/Mol-Kelvin
 Total                  179.090             48.454            112.825
 Electronic               0.000              0.000              0.000
 Translational            0.889              2.981             41.302
 Rotational               0.889              2.981             31.178
 Vibrational            177.313             42.493             40.345
 Vibration     1          0.595              1.977              4.774
 Vibration     2          0.598              1.970              4.253
 Vibration     3          0.600              1.962              3.855
 Vibration     4          0.604              1.950              3.474
 Vibration     5          0.613              1.918              2.870
 Vibration     6          0.618              1.903              2.676
 Vibration     7          0.631              1.860              2.279
 Vibration     8          0.646              1.814              1.978
 Vibration     9          0.656              1.785              1.827
 Vibration    10          0.669              1.742              1.647
 Vibration    11          0.673              1.732              1.608
 Vibration    12          0.702              1.647              1.340
 Vibration    13          0.725              1.580              1.177
 Vibration    14          0.757              1.493              1.002
 Vibration    15          0.833              1.302              0.720
 Vibration    16          0.902              1.147              0.551
 Vibration    17          0.936              1.076              0.486
 Vibration    18          0.975              1.000              0.424

 Optimization completed.
    -- Stationary point found.
 Normal termination of Gaussian 16 at Wed Dec  9 18:10:06 2020.

 ----------------------------------------------------------------------
 # B3LYP/6-311++G(d,p) empiricaldispersion=gd3bj scf=xqc pop=npa geom=c
 heck
 ----------------------------------------------------------------------

 --------------------------------------
 CID_84064889_JID_2795_Energie_neutraal
 --------------------------------------
 Structure from the checkpoint file:  "JID_2795.chk"
 Charge =  0 Multiplicity = 1

 SCF Done:  E(RB3LYP) =  -538.749611086     A.U. after   14 cycles
 Normal termination of Gaussian 16 at Wed Dec  9 18:13:49 2020.

 ----------------------------------------------------------------------
 # B3LYP/6-311++G(d,p) empiricaldispersion=gd3bj scf=xqc pop=npa geom=c
 heck
 ----------------------------------------------------------------------

 ------------------------------------
 CID_84064889_JID_2795_Energie_kation
 ------------------------------------
 Structure from the checkpoint file:  "JID_2795.chk"
 Charge =  1 Multiplicity = 2

 SCF Done:  E(UB3LYP) =  -538.443686293     A.U. after   25 cycles
 Normal termination of Gaussian 16 at Wed Dec  9 18:23:08 2020.
 Gaussian 16:  ES64L-G16RevA.03 25-Dec-2016

 ----------------------------------------------------------------------
 # B3LYP/6-311++G(d,p) empiricaldispersion=gd3bj scf=xqc pop=npa geom=c
 heck
 ----------------------------------------------------------------------

 -----------------------------------
 CID_84064889_JID_2795_Energie_anion
 -----------------------------------
 Structure from the checkpoint file:  "JID_2795.chk"
 Charge = -1 Multiplicity = 2

                         Standard orientation:
 ---------------------------------------------------------------------
 Center     Atomic      Atomic             Coordinates (Angstroms)
 Number     Number       Type             X           Y           Z
 ---------------------------------------------------------------------
      1          6           0       -2.260255    2.170690   -1.032076
      2          6           0       -0.882040    1.560105   -0.757340
      3          6           0       -0.755140    0.882574    0.620275
      4          6           0       -1.850372   -0.172635    0.865755
      5          7           0       -1.835891   -1.243688   -0.135905
      6          6           0       -2.806749   -2.295348    0.154441
      7          6           0        0.639385    0.271024    0.871598
      8          6           0        1.840321    1.247385    0.859196
      9          6           0        3.014771    0.387101    0.365697
     10          6           0        2.353553   -0.736608   -0.444493
     11          8           0        2.906322   -1.523333   -1.195443
     12          7           0        1.021313   -0.697907   -0.144692
     13          1           0       -3.046318    1.409348   -1.095366
     14          1           0       -2.259204    2.717910   -1.980746
     15          1           0       -2.548769    2.873993   -0.241512
     16          1           0       -0.624613    0.840110   -1.543318
     17          1           0       -0.130179    2.353262   -0.832780
     18          1           0       -0.899597    1.654382    1.391733
     19          1           0       -1.675063   -0.640595    1.843133
     20          1           0       -2.837467    0.318606    0.933162
     21          1           0       -2.050347   -0.842217   -1.047008
     22          1           0       -3.838075   -1.924355    0.293059
     23          1           0       -2.807593   -3.027119   -0.659038
     24          1           0       -2.512821   -2.813659    1.073867
     25          1           0        0.597449   -0.220104    1.859150
     26          1           0        2.004147    1.693831    1.843937
     27          1           0        1.656677    2.061612    0.152032
     28          1           0        3.561572   -0.076999    1.196323
     29          1           0        3.744181    0.923786   -0.245506
     30          1           0        0.356641   -1.409684   -0.431717
 ---------------------------------------------------------------------

 SCF Done:  E(UB3LYP) =  -538.738866972     A.U. after   31 cycles

 The electronic state is 2-A.
 Alpha  occ. eigenvalues --  -18.98655 -14.22554 -14.20758 -10.16843 -10.11400
 Alpha  occ. eigenvalues --  -10.09336 -10.09049 -10.08342 -10.08018 -10.08006
 Alpha  occ. eigenvalues --  -10.06914 -10.05999  -0.93471  -0.83992  -0.81122
 Alpha  occ. eigenvalues --   -0.70745  -0.68308  -0.63951  -0.60429  -0.56009
 Alpha  occ. eigenvalues --   -0.53536  -0.51047  -0.48849  -0.46581  -0.40940
 Alpha  occ. eigenvalues --   -0.40150  -0.37567  -0.36436  -0.35190  -0.34323
 Alpha  occ. eigenvalues --   -0.33370  -0.32910  -0.31271  -0.30505  -0.29981
 Alpha  occ. eigenvalues --   -0.29216  -0.29195  -0.27716  -0.27198  -0.26080
 Alpha  occ. eigenvalues --   -0.24947  -0.23417  -0.22904  -0.22008  -0.15815
 Alpha  occ. eigenvalues --   -0.15165  -0.13901   0.04186
 Alpha virt. eigenvalues --    0.06337   0.06895   0.07611   0.08847   0.09064
 Alpha virt. eigenvalues --    0.09359   0.10076   0.10362   0.11234   0.11763
 Alpha virt. eigenvalues --    0.11870   0.12593   0.12906   0.13150   0.13871

  Beta  occ. eigenvalues --  -18.98653 -14.22550 -14.20739 -10.16844 -10.11389
  Beta  occ. eigenvalues --  -10.09310 -10.09009 -10.08334 -10.07998 -10.07993
  Beta  occ. eigenvalues --  -10.06901 -10.05954  -0.93468  -0.83979  -0.81094
  Beta  occ. eigenvalues --   -0.70711  -0.68285  -0.63909  -0.60381  -0.55931
  Beta  occ. eigenvalues --   -0.53443  -0.50995  -0.48833  -0.46530  -0.40903
  Beta  occ. eigenvalues --   -0.40113  -0.37524  -0.36382  -0.35164  -0.34300
  Beta  occ. eigenvalues --   -0.33318  -0.32871  -0.31247  -0.30469  -0.29957
  Beta  occ. eigenvalues --   -0.29186  -0.29155  -0.27665  -0.27148  -0.26027
  Beta  occ. eigenvalues --   -0.24924  -0.23378  -0.22874  -0.21973  -0.15803
  Beta  occ. eigenvalues --   -0.15148  -0.13863
  Beta virt. eigenvalues --    0.06532   0.07187   0.07623   0.08211   0.09189
  Beta virt. eigenvalues --    0.09730   0.09868   0.10444   0.10969   0.11512
  Beta virt. eigenvalues --    0.12156   0.12258   0.12913   0.13294   0.13376

 Mulliken charges and spin densities:
               1          2
     1  C    2.080527  -2.679404
     2  C   -1.866480   1.288808
     3  C    0.943049   0.045632
     4  C    0.322209  -1.154500
     5  N   -0.426467   0.173379
     6  C    0.764460  -1.126695
     7  C   -0.422862   0.222995
     8  C    0.446512  -0.864188
     9  C   -0.148254  -0.258798
    10  C    0.066333   0.019339
    11  O   -0.381066   0.005484
    12  N   -0.163774  -0.082666
    13  H   -0.347656   0.502355
    14  H   -0.300682   0.439260
    15  H   -0.297726   0.448701
    16  H    0.056831   0.100550
    17  H   -0.108537   0.236747
    18  H   -0.425539   0.669989
    19  H   -0.191343   0.343201
    20  H   -0.047776   0.207742
    21  H    0.143668   0.099832
    22  H   -0.342351   0.476616
    23  H   -0.265173   0.393161
    24  H   -0.198304   0.340309
    25  H   -0.189378   0.407881
    26  H   -0.393198   0.555495
    27  H    0.078416   0.046204
    28  H    0.092882   0.067706
    29  H    0.078528   0.099893
    30  H    0.443148  -0.025027
 Sum of Mulliken charges =  -1.00000   1.00000

 Dipole moment (field-independent basis, Debye):
    X=              3.6599    Y=             -0.3744    Z=             -0.3921  Tot=              3.6998
 Quadrupole moment (field-independent basis, Debye-Ang):
   XX=           -144.0760   YY=           -126.2952   ZZ=           -115.4311
   XY=              7.5308   XZ=              3.7886   YZ=             -4.6440

 Summary of Natural Population Analysis:

                                       Natural Population
                Natural  -----------------------------------------------
    Atom  No    Charge         Core      Valence    Rydberg      Total
 -----------------------------------------------------------------------
      C    1   -0.28544      0.99967     2.28040    0.00537     3.28544
      C    2   -0.19514      0.99961     2.18621    0.00932     3.19514
      C    3   -0.11443      0.99956     2.10181    0.01306     3.11443
      C    4   -0.08562      0.99960     2.07380    0.01222     3.08562
      N    5   -0.35162      0.99975     2.84026    0.01161     3.85162
      C    6   -0.17527      0.99966     2.16748    0.00813     3.17527
      C    7    0.00098      0.99959     1.98592    0.01351     2.99902
      C    8   -0.19124      0.99962     2.18361    0.00800     3.19124
      C    9   -0.23280      0.99960     2.22506    0.00813     3.23280
      C   10    0.34341      0.99968     1.63371    0.02320     2.65659
      O   11   -0.32661      0.99987     3.32109    0.00565     4.32661
      N   12   -0.32799      0.99965     2.81983    0.00851     3.82799
      H   13    0.09674      0.00000     0.40165    0.00161     0.40326
      H   14    0.09961      0.00000     0.39941    0.00098     0.40039
      H   15    0.09920      0.00000     0.39936    0.00144     0.40080
      H   16    0.09680      0.00000     0.40152    0.00169     0.40320
      H   17    0.09849      0.00000     0.40019    0.00132     0.40151
      H   18    0.10426      0.00000     0.39344    0.00230     0.39574
      H   19    0.09450      0.00000     0.40374    0.00176     0.40550
      H   20    0.08860      0.00000     0.40960    0.00180     0.41140
      H   21    0.17435      0.00000     0.32253    0.00312     0.32565
      H   22    0.08337      0.00000     0.41484    0.00179     0.41663
      H   23    0.09441      0.00000     0.40471    0.00088     0.40559
      H   24    0.09182      0.00000     0.40696    0.00123     0.40818
      H   25    0.08909      0.00000     0.40933    0.00158     0.41091
      H   26    0.10410      0.00000     0.39457    0.00134     0.39590
      H   27    0.09917      0.00000     0.39927    0.00156     0.40083
      H   28    0.10699      0.00000     0.39196    0.00105     0.39301
      H   29    0.10742      0.00000     0.39165    0.00093     0.39258
      H   30    0.21284      0.00000     0.28465    0.00251     0.28716
 =======================================================================
   * Total *   -0.00000     11.99587    34.84853    0.15559    47.00000

 Normal termination of Gaussian 16 at Wed Dec  9 18:33:17 2020.
