 Gaussian 16, Revision A.03,

 -----------------------------------------------------------
 # opt freq B3LYP/6-31G(d) empiricaldispersion=gd3bj scf=xqc
 -----------------------------------------------------------

 -------------------------------
 CID_105430412_JID_1796_neutraal
 -------------------------------
 Symbolic Z-matrix:
 Charge =  0 Multiplicity = 1

 SCF Done:  E(RB3LYP) =  -483.117177252     A.U. after   12 cycles
 SCF Done:  E(RB3LYP) =  -483.129125286     A.U. after   11 cycles
 SCF Done:  E(RB3LYP) =  -483.129994690     A.U. after   10 cycles
 SCF Done:  E(RB3LYP) =  -483.130233135     A.U. after   10 cycles
 SCF Done:  E(RB3LYP) =  -483.130335367     A.U. after   10 cycles
 SCF Done:  E(RB3LYP) =  -483.130382051     A.U. after   10 cycles
 SCF Done:  E(RB3LYP) =  -483.130420896     A.U. after   10 cycles
 SCF Done:  E(RB3LYP) =  -483.130454352     A.U. after   10 cycles
 SCF Done:  E(RB3LYP) =  -483.130474144     A.U. after   10 cycles
 SCF Done:  E(RB3LYP) =  -483.130486790     A.U. after   10 cycles
 SCF Done:  E(RB3LYP) =  -483.132281333     A.U. after   10 cycles
 SCF Done:  E(RB3LYP) =  -483.132337675     A.U. after    9 cycles
 SCF Done:  E(RB3LYP) =  -483.132344318     A.U. after    8 cycles
 SCF Done:  E(RB3LYP) =  -483.132345216     A.U. after    7 cycles
 SCF Done:  E(RB3LYP) =  -483.132345507     A.U. after    7 cycles
 SCF Done:  E(RB3LYP) =  -483.132345580     A.U. after    6 cycles
 Optimization completed.
    -- Stationary point found.
 Normal termination of Gaussian 16 at Tue Dec  8 21:11:09 2020.

 --------------------------------------------------------------------
 #N Geom=AllCheck Guess=TCheck SCRF=Check GenChk RB3LYP/6-31G(d) Freq
 --------------------------------------------------------------------

 Structure from the checkpoint file:  "JID_1796.chk"
 -------------------------------
 CID_105430412_JID_1796_neutraal
 -------------------------------
 Charge =  0 Multiplicity = 1

 SCF Done:  E(RB3LYP) =  -483.132345580     A.U. after    1 cycles

  Exact polarizability: 116.175  -0.144  95.461  -1.886  -2.604  87.901
 Approx polarizability: 135.508   0.491 138.147  -2.644  -2.438 134.917

                      1                      2                      3
                      A                      A                      A
 Frequencies --     33.9900                62.3035                91.1582
 Red. masses --      3.1156                 3.3372                 2.7295
 Frc consts  --      0.0021                 0.0076                 0.0134
 IR Inten    --      0.5702                 0.1005                 0.2498

                      4                      5                      6
                      A                      A                      A
 Frequencies --    130.5011               137.9183               162.4448
 Red. masses --      2.2937                 2.9452                 3.9085
 Frc consts  --      0.0230                 0.0330                 0.0608
 IR Inten    --      0.5149                 4.0344                 4.0691

                      7                      8                      9
                      A                      A                      A
 Frequencies --    202.6569               287.6612               307.1179
 Red. masses --      2.8860                 2.3831                 2.4594
 Frc consts  --      0.0698                 0.1162                 0.1367
 IR Inten    --      1.0704                16.5645                 1.0817

                     10                     11                     12
                      A                      A                      A
 Frequencies --    328.7649               377.6938               404.0982
 Red. masses --      1.2955                 2.1478                 2.0787
 Frc consts  --      0.0825                 0.1805                 0.2000
 IR Inten    --    125.6098                38.1348                 0.0770

                     13                     14                     15
                      A                      A                      A
 Frequencies --    462.0017               603.3173               663.1056
 Red. masses --      2.8319                 2.9917                 1.9590
 Frc consts  --      0.3561                 0.6416                 0.5075
 IR Inten    --      6.6317                11.3992                16.1576

                     16                     17                     18
                      A                      A                      A
 Frequencies --    675.3672               772.0885               795.2269
 Red. masses --      1.9735                 1.7112                 1.2194
 Frc consts  --      0.5304                 0.6010                 0.4543
 IR Inten    --     56.9217                 1.8682                 0.7011

                     19                     20                     21
                      A                      A                      A
 Frequencies --    830.5109               866.5148               881.7291
 Red. masses --      2.3465                 1.6803                 1.7244
 Frc consts  --      0.9536                 0.7433                 0.7899
 IR Inten    --      0.1541                 3.7546                27.0610

                     22                     23                     24
                      A                      A                      A
 Frequencies --    906.5990               935.1166               942.6246
 Red. masses --      2.0128                 2.4423                 2.2214
 Frc consts  --      0.9747                 1.2583                 1.1630
 IR Inten    --      7.0692                19.4558                 3.5741

                     25                     26                     27
                      A                      A                      A
 Frequencies --    950.1644               972.3714               980.6047
 Red. masses --      2.1799                 1.4067                 2.0275
 Frc consts  --      1.1595                 0.7836                 1.1487
 IR Inten    --      7.4568                 0.5149                 2.0408

                     28                     29                     30
                      A                      A                      A
 Frequencies --   1003.0706              1038.1601              1049.7900
 Red. masses --      2.3014                 2.7932                 2.5944
 Frc consts  --      1.3643                 1.7737                 1.6846
 IR Inten    --      2.5135                 5.9042                26.5229

                     31                     32                     33
                      A                      A                      A
 Frequencies --   1064.1346              1079.6978              1089.8529
 Red. masses --      2.0702                 1.9671                 2.0486
 Frc consts  --      1.3812                 1.3511                 1.4336
 IR Inten    --      2.4548                 1.6849                19.3683

                     34                     35                     36
                      A                      A                      A
 Frequencies --   1112.8218              1129.0542              1148.1239
 Red. masses --      2.0054                 1.4989                 1.3675
 Frc consts  --      1.4632                 1.1257                 1.0621
 IR Inten    --     15.9080                35.4743                 4.3891

                     37                     38                     39
                      A                      A                      A
 Frequencies --   1188.0449              1212.0975              1217.8699
 Red. masses --      1.9475                 1.3000                 1.3832
 Frc consts  --      1.6196                 1.1253                 1.2088
 IR Inten    --      1.0630                 2.1248                 8.5258

                     40                     41                     42
                      A                      A                      A
 Frequencies --   1236.1778              1238.0785              1269.5871
 Red. masses --      1.3413                 1.3843                 1.3235
 Frc consts  --      1.2077                 1.2502                 1.2569
 IR Inten    --      6.1303                 1.7863                 0.1530

                     43                     44                     45
                      A                      A                      A
 Frequencies --   1275.8367              1279.8003              1288.3766
 Red. masses --      1.2182                 1.4190                 1.2964
 Frc consts  --      1.1683                 1.3694                 1.2679
 IR Inten    --      0.4646                 2.4305                 8.1727

                     46                     47                     48
                      A                      A                      A
 Frequencies --   1297.5962              1304.1769              1309.3405
 Red. masses --      1.4858                 1.3475                 1.4526
 Frc consts  --      1.4740                 1.3504                 1.4673
 IR Inten    --      0.7773                 8.8744                 1.1704

                     49                     50                     51
                      A                      A                      A
 Frequencies --   1332.2563              1358.1718              1380.7224
 Red. masses --      1.4648                 1.3312                 1.4984
 Frc consts  --      1.5318                 1.4467                 1.6830
 IR Inten    --      5.4086                11.6315                 4.7115

                     52                     53                     54
                      A                      A                      A
 Frequencies --   1394.1573              1418.4389              1427.2490
 Red. masses --      1.3368                 1.5288                 1.4352
 Frc consts  --      1.5308                 1.8123                 1.7225
 IR Inten    --     12.9540                 5.8707                 4.2648

                     55                     56                     57
                      A                      A                      A
 Frequencies --   1441.8049              1508.3665              1508.9470
 Red. masses --      1.2921                 1.0892                 1.0888
 Frc consts  --      1.5826                 1.4601                 1.4607
 IR Inten    --     40.7880                 6.0070                 1.2467

                     58                     59                     60
                      A                      A                      A
 Frequencies --   1515.2981              1538.9965              1541.1369
 Red. masses --      1.0834                 1.0837                 1.1381
 Frc consts  --      1.4657                 1.5122                 1.5926
 IR Inten    --      2.7063                 3.4391                 0.4039

                     61                     62                     63
                      A                      A                      A
 Frequencies --   1565.2118              2992.5784              3000.8020
 Red. masses --      1.1106                 1.0677                 1.0673
 Frc consts  --      1.6031                 5.6334                 5.6626
 IR Inten    --      3.7686                84.7507                80.6833

                     64                     65                     66
                      A                      A                      A
 Frequencies --   3025.5109              3032.4488              3051.8490
 Red. masses --      1.0811                 1.0674                 1.0829
 Frc consts  --      5.8305                 5.7831                 5.9422
 IR Inten    --     15.4270                 9.1868                39.8861

                     67                     68                     69
                      A                      A                      A
 Frequencies --   3059.5829              3062.5235              3069.2624
 Red. masses --      1.0635                 1.0975                 1.0576
 Frc consts  --      5.8654                 6.0650                 5.8702
 IR Inten    --     37.5808                62.3208                37.8899

                     70                     71                     72
                      A                      A                      A
 Frequencies --   3072.4759              3078.4616              3091.8753
 Red. masses --      1.0644                 1.0912                 1.0933
 Frc consts  --      5.9202                 6.0931                 6.1579
 IR Inten    --     35.3753                 8.7088                26.6835

                     73                     74                     75
                      A                      A                      A
 Frequencies --   3097.0625              3108.0959              3117.0425
 Red. masses --      1.0946                 1.1049                 1.1073
 Frc consts  --      6.1861                 6.2889                 6.3388
 IR Inten    --     58.2163                19.2013                26.6176

                     76                     77                     78
                      A                      A                      A
 Frequencies --   3130.3761              3503.0695              3740.0658
 Red. masses --      1.1078                 1.0761                 1.0659
 Frc consts  --      6.3959                 7.7806                 8.7844
 IR Inten    --     74.6064                 5.1638                 6.3234

 - Thermochemistry -
 -------------------
 Temperature   298.150 Kelvin.  Pressure   1.00000 Atm.
 Atom     1 has atomic number  6 and mass  12.00000

 Molecular mass:   155.13101 amu.
 Principal axes and moments of inertia in atomic units:
                           1         2         3
     Eigenvalues --   733.250803311.496593701.13221
           X            0.99999   0.00109  -0.00302
           Y           -0.00116   0.99972  -0.02357
           Z            0.00300   0.02357   0.99972
 This molecule is an asymmetric top.
 Rotational symmetry number  1.
 Warning -- assumption of classical behavior for rotation
           may cause significant error
 Rotational temperatures (Kelvin)      0.11812     0.02616     0.02340
 Rotational constants (GHZ):           2.46129     0.54499     0.48762
 Zero-point vibrational energy     668468.4 (Joules/Mol)
                                  159.76777 (Kcal/Mol)
 Warning -- explicit consideration of  14 degrees of freedom as
           vibrations may cause significant error
 Vibrational temperatures:     48.90    89.64   131.16   187.76   198.43
          (Kelvin)            233.72   291.58   413.88   441.87   473.02
                              543.42   581.41   664.72   868.04   954.06
                              971.70  1110.86  1144.15  1194.92  1246.72
                             1268.61  1304.39  1345.42  1356.23  1367.07
                             1399.03  1410.87  1443.19  1493.68  1510.41
                             1531.05  1553.44  1568.06  1601.10  1624.46
                             1651.89  1709.33  1743.94  1752.24  1778.58
                             1781.32  1826.65  1835.64  1841.35  1853.69
                             1866.95  1876.42  1883.85  1916.82  1954.11
                             1986.55  2005.88  2040.82  2053.49  2074.44
                             2170.20  2171.04  2180.18  2214.27  2217.35
                             2251.99  4305.65  4317.48  4353.04  4363.02
                             4390.93  4402.06  4406.29  4415.98  4420.61
                             4429.22  4448.52  4455.98  4471.86  4484.73
                             4503.91  5040.14  5381.12

 Zero-point correction=                           0.254606 (Hartree/Particle)
 Thermal correction to Energy=                    0.266036
 Thermal correction to Enthalpy=                  0.266981
 Thermal correction to Gibbs Free Energy=         0.216397
 Sum of electronic and zero-point Energies=           -482.877739
 Sum of electronic and thermal Energies=              -482.866309
 Sum of electronic and thermal Enthalpies=            -482.865365
 Sum of electronic and thermal Free Energies=         -482.915948

                     E (Thermal)             CV                S
                      KCal/Mol        Cal/Mol-Kelvin    Cal/Mol-Kelvin
 Total                  166.940             43.105            106.461
 Electronic               0.000              0.000              0.000
 Translational            0.889              2.981             41.027
 Rotational               0.889              2.981             30.575
 Vibrational            165.163             37.143             34.859
 Vibration     1          0.594              1.983              5.582
 Vibration     2          0.597              1.972              4.383
 Vibration     3          0.602              1.955              3.635
 Vibration     4          0.612              1.923              2.939
 Vibration     5          0.614              1.915              2.833
 Vibration     6          0.623              1.888              2.521
 Vibration     7          0.639              1.836              2.109
 Vibration     8          0.685              1.697              1.488
 Vibration     9          0.697              1.660              1.378
 Vibration    10          0.712              1.618              1.266
 Vibration    11          0.748              1.518              1.048
 Vibration    12          0.769              1.461              0.948
 Vibration    13          0.820              1.334              0.760
 Vibration    14          0.962              1.025              0.444

 Optimization completed.
    -- Stationary point found.
 Normal termination of Gaussian 16 at Tue Dec  8 21:16:55 2020.

 ----------------------------------------------------------------------
 # B3LYP/6-311++G(d,p) empiricaldispersion=gd3bj scf=xqc pop=npa geom=c
 heck
 ----------------------------------------------------------------------

 ---------------------------------------
 CID_105430412_JID_1796_Energie_neutraal
 ---------------------------------------
 Structure from the checkpoint file:  "JID_1796.chk"
 Charge =  0 Multiplicity = 1

 SCF Done:  E(RB3LYP) =  -483.278320287     A.U. after   13 cycles
 Normal termination of Gaussian 16 at Tue Dec  8 21:20:20 2020.

 ----------------------------------------------------------------------
 # B3LYP/6-311++G(d,p) empiricaldispersion=gd3bj scf=xqc pop=npa geom=c
 heck
 ----------------------------------------------------------------------

 -------------------------------------
 CID_105430412_JID_1796_Energie_kation
 -------------------------------------
 Structure from the checkpoint file:  "JID_1796.chk"
 Charge =  1 Multiplicity = 2

 SCF Done:  E(UB3LYP) =  -482.964841298     A.U. after   21 cycles
 Normal termination of Gaussian 16 at Tue Dec  8 21:27:34 2020.
 Gaussian 16:  ES64L-G16RevA.03 25-Dec-2016

 ----------------------------------------------------------------------
 # B3LYP/6-311++G(d,p) empiricaldispersion=gd3bj scf=xqc pop=npa geom=c
 heck
 ----------------------------------------------------------------------

 ------------------------------------
 CID_105430412_JID_1796_Energie_anion
 ------------------------------------
 Structure from the checkpoint file:  "JID_1796.chk"
 Charge = -1 Multiplicity = 2

                         Standard orientation:
 ---------------------------------------------------------------------
 Center     Atomic      Atomic             Coordinates (Angstroms)
 Number     Number       Type             X           Y           Z
 ---------------------------------------------------------------------
      1          6           0       -3.626737   -0.731192   -0.371101
      2          6           0       -2.982051    0.680042   -0.347685
      3          6           0       -1.590258    0.001968   -0.239259
      4          6           0       -2.304675   -1.304768    0.204203
      5          6           0       -0.561114    0.627583    0.692442
      6          6           0        0.686989   -0.245157    0.904777
      7          6           0        1.567925   -0.443756   -0.328347
      8          6           0        2.552940    0.723419   -0.632888
      9          7           0        3.619760   -0.028146    0.067500
     10          6           0        2.845095   -1.283575   -0.060654
     11          8           0       -0.237134    1.956684    0.265799
     12          1           0       -3.806944   -1.079231   -1.393634
     13          1           0       -4.539743   -0.882862    0.212497
     14          1           0       -3.162551    1.340539   -1.200612
     15          1           0       -3.222028    1.227805    0.570181
     16          1           0       -1.157378   -0.128531   -1.241102
     17          1           0       -2.338862   -1.383381    1.297347
     18          1           0       -1.934867   -2.252247   -0.199864
     19          1           0       -1.038632    0.771167    1.670110
     20          1           0        1.296627    0.197601    1.701436
     21          1           0        0.354824   -1.228466    1.267250
     22          1           0        0.977789   -0.786409   -1.184034
     23          1           0        2.717617    0.853342   -1.714556
     24          1           0        2.322971    1.695781   -0.185000
     25          1           0        4.527767   -0.026374   -0.391754
     26          1           0        2.847355   -1.909288    0.841203
     27          1           0        3.119125   -1.909736   -0.924065
     28          1           0        0.066993    1.896450   -0.653219
 ---------------------------------------------------------------------

 SCF Done:  E(UB3LYP) =  -483.263940234     A.U. after   28 cycles

 The electronic state is 2-A.
 Alpha  occ. eigenvalues --  -19.02017 -14.18735 -10.11827 -10.08413 -10.08168
 Alpha  occ. eigenvalues --  -10.07047 -10.06873 -10.06849 -10.06827 -10.06561
 Alpha  occ. eigenvalues --  -10.06362  -0.92186  -0.82060  -0.74842  -0.67380
 Alpha  occ. eigenvalues --   -0.60868  -0.56603  -0.56171  -0.55272  -0.50281
 Alpha  occ. eigenvalues --   -0.45957  -0.43474  -0.41510  -0.39783  -0.38525
 Alpha  occ. eigenvalues --   -0.36555  -0.35063  -0.33043  -0.30800  -0.30041
 Alpha  occ. eigenvalues --   -0.29587  -0.28966  -0.27134  -0.26187  -0.24391
 Alpha  occ. eigenvalues --   -0.23983  -0.22514  -0.21319  -0.21238  -0.20903
 Alpha  occ. eigenvalues --   -0.20084  -0.16628  -0.12296   0.04693
 Alpha virt. eigenvalues --    0.06690   0.07464   0.08116   0.08597   0.09436
 Alpha virt. eigenvalues --    0.09752   0.10472   0.11101   0.11480   0.12176
 Alpha virt. eigenvalues --    0.12449   0.12946   0.13676   0.13998   0.15357

  Beta  occ. eigenvalues --  -19.02006 -14.18717 -10.11824 -10.08387 -10.08139
  Beta  occ. eigenvalues --  -10.07029 -10.06857 -10.06831 -10.06808 -10.06550
  Beta  occ. eigenvalues --  -10.06358  -0.92163  -0.82026  -0.74813  -0.67357
  Beta  occ. eigenvalues --   -0.60828  -0.56540  -0.56129  -0.55227  -0.50241
  Beta  occ. eigenvalues --   -0.45900  -0.43416  -0.41426  -0.39745  -0.38459
  Beta  occ. eigenvalues --   -0.36532  -0.35038  -0.33013  -0.30775  -0.30011
  Beta  occ. eigenvalues --   -0.29532  -0.28945  -0.27103  -0.26156  -0.24368
  Beta  occ. eigenvalues --   -0.23946  -0.22483  -0.21285  -0.21200  -0.20867
  Beta  occ. eigenvalues --   -0.20054  -0.16612  -0.12251
  Beta virt. eigenvalues --    0.06891   0.07730   0.08023   0.08594   0.09003
  Beta virt. eigenvalues --    0.09889   0.10259   0.10728   0.11387   0.11831
  Beta virt. eigenvalues --    0.12718   0.12823   0.13293   0.13779   0.14249

 Mulliken charges and spin densities:
               1          2
     1  C    0.079825  -0.365417
     2  C    0.272995  -0.740363
     3  C   -1.165946   1.559882
     4  C    0.548391  -1.107527
     5  C    1.117518  -1.444909
     6  C   -0.287751  -0.098553
     7  C   -1.464158   1.525242
     8  C    1.250198  -1.777582
     9  N   -0.343755   0.201726
    10  C    0.990246  -1.430990
    11  O   -0.188600  -0.004921
    12  H   -0.180252   0.320876
    13  H   -0.092228   0.229077
    14  H   -0.133344   0.279931
    15  H    0.085355   0.042231
    16  H   -0.358013   0.540238
    17  H    0.028172   0.090907
    18  H   -0.226880   0.384469
    19  H    0.135384   0.048783
    20  H    0.108481   0.101832
    21  H    0.123165   0.002499
    22  H    0.012222   0.227946
    23  H   -0.891803   1.053041
    24  H    0.248000  -0.086636
    25  H    0.015154   0.220927
    26  H    0.023395   0.130428
    27  H   -0.825689   0.977799
    28  H    0.119917   0.119065
 Sum of Mulliken charges =  -1.00000   1.00000

 Dipole moment (field-independent basis, Debye):
    X=             -3.2548    Y=              1.6768    Z=              6.0728  Tot=              7.0911
 Quadrupole moment (field-independent basis, Debye-Ang):
   XX=           -138.7166   YY=           -107.7938   ZZ=           -108.3670
   XY=              1.2835   XZ=              4.1355   YZ=             -5.4692

 Summary of Natural Population Analysis:

                                       Natural Population
                Natural  -----------------------------------------------
    Atom  No    Charge         Core      Valence    Rydberg      Total
 -----------------------------------------------------------------------
      C    1   -0.19087      0.99965     2.18311    0.00810     3.19087
      C    2   -0.18282      0.99963     2.17405    0.00914     3.18282
      C    3   -0.12278      0.99958     2.11045    0.01276     3.12278
      C    4   -0.18623      0.99963     2.17798    0.00862     3.18623
      C    5    0.06904      0.99951     1.91746    0.01399     2.93096
      C    6   -0.19955      0.99959     2.19069    0.00926     3.19955
      C    7   -0.12549      0.99958     2.11222    0.01369     3.12549
      C    8   -0.08508      0.99963     2.07405    0.01139     3.08508
      N    9   -0.34738      0.99976     2.83483    0.01278     3.84738
      C   10   -0.07648      0.99964     2.06546    0.01137     3.07648
      O   11   -0.37217      0.99990     3.36626    0.00601     4.37217
      H   12    0.09858      0.00000     0.39970    0.00171     0.40142
      H   13    0.09206      0.00000     0.40703    0.00091     0.40794
      H   14    0.09880      0.00000     0.40021    0.00100     0.40120
      H   15    0.09363      0.00000     0.40527    0.00110     0.40637
      H   16    0.10152      0.00000     0.39574    0.00274     0.39848
      H   17    0.09202      0.00000     0.40684    0.00114     0.40798
      H   18    0.10124      0.00000     0.39756    0.00120     0.39876
      H   19    0.08150      0.00000     0.41666    0.00185     0.41850
      H   20    0.10311      0.00000     0.39561    0.00128     0.39689
      H   21    0.10045      0.00000     0.39840    0.00115     0.39955
      H   22    0.10370      0.00000     0.39273    0.00357     0.39630
      H   23    0.08902      0.00000     0.40751    0.00346     0.41098
      H   24    0.09004      0.00000     0.40844    0.00152     0.40996
      H   25    0.17376      0.00000     0.32368    0.00256     0.32624
      H   26    0.08369      0.00000     0.41497    0.00134     0.41631
      H   27    0.08923      0.00000     0.40763    0.00314     0.41077
      H   28    0.22742      0.00000     0.26947    0.00311     0.27258
 =======================================================================
   * Total *   -0.00000     10.99611    31.85400    0.14990    43.00000

 Normal termination of Gaussian 16 at Tue Dec  8 21:34:36 2020.
