 Gaussian 16, Revision A.03,

 -----------------------------------------------------------
 # opt freq B3LYP/6-31G(d) empiricaldispersion=gd3bj scf=xqc
 -----------------------------------------------------------

 -------------------------------
 CID_115244332_JID_9079_neutraal
 -------------------------------
 Symbolic Z-matrix:
 Charge =  0 Multiplicity = 1

 SCF Done:  E(RB3LYP) =  -803.887875962     A.U. after   14 cycles
 SCF Done:  E(RB3LYP) =  -803.896318291     A.U. after   12 cycles
 SCF Done:  E(RB3LYP) =  -803.897880517     A.U. after   12 cycles
 SCF Done:  E(RB3LYP) =  -803.898333518     A.U. after   12 cycles
 SCF Done:  E(RB3LYP) =  -803.898529658     A.U. after   11 cycles
 SCF Done:  E(RB3LYP) =  -803.898609421     A.U. after   11 cycles
 SCF Done:  E(RB3LYP) =  -803.898645696     A.U. after   10 cycles
 SCF Done:  E(RB3LYP) =  -803.898656447     A.U. after    9 cycles
 SCF Done:  E(RB3LYP) =  -803.898661622     A.U. after   10 cycles
 SCF Done:  E(RB3LYP) =  -803.898662665     A.U. after    9 cycles
 SCF Done:  E(RB3LYP) =  -803.898665245     A.U. after    7 cycles
 SCF Done:  E(RB3LYP) =  -803.898665450     A.U. after    7 cycles
 SCF Done:  E(RB3LYP) =  -803.898665666     A.U. after    7 cycles
 SCF Done:  E(RB3LYP) =  -803.898665782     A.U. after    7 cycles
 SCF Done:  E(RB3LYP) =  -803.898665828     A.U. after    7 cycles
 Optimization completed.
    -- Stationary point found.
 Normal termination of Gaussian 16 at Sun Dec 13 12:39:31 2020.

 --------------------------------------------------------------------
 #N Geom=AllCheck Guess=TCheck SCRF=Check GenChk RB3LYP/6-31G(d) Freq
 --------------------------------------------------------------------

 Structure from the checkpoint file:  "JID_9079.chk"
 -------------------------------
 CID_115244332_JID_9079_neutraal
 -------------------------------
 Charge =  0 Multiplicity = 1

 SCF Done:  E(RB3LYP) =  -803.898665828     A.U. after    1 cycles

  Exact polarizability: 202.517 -42.909 169.070  -3.021   3.457 167.075
 Approx polarizability: 267.119 -76.242 248.936  -3.516   9.121 292.578

                      1                      2                      3
                      A                      A                      A
 Frequencies --     12.3963                25.8336                34.5464
 Red. masses --      4.5469                 3.8782                 3.9627
 Frc consts  --      0.0004                 0.0015                 0.0028
 IR Inten    --      0.2353                 1.9642                 0.8472

                      4                      5                      6
                      A                      A                      A
 Frequencies --     61.4258                89.3021                94.0458
 Red. masses --      4.1551                 2.6520                 1.2391
 Frc consts  --      0.0092                 0.0125                 0.0065
 IR Inten    --      0.3081                 1.3479                 0.1989

                      7                      8                      9
                      A                      A                      A
 Frequencies --    123.8834               132.1406               185.9982
 Red. masses --      3.7901                 2.7253                 2.6951
 Frc consts  --      0.0343                 0.0280                 0.0549
 IR Inten    --      0.8128                 2.6019                 1.1154

                     10                     11                     12
                      A                      A                      A
 Frequencies --    200.5785               209.3391               246.9385
 Red. masses --      3.8866                 3.4850                 1.6341
 Frc consts  --      0.0921                 0.0900                 0.0587
 IR Inten    --      1.8921                 2.0114                15.4057

                     13                     14                     15
                      A                      A                      A
 Frequencies --    251.9349               267.7983               285.3468
 Red. masses --      2.2116                 3.4773                 2.5671
 Frc consts  --      0.0827                 0.1469                 0.1231
 IR Inten    --     15.8326                 3.2480                15.1209

                     16                     17                     18
                      A                      A                      A
 Frequencies --    298.1067               332.6025               355.7964
 Red. masses --      2.8109                 2.2384                 2.1260
 Frc consts  --      0.1472                 0.1459                 0.1586
 IR Inten    --      8.2149                 2.4423                19.3758

                     19                     20                     21
                      A                      A                      A
 Frequencies --    358.4085               378.9897               419.7080
 Red. masses --      2.1468                 2.4973                 1.9705
 Frc consts  --      0.1625                 0.2113                 0.2045
 IR Inten    --      1.9630                 3.4464                29.3649

                     22                     23                     24
                      A                      A                      A
 Frequencies --    428.7597               441.4731               486.4966
 Red. masses --      1.8050                 2.9258                 3.6256
 Frc consts  --      0.1955                 0.3360                 0.5056
 IR Inten    --     46.7368                26.2513                 7.8139

                     25                     26                     27
                      A                      A                      A
 Frequencies --    491.4560               506.5428               577.4967
 Red. masses --      3.4780                 3.2108                 2.8614
 Frc consts  --      0.4949                 0.4854                 0.5622
 IR Inten    --      5.1450                 7.9548                 2.6449

                     28                     29                     30
                      A                      A                      A
 Frequencies --    600.2994               666.5709               674.5677
 Red. masses --      4.4521                 2.8210                 3.5451
 Frc consts  --      0.9453                 0.7385                 0.9504
 IR Inten    --      0.7720                14.7440                 3.6498

                     31                     32                     33
                      A                      A                      A
 Frequencies --    683.2060               695.4307               757.4866
 Red. masses --      2.5288                 5.1778                 2.1973
 Frc consts  --      0.6955                 1.4754                 0.7428
 IR Inten    --     11.3355                 0.8994                41.7636

                     34                     35                     36
                      A                      A                      A
 Frequencies --    770.8427               775.3340               804.9034
 Red. masses --      3.4808                 3.2720                 1.0730
 Frc consts  --      1.2186                 1.1589                 0.4096
 IR Inten    --     14.5344                21.1509                 0.8847

                     37                     38                     39
                      A                      A                      A
 Frequencies --    831.2657               852.5766               856.6893
 Red. masses --      1.6062                 2.0212                 1.3046
 Frc consts  --      0.6539                 0.8656                 0.5641
 IR Inten    --     36.7539                 0.9484               109.6244

                     40                     41                     42
                      A                      A                      A
 Frequencies --    861.9842               866.1045               895.7226
 Red. masses --      1.4410                 4.0348                 1.9034
 Frc consts  --      0.6308                 1.7832                 0.8998
 IR Inten    --     19.3847                 5.6606                 9.1149

                     43                     44                     45
                      A                      A                      A
 Frequencies --    907.9749               945.4986               954.3065
 Red. masses --      1.5869                 2.6131                 1.5711
 Frc consts  --      0.7708                 1.3763                 0.8430
 IR Inten    --      1.4693                 6.5864                 1.9269

                     46                     47                     48
                      A                      A                      A
 Frequencies --    957.0483               962.0165               980.2315
 Red. masses --      1.3211                 2.1570                 2.1037
 Frc consts  --      0.7129                 1.1761                 1.1909
 IR Inten    --      0.1636                 4.0413                 1.2161

                     49                     50                     51
                      A                      A                      A
 Frequencies --    994.4853              1018.4773              1038.4532
 Red. masses --      2.2134                 1.9859                 1.7803
 Frc consts  --      1.2897                 1.2137                 1.1311
 IR Inten    --      2.8922                13.2821                13.6907

                     52                     53                     54
                      A                      A                      A
 Frequencies --   1040.4765              1066.2648              1074.9612
 Red. masses --      2.3552                 1.6112                 1.5454
 Frc consts  --      1.5023                 1.0792                 1.0521
 IR Inten    --      3.5923                 2.5038                 2.5537

                     55                     56                     57
                      A                      A                      A
 Frequencies --   1075.2982              1082.4709              1086.9798
 Red. masses --      1.8104                 2.4824                 1.3961
 Frc consts  --      1.2333                 1.7138                 0.9719
 IR Inten    --      1.3805                14.0872                 0.5726

                     58                     59                     60
                      A                      A                      A
 Frequencies --   1131.7654              1157.7456              1169.5911
 Red. masses --      2.1544                 1.4541                 1.8712
 Frc consts  --      1.6259                 1.1483                 1.5081
 IR Inten    --      2.4216                 1.3068                 4.7683

                     61                     62                     63
                      A                      A                      A
 Frequencies --   1179.1442              1194.2166              1207.4045
 Red. masses --      3.3587                 1.3031                 1.3543
 Frc consts  --      2.7514                 1.0950                 1.1632
 IR Inten    --     40.7074                 1.4735                 0.9871

                     64                     65                     66
                      A                      A                      A
 Frequencies --   1218.9658              1237.6317              1254.6771
 Red. masses --      1.2956                 1.8626                 1.3756
 Frc consts  --      1.1343                 1.6809                 1.2759
 IR Inten    --      0.4507                 9.9744                 3.5424

                     67                     68                     69
                      A                      A                      A
 Frequencies --   1262.7840              1286.8894              1305.7270
 Red. masses --      1.9960                 1.9536                 1.7570
 Frc consts  --      1.8753                 1.9062                 1.7649
 IR Inten    --      0.9498                 2.0239                 2.1198

                     70                     71                     72
                      A                      A                      A
 Frequencies --   1309.6400              1333.2896              1347.0769
 Red. masses --      4.1332                 1.7524                 1.2737
 Frc consts  --      4.1768                 1.8354                 1.3618
 IR Inten    --     57.9627                 0.8404                15.4224

                     73                     74                     75
                      A                      A                      A
 Frequencies --   1369.5544              1381.4310              1398.9253
 Red. masses --      1.6200                 1.7244                 3.0747
 Frc consts  --      1.7903                 1.9388                 3.5453
 IR Inten    --     11.5863                 4.5162                 9.4198

                     76                     77                     78
                      A                      A                      A
 Frequencies --   1413.0674              1426.2862              1431.0008
 Red. masses --      1.3352                 1.8736                 1.3616
 Frc consts  --      1.5708                 2.2457                 1.6427
 IR Inten    --     26.0384                28.6857                19.1291

                     79                     80                     81
                      A                      A                      A
 Frequencies --   1439.7819              1446.6394              1491.8207
 Red. masses --      1.6003                 1.5415                 3.1474
 Frc consts  --      1.9545                 1.9007                 4.1270
 IR Inten    --     22.5768                19.4652                38.1444

                     82                     83                     84
                      A                      A                      A
 Frequencies --   1496.1041              1510.5156              1511.4224
 Red. masses --      1.0911                 1.1181                 1.0444
 Frc consts  --      1.4390                 1.5031                 1.4057
 IR Inten    --      2.7743                 1.0473                 6.2676

                     85                     86                     87
                      A                      A                      A
 Frequencies --   1511.7639              1514.6405              1532.0338
 Red. masses --      1.1144                 1.2374                 1.2366
 Frc consts  --      1.5006                 1.6725                 1.7101
 IR Inten    --     11.6978                 1.7534                15.7406

                     88                     89                     90
                      A                      A                      A
 Frequencies --   1533.8615              1541.0536              1544.0331
 Red. masses --      1.2262                 1.3949                 1.8922
 Frc consts  --      1.6997                 1.9518                 2.6578
 IR Inten    --     28.5336                 0.1383                 6.7951

                     91                     92                     93
                      A                      A                      A
 Frequencies --   1550.5429              1604.4504              1636.9420
 Red. masses --      1.1441                 5.3309                 7.0719
 Frc consts  --      1.6207                 8.0855                11.1648
 IR Inten    --     15.0423                42.8346                 3.7203

                     94                     95                     96
                      A                      A                      A
 Frequencies --   1688.1810              1690.8424              2948.8458
 Red. masses --      1.0914                 6.6772                 1.0732
 Frc consts  --      1.8326                11.2474                 5.4986
 IR Inten    --     30.8472                26.7501                78.7744

                     97                     98                     99
                      A                      A                      A
 Frequencies --   2961.1465              3033.9513              3045.8572
 Red. masses --      1.0702                 1.0664                 1.0777
 Frc consts  --      5.5290                 5.7836                 5.8906
 IR Inten    --     55.8406                24.8366                 8.5622

                    100                    101                    102
                      A                      A                      A
 Frequencies --   3047.3544              3047.7441              3057.4457
 Red. masses --      1.0403                 1.0869                 1.0734
 Frc consts  --      5.6917                 5.9484                 5.9117
 IR Inten    --     38.7096                63.1648                95.5417

                    103                    104                    105
                      A                      A                      A
 Frequencies --   3095.1726              3096.9438              3104.2993
 Red. masses --      1.0989                 1.1012                 1.1019
 Frc consts  --      6.2028                 6.2228                 6.2565
 IR Inten    --     10.2483                16.4640                19.9930

                    106                    107                    108
                      A                      A                      A
 Frequencies --   3137.2635              3140.7793              3169.5610
 Red. masses --      1.0540                 1.0600                 1.0978
 Frc consts  --      6.1121                 6.1608                 6.4979
 IR Inten    --     14.7643                20.1606                 3.4777

                    109                    110                    111
                      A                      A                      A
 Frequencies --   3182.6332              3191.9759              3216.6116
 Red. masses --      1.0905                 1.0882                 1.1138
 Frc consts  --      6.5081                 6.5324                 6.7897
 IR Inten    --     12.5448                 7.9859                 0.7104

                    112                    113                    114
                      A                      A                      A
 Frequencies --   3216.6898              3228.7608              3467.3600
 Red. masses --      1.0949                 1.1129                 1.0494
 Frc consts  --      6.6747                 6.8359                 7.4337
 IR Inten    --     10.6518                23.8102                 2.0423

                    115                    116                    117
                      A                      A                      A
 Frequencies --   3513.3073              3555.2400              3654.6604
 Red. masses --      1.0732                 1.0927                 1.0801
 Frc consts  --      7.8045                 8.1377                 8.4999
 IR Inten    --      4.4072                 0.8298                42.0592

 - Thermochemistry -
 -------------------
 Temperature   298.150 Kelvin.  Pressure   1.00000 Atm.
 Atom     1 has atomic number  6 and mass  12.00000

 Molecular mass:   258.18445 amu.
 Principal axes and moments of inertia in atomic units:
                           1         2         3
     Eigenvalues --  3200.977169022.21510**********
           X            0.99999  -0.00344  -0.00386
           Y            0.00343   0.99999  -0.00257
           Z            0.00386   0.00256   0.99999
 This molecule is an asymmetric top.
 Rotational symmetry number  1.
 Warning -- assumption of classical behavior for rotation
           may cause significant error
 Rotational temperatures (Kelvin)      0.02706     0.00960     0.00843
 Rotational constants (GHZ):           0.56381     0.20003     0.17572
 Zero-point vibrational energy     941762.1 (Joules/Mol)
                                  225.08653 (Kcal/Mol)
 Warning -- explicit consideration of  28 degrees of freedom as
           vibrations may cause significant error
 Vibrational temperatures:     17.84    37.17    49.70    88.38   128.49
          (Kelvin)            135.31   178.24   190.12   267.61   288.59
                              301.19   355.29   362.48   385.30   410.55
                              428.91   478.54   511.91   515.67   545.28
                              603.87   616.89   635.18   699.96   707.10
                              728.80   830.89   863.70   959.05   970.55
                              982.98  1000.57  1089.85  1109.07  1115.53
                             1158.08  1196.01  1226.67  1232.58  1240.20
                             1246.13  1288.75  1306.37  1360.36  1373.03
                             1376.98  1384.13  1410.33  1430.84  1465.36
                             1494.10  1497.01  1534.12  1546.63  1547.11
                             1557.43  1563.92  1628.36  1665.74  1682.78
                             1696.53  1718.21  1737.19  1753.82  1780.68
                             1805.20  1816.86  1851.55  1878.65  1884.28
                             1918.31  1938.14  1970.48  1987.57  2012.74
                             2033.09  2052.11  2058.89  2071.53  2081.39
                             2146.40  2152.56  2173.30  2174.60  2175.09
                             2179.23  2204.25  2206.88  2217.23  2221.52
                             2230.89  2308.45  2355.19  2428.92  2432.75
                             4242.73  4260.43  4365.18  4382.31  4384.46
                             4385.02  4398.98  4453.26  4455.81  4466.39
                             4513.82  4518.88  4560.29  4579.10  4592.54
                             4627.99  4628.10  4645.47  4988.76  5054.87
                             5115.20  5258.24

 Zero-point correction=                           0.358698 (Hartree/Particle)
 Thermal correction to Energy=                    0.377224
 Thermal correction to Enthalpy=                  0.378168
 Thermal correction to Gibbs Free Energy=         0.310024
 Sum of electronic and zero-point Energies=           -803.539968
 Sum of electronic and thermal Energies=              -803.521442
 Sum of electronic and thermal Enthalpies=            -803.520497
 Sum of electronic and thermal Free Energies=         -803.588642

                     E (Thermal)             CV                S
                      KCal/Mol        Cal/Mol-Kelvin    Cal/Mol-Kelvin
 Total                  236.712             71.768            143.422
 Electronic               0.000              0.000              0.000
 Translational            0.889              2.981             42.545
 Rotational               0.889              2.981             34.050
 Vibrational            234.934             65.807             66.828
 Vibration     1          0.593              1.987              7.584
 Vibration     2          0.593              1.985              6.126
 Vibration     3          0.594              1.983              5.550
 Vibration     4          0.597              1.973              4.411
 Vibration     5          0.602              1.957              3.675
 Vibration     6          0.603              1.953              3.574
 Vibration     7          0.610              1.929              3.039
 Vibration     8          0.612              1.921              2.915
 Vibration     9          0.632              1.859              2.267
 Vibration    10          0.638              1.839              2.128
 Vibration    11          0.642              1.826              2.049
 Vibration    12          0.661              1.768              1.752
 Vibration    13          0.664              1.760              1.717
 Vibration    14          0.673              1.732              1.610
 Vibration    15          0.683              1.701              1.501
 Vibration    16          0.691              1.677              1.428
 Vibration    17          0.715              1.610              1.247
 Vibration    18          0.731              1.563              1.140
 Vibration    19          0.733              1.558              1.129
 Vibration    20          0.749              1.515              1.043
 Vibration    21          0.782              1.427              0.893
 Vibration    22          0.790              1.408              0.863
 Vibration    23          0.801              1.380              0.822
 Vibration    24          0.842              1.280              0.693
 Vibration    25          0.847              1.269              0.680
 Vibration    26          0.862              1.235              0.642
 Vibration    27          0.934              1.080              0.490
 Vibration    28          0.958              1.031              0.449

 Optimization completed.
    -- Stationary point found.
 Normal termination of Gaussian 16 at Sun Dec 13 13:00:24 2020.

 ----------------------------------------------------------------------
 # B3LYP/6-311++G(d,p) empiricaldispersion=gd3bj scf=xqc pop=npa geom=c
 heck
 ----------------------------------------------------------------------

 ---------------------------------------
 CID_115244332_JID_9079_Energie_neutraal
 ---------------------------------------
 Structure from the checkpoint file:  "JID_9079.chk"
 Charge =  0 Multiplicity = 1

 SCF Done:  E(RB3LYP) =  -804.124071324     A.U. after   15 cycles
 Normal termination of Gaussian 16 at Sun Dec 13 13:10:30 2020.

 ----------------------------------------------------------------------
 # B3LYP/6-311++G(d,p) empiricaldispersion=gd3bj scf=xqc pop=npa geom=c
 heck
 ----------------------------------------------------------------------

 -------------------------------------
 CID_115244332_JID_9079_Energie_kation
 -------------------------------------
 Structure from the checkpoint file:  "JID_9079.chk"
 Charge =  1 Multiplicity = 2

 SCF Done:  E(UB3LYP) =  -803.853337758     A.U. after   24 cycles
 Normal termination of Gaussian 16 at Sun Dec 13 13:33:25 2020.
 Gaussian 16:  ES64L-G16RevA.03 25-Dec-2016

 ----------------------------------------------------------------------
 # B3LYP/6-311++G(d,p) empiricaldispersion=gd3bj scf=xqc pop=npa geom=c
 heck
 ----------------------------------------------------------------------

 ------------------------------------
 CID_115244332_JID_9079_Energie_anion
 ------------------------------------
 Structure from the checkpoint file:  "JID_9079.chk"
 Charge = -1 Multiplicity = 2

                         Standard orientation:
 ---------------------------------------------------------------------
 Center     Atomic      Atomic             Coordinates (Angstroms)
 Number     Number       Type             X           Y           Z
 ---------------------------------------------------------------------
      1          6           0        5.040157   -2.250578   -0.423415
      2          6           0        4.004524   -1.224228   -0.108124
      3          7           0        3.678068   -0.814200    1.094421
      4          6           0        2.678507    0.134811    0.902629
      5          6           0        2.404148    0.289067   -0.479067
      6          7           0        3.271798   -0.593858   -1.100517
      7          6           0        1.444970    1.176223   -0.960845
      8          6           0        0.735058    1.936663   -0.025176
      9          6           0        1.007678    1.788419    1.353450
     10          6           0        1.967422    0.899865    1.830610
     11          6           0       -0.382626    2.845062   -0.489496
     12          6           0       -1.658243    2.045026   -0.803520
     13          7           0       -2.162581    1.414085    0.406323
     14          6           0       -3.346390    0.572986    0.293416
     15          6           0       -3.218527   -0.825330   -0.343301
     16          6           0       -2.872254   -0.995830   -1.801492
     17          6           0       -1.863224   -1.369597   -0.740602
     18          6           0       -4.203842   -1.829752    0.233107
     19          7           0       -3.935037   -2.057927    1.656266
     20          1           0        4.608721   -3.108559   -0.953875
     21          1           0        5.838337   -1.837242   -1.052405
     22          1           0        5.479512   -2.602898    0.511094
     23          1           0        3.352630   -0.756329   -2.092959
     24          1           0        1.243993    1.280216   -2.024197
     25          1           0        0.439093    2.389869    2.057181
     26          1           0        2.166228    0.796895    2.892585
     27          1           0       -0.612459    3.586435    0.282988
     28          1           0       -0.078709    3.387947   -1.392999
     29          1           0       -2.435646    2.720296   -1.185422
     30          1           0       -1.415611    1.344349   -1.622157
     31          1           0       -1.415715    0.899292    0.866564
     32          1           0       -3.720010    0.410877    1.309866
     33          1           0       -4.114619    1.143680   -0.246449
     34          1           0       -3.355778   -1.800806   -2.351074
     35          1           0       -2.693190   -0.105281   -2.395072
     36          1           0       -0.990776   -0.734867   -0.614942
     37          1           0       -1.664524   -2.427005   -0.578822
     38          1           0       -5.223924   -1.430195    0.147896
     39          1           0       -4.173185   -2.747798   -0.381698
     40          1           0       -4.608721   -2.717401    2.040708
     41          1           0       -3.015532   -2.485008    1.758696
 ---------------------------------------------------------------------

 SCF Done:  E(UB3LYP) =  -804.117426703     A.U. after   33 cycles
 SCF Done:  E(UB3LYP) =  -804.117426703     a.u. after    1 cycles

 The electronic state is 2-A.
 Alpha  occ. eigenvalues --  -14.26447 -14.20886 -14.20539 -14.20115 -10.15049
 Alpha  occ. eigenvalues --  -10.11792 -10.10931 -10.10760 -10.10088 -10.10071
 Alpha  occ. eigenvalues --  -10.09364 -10.09143 -10.08710 -10.08526 -10.08396
 Alpha  occ. eigenvalues --  -10.08379 -10.08167 -10.08028 -10.08010  -0.92123
 Alpha  occ. eigenvalues --   -0.82413  -0.80257  -0.78329  -0.76456  -0.75835
 Alpha  occ. eigenvalues --   -0.69500  -0.66657  -0.64745  -0.61888  -0.60022
 Alpha  occ. eigenvalues --   -0.56646  -0.53642  -0.52909  -0.51423  -0.50363
 Alpha  occ. eigenvalues --   -0.48640  -0.45862  -0.44478  -0.42240  -0.41213
 Alpha  occ. eigenvalues --   -0.41053  -0.39066  -0.38104  -0.36969  -0.36393
 Alpha  occ. eigenvalues --   -0.36047  -0.35353  -0.34690  -0.34079  -0.32579
 Alpha  occ. eigenvalues --   -0.31569  -0.31386  -0.30844  -0.30736  -0.29406
 Alpha  occ. eigenvalues --   -0.28225  -0.27950  -0.27648  -0.26847  -0.26265
 Alpha  occ. eigenvalues --   -0.25436  -0.23937  -0.21370  -0.20429  -0.19301
 Alpha  occ. eigenvalues --   -0.18465  -0.16475  -0.14138  -0.13548  -0.12895
 Alpha  occ. eigenvalues --    0.03709
 Alpha virt. eigenvalues --    0.05105   0.06158   0.06679   0.07297   0.07590
 Alpha virt. eigenvalues --    0.07918   0.08457   0.08804   0.09208   0.09589
 Alpha virt. eigenvalues --    0.10017   0.10355   0.10841   0.11204   0.11565

  Beta  occ. eigenvalues --  -14.26381 -14.20863 -14.20538 -14.20111 -10.15047
  Beta  occ. eigenvalues --  -10.11793 -10.10916 -10.10756 -10.10085 -10.10067
  Beta  occ. eigenvalues --  -10.09364 -10.09141 -10.08708 -10.08510 -10.08378
  Beta  occ. eigenvalues --  -10.08349 -10.08160 -10.08014 -10.08009  -0.92086
  Beta  occ. eigenvalues --   -0.82406  -0.80227  -0.78268  -0.76440  -0.75820
  Beta  occ. eigenvalues --   -0.69484  -0.66630  -0.64719  -0.61857  -0.59989
  Beta  occ. eigenvalues --   -0.56618  -0.53586  -0.52874  -0.51394  -0.50311
  Beta  occ. eigenvalues --   -0.48603  -0.45838  -0.44426  -0.42227  -0.41190
  Beta  occ. eigenvalues --   -0.41028  -0.39050  -0.38080  -0.36943  -0.36354
  Beta  occ. eigenvalues --   -0.36020  -0.35316  -0.34663  -0.34060  -0.32556
  Beta  occ. eigenvalues --   -0.31540  -0.31348  -0.30822  -0.30695  -0.29388
  Beta  occ. eigenvalues --   -0.28214  -0.27937  -0.27636  -0.26831  -0.26253
  Beta  occ. eigenvalues --   -0.25427  -0.23915  -0.21350  -0.20414  -0.19289
  Beta  occ. eigenvalues --   -0.18457  -0.16450  -0.14111  -0.13535  -0.12885
  Beta virt. eigenvalues --    0.05696   0.06146   0.06693   0.06846   0.07317
  Beta virt. eigenvalues --    0.07976   0.08268   0.08822   0.09057   0.09553
  Beta virt. eigenvalues --    0.09796   0.10275   0.10419   0.11099   0.11454

 Mulliken charges and spin densities:
               1          2
     1  C    0.524320  -0.740098
     2  C   -0.459214   0.773712
     3  N   -0.104726  -0.018200
     4  C    0.059421  -0.329141
     5  C    0.912286  -0.856737
     6  N   -0.336789   0.215569
     7  C   -0.220905  -0.423311
     8  C    1.360163  -0.656329
     9  C   -0.634326   0.111291
    10  C   -0.456389   0.257527
    11  C   -0.375730  -0.431154
    12  C   -0.010773  -0.102945
    13  N   -0.063115  -0.009871
    14  C   -0.727882  -0.034634
    15  C   -0.061364   0.843721
    16  C    0.279642  -0.543239
    17  C   -0.188856  -0.301360
    18  C    0.280215  -0.986351
    19  N   -0.384706   0.065910
    20  H   -0.390267   0.564796
    21  H   -0.378355   0.546306
    22  H    0.065514   0.096723
    23  H   -0.579253   0.916041
    24  H   -0.584031   0.768117
    25  H    0.162075   0.005405
    26  H    0.132149   0.036725
    27  H    0.106987   0.037331
    28  H    0.110608   0.059000
    29  H    0.113382   0.041251
    30  H    0.176313  -0.175238
    31  H    0.217530   0.036909
    32  H    0.239291  -0.016928
    33  H    0.110448   0.033170
    34  H    0.074559   0.073693
    35  H   -0.006666   0.167518
    36  H    0.248439  -0.165159
    37  H   -0.193939   0.378162
    38  H    0.014442   0.151577
    39  H   -0.180374   0.308708
    40  H   -0.003415   0.242235
    41  H    0.153291   0.059298
 Sum of Mulliken charges =  -1.00000   1.00000

 Dipole moment (field-independent basis, Debye):
    X=             -5.2627    Y=              5.2786    Z=              2.9880  Tot=              8.0304
 Quadrupole moment (field-independent basis, Debye-Ang):
   XX=           -210.0262   YY=           -158.9753   ZZ=           -162.5877
   XY=              2.8127   XZ=             21.7709   YZ=             -5.8779

 Summary of Natural Population Analysis:

                                       Natural Population
                Natural  -----------------------------------------------
    Atom  No    Charge         Core      Valence    Rydberg      Total
 -----------------------------------------------------------------------
      C    1   -0.30842      0.99962     2.30303    0.00577     3.30842
      C    2    0.21517      0.99963     1.76821    0.01699     2.78483
      N    3   -0.26354      0.99967     2.75480    0.00906     3.76354
      C    4    0.05418      0.99945     1.93219    0.01418     2.94582
      C    5    0.06949      0.99946     1.91884    0.01222     2.93051
      N    6   -0.27840      0.99963     2.76826    0.01051     3.77840
      C    7   -0.11593      0.99947     2.10667    0.00979     3.11593
      C    8   -0.02462      0.99952     2.01474    0.01035     3.02462
      C    9   -0.11897      0.99953     2.11118    0.00826     3.11897
      C   10   -0.09747      0.99952     2.08979    0.00816     3.09747
      C   11   -0.19910      0.99960     2.18950    0.01000     3.19910
      C   12   -0.08182      0.99962     2.07236    0.00984     3.08182
      N   13   -0.34537      0.99974     2.83458    0.01105     3.84537
      C   14   -0.08246      0.99957     2.07228    0.01060     3.08246
      C   15   -0.05674      0.99955     2.04562    0.01157     3.05674
      C   16   -0.19661      0.99959     2.18833    0.00870     3.19661
      C   17   -0.19910      0.99959     2.18975    0.00976     3.19910
      C   18   -0.08364      0.99957     2.07193    0.01213     3.08364
      N   19   -0.42453      0.99977     2.91467    0.01009     3.92453
      H   20    0.11247      0.00000     0.38575    0.00178     0.38753
      H   21    0.11026      0.00000     0.38836    0.00138     0.38974
      H   22    0.11253      0.00000     0.38637    0.00110     0.38747
      H   23    0.21396      0.00000     0.25782    0.02822     0.28604
      H   24    0.10559      0.00000     0.39263    0.00178     0.39441
      H   25    0.10035      0.00000     0.39872    0.00093     0.39965
      H   26    0.10303      0.00000     0.39584    0.00113     0.39697
      H   27    0.10126      0.00000     0.39759    0.00115     0.39874
      H   28    0.10219      0.00000     0.39701    0.00080     0.39781
      H   29    0.08899      0.00000     0.40996    0.00105     0.41101
      H   30    0.07903      0.00000     0.41899    0.00198     0.42097
      H   31    0.17905      0.00000     0.31738    0.00358     0.32095
      H   32    0.10621      0.00000     0.39228    0.00152     0.39379
      H   33    0.08822      0.00000     0.41071    0.00107     0.41178
      H   34    0.10039      0.00000     0.39859    0.00102     0.39961
      H   35    0.10145      0.00000     0.39755    0.00100     0.39855
      H   36    0.10787      0.00000     0.39040    0.00173     0.39213
      H   37    0.10329      0.00000     0.39560    0.00111     0.39671
      H   38    0.08939      0.00000     0.40961    0.00100     0.41061
      H   39    0.08232      0.00000     0.41584    0.00183     0.41768
      H   40    0.17542      0.00000     0.32290    0.00167     0.32458
      H   41    0.17462      0.00000     0.32358    0.00180     0.32538
 =======================================================================
   * Total *    0.00000     18.99209    50.75024    0.25767    70.00000

 Normal termination of Gaussian 16 at Sun Dec 13 14:03:39 2020.
