 Gaussian 16, Revision A.03,

 -----------------------------------------------------------
 # opt freq B3LYP/6-31G(d) empiricaldispersion=gd3bj scf=xqc
 -----------------------------------------------------------

 ------------------------------
 CID_72039338_JID_9883_neutraal
 ------------------------------
 Symbolic Z-matrix:
 Charge =  0 Multiplicity = 1

 SCF Done:  E(RB3LYP) =  -1144.31985006     A.U. after   15 cycles
 SCF Done:  E(RB3LYP) =  -1144.32505732     A.U. after   13 cycles
 SCF Done:  E(RB3LYP) =  -1144.32087547     A.U. after   13 cycles
 SCF Done:  E(RB3LYP) =  -1144.32545024     A.U. after   13 cycles
 SCF Done:  E(RB3LYP) =  -1144.32926348     A.U. after   13 cycles
 SCF Done:  E(RB3LYP) =  -1144.33029992     A.U. after   12 cycles
 SCF Done:  E(RB3LYP) =  -1144.33073705     A.U. after   13 cycles
 SCF Done:  E(RB3LYP) =  -1144.33094192     A.U. after   12 cycles
 SCF Done:  E(RB3LYP) =  -1144.33108929     A.U. after   11 cycles
 SCF Done:  E(RB3LYP) =  -1144.33121038     A.U. after   11 cycles
 SCF Done:  E(RB3LYP) =  -1144.33126101     A.U. after    9 cycles
 SCF Done:  E(RB3LYP) =  -1144.33126190     A.U. after    8 cycles
 SCF Done:  E(RB3LYP) =  -1144.33126255     A.U. after    9 cycles
 SCF Done:  E(RB3LYP) =  -1144.33126264     A.U. after    7 cycles
 SCF Done:  E(RB3LYP) =  -1144.33126272     A.U. after    7 cycles
 Optimization completed.
    -- Stationary point found.
 Normal termination of Gaussian 16 at Mon Dec 14 18:57:23 2020.

 --------------------------------------------------------------------
 #N Geom=AllCheck Guess=TCheck SCRF=Check GenChk RB3LYP/6-31G(d) Freq
 --------------------------------------------------------------------

 Structure from the checkpoint file:  "JID_9883.chk"
 ------------------------------
 CID_72039338_JID_9883_neutraal
 ------------------------------
 Charge =  0 Multiplicity = 1

 SCF Done:  E(RB3LYP) =  -1144.33126272     A.U. after    1 cycles

  Exact polarizability: 243.761 -28.252 158.086  17.873  25.148 149.613
 Approx polarizability: 371.180 -55.478 253.796  42.234  60.910 286.432

                      1                      2                      3
                      A                      A                      A
 Frequencies --     21.5314                36.1995                48.8246
 Red. masses --      5.0061                 4.7479                 5.2299
 Frc consts  --      0.0014                 0.0037                 0.0073
 IR Inten    --      0.3048                 0.1316                 0.4625

                      4                      5                      6
                      A                      A                      A
 Frequencies --     74.0944               112.1929               131.5193
 Red. masses --      4.2046                 6.5159                 4.1592
 Frc consts  --      0.0136                 0.0483                 0.0424
 IR Inten    --      0.9743                 0.3965                 0.0450

                      7                      8                      9
                      A                      A                      A
 Frequencies --    161.7842               182.6958               241.5202
 Red. masses --      4.0754                 3.0423                 2.6539
 Frc consts  --      0.0628                 0.0598                 0.0912
 IR Inten    --      4.7548                 5.9325                 7.3329

                     10                     11                     12
                      A                      A                      A
 Frequencies --    252.7109               268.4594               291.8315
 Red. masses --      3.2283                 2.2746                 1.1648
 Frc consts  --      0.1215                 0.0966                 0.0584
 IR Inten    --      3.3055                 0.7501                43.0526

                     13                     14                     15
                      A                      A                      A
 Frequencies --    311.2913               313.1384               341.7870
 Red. masses --      4.2033                 4.3917                 2.8207
 Frc consts  --      0.2400                 0.2537                 0.1941
 IR Inten    --      1.0107                 0.6539                 1.3881

                     16                     17                     18
                      A                      A                      A
 Frequencies --    380.5961               407.0062               418.1143
 Red. masses --      3.5878                 2.6643                 3.0263
 Frc consts  --      0.3062                 0.2600                 0.3117
 IR Inten    --      0.2353                 3.1744                 0.3811

                     19                     20                     21
                      A                      A                      A
 Frequencies --    432.9271               456.4076               486.5654
 Red. masses --      5.7017                 2.2675                 3.8478
 Frc consts  --      0.6296                 0.2783                 0.5367
 IR Inten    --      1.7486                 0.6678                 0.1363

                     22                     23                     24
                      A                      A                      A
 Frequencies --    502.5315               542.6861               555.8137
 Red. masses --      3.5801                 3.7524                 3.6094
 Frc consts  --      0.5327                 0.6511                 0.6570
 IR Inten    --      1.6235                62.9911                39.1102

                     25                     26                     27
                      A                      A                      A
 Frequencies --    604.0558               615.9390               631.8159
 Red. masses --      5.1187                 4.0264                 4.5789
 Frc consts  --      1.1004                 0.9000                 1.0769
 IR Inten    --     40.7215                 5.6364                19.2620

                     28                     29                     30
                      A                      A                      A
 Frequencies --    636.6132               645.9400               667.4350
 Red. masses --      6.3161                 5.1674                 5.0764
 Frc consts  --      1.5082                 1.2703                 1.3324
 IR Inten    --      1.0142                 7.6367                12.4457

                     31                     32                     33
                      A                      A                      A
 Frequencies --    707.3822               727.2771               757.1871
 Red. masses --      2.0298                 1.8787                 1.7007
 Frc consts  --      0.5984                 0.5855                 0.5745
 IR Inten    --     46.3984               277.2514                20.0910

                     34                     35                     36
                      A                      A                      A
 Frequencies --    775.3985               794.4610               839.7904
 Red. masses --      3.3211                 2.3499                 2.6578
 Frc consts  --      1.1765                 0.8739                 1.1044
 IR Inten    --     57.6534                 8.3647                 1.2762

                     37                     38                     39
                      A                      A                      A
 Frequencies --    858.1207               866.5306               893.9883
 Red. masses --      1.4102                 1.7660                 2.9870
 Frc consts  --      0.6118                 0.7813                 1.4066
 IR Inten    --      2.1285                 3.3950                11.6445

                     40                     41                     42
                      A                      A                      A
 Frequencies --    930.4903               946.3493               952.3165
 Red. masses --      1.4797                 2.5520                 2.2522
 Frc consts  --      0.7548                 1.3466                 1.2035
 IR Inten    --      4.3236                 0.9463                 3.4902

                     43                     44                     45
                      A                      A                      A
 Frequencies --    970.3844               989.4231               993.4955
 Red. masses --      1.3500                 1.2726                 2.2194
 Frc consts  --      0.7490                 0.7340                 1.2907
 IR Inten    --      0.7629                 0.2366                 6.8808

                     46                     47                     48
                      A                      A                      A
 Frequencies --   1011.5444              1020.4533              1044.2580
 Red. masses --      1.1648                 5.2294                 2.8918
 Frc consts  --      0.7022                 3.2084                 1.8580
 IR Inten    --     30.0404                 0.7204                20.3095

                     49                     50                     51
                      A                      A                      A
 Frequencies --   1046.8833              1061.4238              1075.4915
 Red. masses --      2.4962                 2.1890                 3.0996
 Frc consts  --      1.6119                 1.4530                 2.1124
 IR Inten    --     27.7917                 1.0559                23.0116

                     52                     53                     54
                      A                      A                      A
 Frequencies --   1114.9832              1121.8327              1148.7725
 Red. masses --      1.7802                 1.9396                 1.9369
 Frc consts  --      1.3039                 1.4382                 1.5060
 IR Inten    --      1.3229                21.7426                19.9190

                     55                     56                     57
                      A                      A                      A
 Frequencies --   1158.2680              1192.8759              1194.5222
 Red. masses --      2.5975                 1.1154                 3.3007
 Frc consts  --      2.0531                 0.9351                 2.7749
 IR Inten    --     17.8694                 0.0142                 0.4226

                     58                     59                     60
                      A                      A                      A
 Frequencies --   1220.0327              1224.9639              1246.2292
 Red. masses --      1.1497                 1.2198                 1.8039
 Frc consts  --      1.0083                 1.0784                 1.6506
 IR Inten    --      1.2279                 3.8876                 0.5924

                     61                     62                     63
                      A                      A                      A
 Frequencies --   1254.3843              1299.1476              1317.7579
 Red. masses --      1.3912                 2.3236                 1.8690
 Frc consts  --      1.2898                 2.3106                 1.9121
 IR Inten    --      1.2183                 7.3620                 6.4569

                     64                     65                     66
                      A                      A                      A
 Frequencies --   1333.7307              1344.2243              1354.8460
 Red. masses --      2.5662                 1.4594                 1.5223
 Frc consts  --      2.6895                 1.5537                 1.6464
 IR Inten    --     49.3730                 0.6453                 9.1931

                     67                     68                     69
                      A                      A                      A
 Frequencies --   1360.3537              1375.5737              1381.3425
 Red. masses --      1.8189                 1.6641                 1.3340
 Frc consts  --      1.9832                 1.8552                 1.4997
 IR Inten    --      4.8896                 3.1293                20.4817

                     70                     71                     72
                      A                      A                      A
 Frequencies --   1390.6985              1402.3318              1405.3914
 Red. masses --      1.5276                 1.5701                 1.4743
 Frc consts  --      1.7408                 1.8192                 1.7156
 IR Inten    --     25.4768                24.1473                19.2197

                     73                     74                     75
                      A                      A                      A
 Frequencies --   1418.9618              1497.2513              1500.7537
 Red. masses --      1.5877                 1.7273                 1.2456
 Frc consts  --      1.8834                 2.2815                 1.6529
 IR Inten    --      1.4718                 7.6432                 3.4062

                     76                     77                     78
                      A                      A                      A
 Frequencies --   1503.0168              1511.1386              1518.8197
 Red. masses --      1.1240                 1.0860                 1.1154
 Frc consts  --      1.4961                 1.4612                 1.5160
 IR Inten    --      4.5908                 7.0681                 3.6124

                     79                     80                     81
                      A                      A                      A
 Frequencies --   1549.0846              1590.1042              1625.6738
 Red. masses --      2.2070                 4.0509                 6.6801
 Frc consts  --      3.1204                 6.0346                10.4015
 IR Inten    --     11.1212               106.6868                13.8674

                     82                     83                     84
                      A                      A                      A
 Frequencies --   1636.7872              1664.0585              1677.1589
 Red. masses --      5.1614                 5.4362                 1.3137
 Frc consts  --      8.1471                 8.8691                 2.1772
 IR Inten    --      1.6455                 6.3737                93.1311

                     85                     86                     87
                      A                      A                      A
 Frequencies --   1724.9927              3020.1251              3029.7846
 Red. masses --      5.7071                 1.0683                 1.0653
 Frc consts  --     10.0055                 5.7413                 5.7618
 IR Inten    --      0.2634                51.0422                27.3109

                     88                     89                     90
                      A                      A                      A
 Frequencies --   3033.6982              3041.8692              3066.0770
 Red. masses --      1.0591                 1.0670                 1.0934
 Frc consts  --      5.7430                 5.8171                 6.0561
 IR Inten    --     47.4554                59.5066                57.7323

                     91                     92                     93
                      A                      A                      A
 Frequencies --   3077.0768              3084.6076              3097.6518
 Red. masses --      1.1041                 1.0954                 1.1030
 Frc consts  --      6.1592                 6.1406                 6.2357
 IR Inten    --     11.9687                25.7683                43.1249

                     94                     95                     96
                      A                      A                      A
 Frequencies --   3133.6519              3176.1317              3180.8918
 Red. masses --      1.0880                 1.0853                 1.0881
 Frc consts  --      6.2946                 6.4508                 6.4864
 IR Inten    --     17.1418                 9.2118                 2.2040

                     97                     98                     99
                      A                      A                      A
 Frequencies --   3187.2565              3193.7691              3207.6963
 Red. masses --      1.0882                 1.0918                 1.0966
 Frc consts  --      6.5135                 6.5617                 6.6479
 IR Inten    --     12.7237                27.5677                33.1969

                    100                    101                    102
                      A                      A                      A
 Frequencies --   3221.7690              3533.1854              3635.0607
 Red. masses --      1.0921                 1.0473                 1.0980
 Frc consts  --      6.6788                 7.7028                 8.5483
 IR Inten    --      4.9702                18.3729                19.1189

 - Thermochemistry -
 -------------------
 Temperature   298.150 Kelvin.  Pressure   1.00000 Atm.
 Atom     1 has atomic number  6 and mass  12.00000

 Molecular mass:   271.11432 amu.
 Principal axes and moments of inertia in atomic units:
                           1         2         3
     Eigenvalues --  3264.869106113.465677701.51653
           X            0.99976  -0.02091   0.00671
           Y            0.02072   0.99939   0.02796
           Z           -0.00729  -0.02781   0.99959
 This molecule is an asymmetric top.
 Rotational symmetry number  1.
 Warning -- assumption of classical behavior for rotation
           may cause significant error
 Rotational temperatures (Kelvin)      0.02653     0.01417     0.01125
 Rotational constants (GHZ):           0.55278     0.29521     0.23434
 Zero-point vibrational energy     784852.2 (Joules/Mol)
                                  187.58418 (Kcal/Mol)
 Warning -- explicit consideration of  26 degrees of freedom as
           vibrations may cause significant error
 Vibrational temperatures:     30.98    52.08    70.25   106.61   161.42
          (Kelvin)            189.23   232.77   262.86   347.49   363.59
                              386.25   419.88   447.88   450.54   491.76
                              547.59   585.59   601.57   622.89   656.67
                              700.06   723.03   780.80   799.69   869.10
                              886.20   909.04   915.94   929.36   960.29
                             1017.77  1046.39  1089.42  1115.63  1143.05
                             1208.27  1234.64  1246.74  1286.25  1338.77
                             1361.59  1370.17  1396.17  1423.56  1429.42
                             1455.39  1468.20  1502.45  1506.23  1527.15
                             1547.39  1604.21  1614.07  1652.83  1666.49
                             1716.28  1718.65  1755.35  1762.45  1793.05
                             1804.78  1869.18  1895.96  1918.94  1934.04
                             1949.32  1957.25  1979.14  1987.44  2000.90
                             2017.64  2022.04  2041.57  2154.21  2159.25
                             2162.51  2174.19  2185.24  2228.79  2287.81
                             2338.98  2354.97  2394.21  2413.06  2481.88
                             4345.29  4359.18  4364.82  4376.57  4411.40
                             4427.23  4438.06  4456.83  4508.63  4569.75
                             4576.59  4585.75  4595.12  4615.16  4635.41
                             5083.47  5230.04

 Zero-point correction=                           0.298934 (Hartree/Particle)
 Thermal correction to Energy=                    0.315442
 Thermal correction to Enthalpy=                  0.316386
 Thermal correction to Gibbs Free Energy=         0.253887
 Sum of electronic and zero-point Energies=          -1144.032328
 Sum of electronic and thermal Energies=             -1144.015821
 Sum of electronic and thermal Enthalpies=           -1144.014877
 Sum of electronic and thermal Free Energies=        -1144.077376

                     E (Thermal)             CV                S
                      KCal/Mol        Cal/Mol-Kelvin    Cal/Mol-Kelvin
 Total                  197.943             65.723            131.540
 Electronic               0.000              0.000              0.000
 Translational            0.889              2.981             42.691
 Rotational               0.889              2.981             33.396
 Vibrational            196.165             59.762             55.452
 Vibration     1          0.593              1.985              6.488
 Vibration     2          0.594              1.982              5.457
 Vibration     3          0.595              1.978              4.864
 Vibration     4          0.599              1.966              4.042
 Vibration     5          0.607              1.939              3.231
 Vibration     6          0.612              1.922              2.924
 Vibration     7          0.622              1.889              2.529
 Vibration     8          0.630              1.863              2.301
 Vibration     9          0.658              1.777              1.792
 Vibration    10          0.664              1.758              1.712
 Vibration    11          0.673              1.731              1.606
 Vibration    12          0.687              1.689              1.463
 Vibration    13          0.700              1.652              1.355
 Vibration    14          0.701              1.649              1.346
 Vibration    15          0.721              1.592              1.204
 Vibration    16          0.750              1.512              1.037
 Vibration    17          0.772              1.455              0.937
 Vibration    18          0.781              1.431              0.898
 Vibration    19          0.794              1.398              0.849
 Vibration    20          0.815              1.347              0.777
 Vibration    21          0.843              1.280              0.693
 Vibration    22          0.858              1.244              0.652
 Vibration    23          0.898              1.156              0.560
 Vibration    24          0.911              1.127              0.532
 Vibration    25          0.963              1.023              0.443
 Vibration    26          0.976              0.998              0.423

 Optimization completed.
    -- Stationary point found.
 Normal termination of Gaussian 16 at Mon Dec 14 19:16:45 2020.

 ----------------------------------------------------------------------
 # B3LYP/6-311++G(d,p) empiricaldispersion=gd3bj scf=xqc pop=npa geom=c
 heck
 ----------------------------------------------------------------------

 --------------------------------------
 CID_72039338_JID_9883_Energie_neutraal
 --------------------------------------
 Structure from the checkpoint file:  "JID_9883.chk"
 Charge =  0 Multiplicity = 1

 SCF Done:  E(RB3LYP) =  -1144.55685526     A.U. after   17 cycles
 Normal termination of Gaussian 16 at Mon Dec 14 19:25:06 2020.

 ----------------------------------------------------------------------
 # B3LYP/6-311++G(d,p) empiricaldispersion=gd3bj scf=xqc pop=npa geom=c
 heck
 ----------------------------------------------------------------------

 ------------------------------------
 CID_72039338_JID_9883_Energie_kation
 ------------------------------------
 Structure from the checkpoint file:  "JID_9883.chk"
 Charge =  1 Multiplicity = 2

 SCF Done:  E(UB3LYP) =  -1144.29319728     A.U. after   29 cycles
 Normal termination of Gaussian 16 at Mon Dec 14 19:43:47 2020.
 Gaussian 16:  ES64L-G16RevA.03 25-Dec-2016

 ----------------------------------------------------------------------
 # B3LYP/6-311++G(d,p) empiricaldispersion=gd3bj scf=xqc pop=npa geom=c
 heck
 ----------------------------------------------------------------------

 -----------------------------------
 CID_72039338_JID_9883_Energie_anion
 -----------------------------------
 Structure from the checkpoint file:  "JID_9883.chk"
 Charge = -1 Multiplicity = 2

                         Standard orientation:
 ---------------------------------------------------------------------
 Center     Atomic      Atomic             Coordinates (Angstroms)
 Number     Number       Type             X           Y           Z
 ---------------------------------------------------------------------
      1          6           0        2.703682    0.486175    1.456818
      2          6           0        3.594771   -0.563142    0.744723
      3          7           0        2.935389   -1.360463   -0.289252
      4          6           0        2.414483   -0.504946   -1.356928
      5          6           0        1.616126    0.641971   -0.791987
      6          6           0        1.718786    1.079367    0.493545
      7          7           0        0.771910    2.004479    0.911175
      8          6           0       -0.050795    2.283071   -0.058077
      9         16           0        0.277854    1.451112   -1.586462
     10          7           0       -1.081272    3.198016    0.032945
     11          6           0        1.966938   -2.367190    0.185714
     12          6           0        0.609756   -1.847095    0.590950
     13          6           0       -0.491288   -1.979113   -0.161820
     14          6           0       -1.794799   -1.347879    0.081254
     15          6           0       -2.916986   -1.773307   -0.647731
     16          6           0       -4.162079   -1.171334   -0.473846
     17          6           0       -4.311163   -0.121738    0.432681
     18          6           0       -3.201239    0.318458    1.160569
     19          6           0       -1.959067   -0.284278    0.988127
     20          1           0        2.156931    0.035620    2.296780
     21          1           0        3.334220    1.269847    1.896555
     22          1           0        4.033838   -1.245276    1.480571
     23          1           0        4.426195   -0.041617    0.253178
     24          1           0        3.263692   -0.140958   -1.952989
     25          1           0        1.795862   -1.115300   -2.024155
     26          1           0       -1.227068    3.489258    0.993904
     27          1           0       -1.946121    2.905228   -0.408240
     28          1           0        1.838293   -3.098710   -0.622668
     29          1           0        2.447333   -2.889717    1.022453
     30          1           0        0.560764   -1.276142    1.514308
     31          1           0       -0.428576   -2.582008   -1.069259
     32          1           0       -2.805687   -2.586735   -1.360735
     33          1           0       -5.015024   -1.520388   -1.049373
     34          1           0       -5.279264    0.352144    0.568447
     35          1           0       -3.303921    1.139709    1.865506
     36          1           0       -1.102061    0.098908    1.531064
 ---------------------------------------------------------------------

 SCF Done:  E(UB3LYP) =  -1144.55111391     A.U. after   33 cycles
 SCF Done:  E(UB3LYP) =  -1144.55111391     a.u. after    1 cycles

 The electronic state is 2-A.
 Alpha  occ. eigenvalues --  -88.76036 -14.22159 -14.19816 -14.18691 -10.14961
 Alpha  occ. eigenvalues --  -10.10066 -10.09666 -10.08653 -10.08261 -10.07917
 Alpha  occ. eigenvalues --  -10.07013 -10.04203 -10.04068 -10.04013 -10.03852
 Alpha  occ. eigenvalues --  -10.03485 -10.03007 -10.02765 -10.02272  -7.84672
 Alpha  occ. eigenvalues --   -5.80975  -5.80636  -5.80204  -0.86492  -0.82489
 Alpha  occ. eigenvalues --   -0.78942  -0.72389  -0.68747  -0.67603  -0.65816
 Alpha  occ. eigenvalues --   -0.62546  -0.61582  -0.61231  -0.56524  -0.53223
 Alpha  occ. eigenvalues --   -0.50325  -0.47954  -0.47258  -0.46606  -0.43667
 Alpha  occ. eigenvalues --   -0.42409  -0.39738  -0.39288  -0.38081  -0.36939
 Alpha  occ. eigenvalues --   -0.35574  -0.34616  -0.33269  -0.32591  -0.31641
 Alpha  occ. eigenvalues --   -0.31184  -0.29837  -0.29393  -0.29060  -0.28507
 Alpha  occ. eigenvalues --   -0.27881  -0.27025  -0.26550  -0.25040  -0.24158
 Alpha  occ. eigenvalues --   -0.23033  -0.22809  -0.21262  -0.20622  -0.20184
 Alpha  occ. eigenvalues --   -0.16954  -0.16559  -0.15642  -0.12638  -0.11834
 Alpha  occ. eigenvalues --   -0.10130  -0.08566   0.04999
 Alpha virt. eigenvalues --    0.07030   0.07449   0.08567   0.08777   0.09076
 Alpha virt. eigenvalues --    0.09614   0.09748   0.10062   0.10735   0.10972
 Alpha virt. eigenvalues --    0.11296   0.11661   0.11873   0.12511   0.13102

  Beta  occ. eigenvalues --  -88.76036 -14.22117 -14.19770 -14.18681 -10.14857
  Beta  occ. eigenvalues --  -10.10065 -10.09660 -10.08627 -10.08280 -10.07911
  Beta  occ. eigenvalues --  -10.07012 -10.04250 -10.04055 -10.03969 -10.03722
  Beta  occ. eigenvalues --  -10.03319 -10.02936 -10.02601 -10.02006  -7.84672
  Beta  occ. eigenvalues --   -5.80977  -5.80638  -5.80201  -0.86396  -0.82412
  Beta  occ. eigenvalues --   -0.78878  -0.72143  -0.68721  -0.67479  -0.65528
  Beta  occ. eigenvalues --   -0.62490  -0.61376  -0.60971  -0.56352  -0.53159
  Beta  occ. eigenvalues --   -0.50141  -0.47722  -0.47146  -0.46434  -0.43595
  Beta  occ. eigenvalues --   -0.42114  -0.39659  -0.39212  -0.37988  -0.36871
  Beta  occ. eigenvalues --   -0.35496  -0.34545  -0.33130  -0.32448  -0.31552
  Beta  occ. eigenvalues --   -0.31038  -0.29763  -0.29295  -0.29007  -0.28440
  Beta  occ. eigenvalues --   -0.27745  -0.26943  -0.26420  -0.24951  -0.23549
  Beta  occ. eigenvalues --   -0.22938  -0.22767  -0.21112  -0.20519  -0.20010
  Beta  occ. eigenvalues --   -0.16677  -0.16174  -0.15185  -0.12091  -0.11492
  Beta  occ. eigenvalues --   -0.09793  -0.07729
  Beta virt. eigenvalues --    0.07050   0.07694   0.08454   0.08764   0.09163
  Beta virt. eigenvalues --    0.09296   0.09857   0.09993   0.10167   0.10783
  Beta virt. eigenvalues --    0.11124   0.11445   0.11773   0.11913   0.12425

 Mulliken charges and spin densities:
               1          2
     1  C   -0.382261   0.265604
     2  C   -0.122500  -0.278560
     3  N    0.227595   0.052604
     4  C   -0.782083  -0.172463
     5  C    1.257467   0.181477
     6  C   -1.410247  -0.197470
     7  N    0.097835   0.015978
     8  C    0.177999  -0.223728
     9  S   -0.093111   0.016222
    10  N   -0.287526   0.054883
    11  C   -0.808079  -0.108871
    12  C    0.224036   0.111151
    13  C   -0.121086  -0.033396
    14  C    0.346439   0.099018
    15  C   -0.265385   0.207111
    16  C   -0.256537  -0.006439
    17  C   -0.043489  -0.278523
    18  C    0.031142  -0.195334
    19  C   -0.179059   0.183980
    20  H    0.171712   0.007382
    21  H    0.158892   0.013062
    22  H    0.073618   0.078170
    23  H    0.112937   0.035031
    24  H    0.064729   0.099507
    25  H    0.197868  -0.017750
    26  H    0.124683   0.147050
    27  H    0.115214   0.161222
    28  H    0.058471   0.099882
    29  H    0.115622   0.029181
    30  H    0.044437   0.033010
    31  H    0.119202  -0.007783
    32  H    0.103770   0.000879
    33  H    0.081041   0.038364
    34  H   -0.134001   0.244469
    35  H   -0.258807   0.417274
    36  H    0.239462  -0.072192
 Sum of Mulliken charges =  -1.00000   1.00000

 Dipole moment (field-independent basis, Debye):
    X=              4.6999    Y=             -0.2647    Z=             -1.5239  Tot=              4.9479
 Quadrupole moment (field-independent basis, Debye-Ang):
   XX=           -174.1396   YY=           -156.3769   ZZ=           -136.9460
   XY=              3.8010   XZ=              7.0109   YZ=              1.3899

 Summary of Natural Population Analysis:

                                       Natural Population
                Natural  -----------------------------------------------
    Atom  No    Charge         Core      Valence    Rydberg      Total
 -----------------------------------------------------------------------
      C    1   -0.20793      0.99959     2.20088    0.00745     3.20793
      C    2   -0.08161      0.99962     2.06992    0.01206     3.08161
      N    3   -0.26950      0.99975     2.75551    0.01424     3.76950
      C    4   -0.09620      0.99956     2.08356    0.01308     3.09620
      C    5   -0.12444      0.99935     2.11410    0.01099     3.12444
      C    6    0.06973      0.99937     1.91639    0.01451     2.93027
      N    7   -0.27805      0.99962     2.76802    0.01040     3.77805
      C    8    0.15503      0.99963     1.82392    0.02142     2.84497
      S    9    0.16888      4.99938     2.81425    0.01749     7.83112
      N   10   -0.40209      0.99969     2.89178    0.01063     3.90209
      C   11   -0.09812      0.99960     2.08527    0.01325     3.09812
      C   12   -0.05592      0.99953     2.04730    0.00910     3.05592
      C   13   -0.08985      0.99949     2.08039    0.00997     3.08985
      C   14   -0.01483      0.99949     2.00496    0.01038     3.01483
      C   15   -0.09732      0.99953     2.08881    0.00898     3.09732
      C   16   -0.10321      0.99957     2.09309    0.01055     3.10321
      C   17   -0.08590      0.99956     2.07568    0.01066     3.08590
      C   18   -0.11863      0.99956     2.10810    0.01096     3.11863
      C   19   -0.06868      0.99952     2.05946    0.00970     3.06868
      H   20    0.10143      0.00000     0.39723    0.00134     0.39857
      H   21    0.10229      0.00000     0.39665    0.00105     0.39771
      H   22    0.09395      0.00000     0.40516    0.00089     0.40605
      H   23    0.09027      0.00000     0.40877    0.00096     0.40973
      H   24    0.09527      0.00000     0.40372    0.00101     0.40473
      H   25    0.10284      0.00000     0.39617    0.00100     0.39716
      H   26    0.19172      0.00000     0.30596    0.00232     0.30828
      H   27    0.19477      0.00000     0.30329    0.00194     0.30523
      H   28    0.09185      0.00000     0.40702    0.00112     0.40815
      H   29    0.09352      0.00000     0.40552    0.00097     0.40648
      H   30    0.08700      0.00000     0.41133    0.00167     0.41300
      H   31    0.08409      0.00000     0.41461    0.00130     0.41591
      H   32    0.09062      0.00000     0.40823    0.00115     0.40938
      H   33    0.09136      0.00000     0.40786    0.00079     0.40864
      H   34    0.09256      0.00000     0.40663    0.00082     0.40744
      H   35    0.09483      0.00000     0.40395    0.00122     0.40517
      H   36    0.10025      0.00000     0.39740    0.00234     0.39975
 =======================================================================
   * Total *    0.00000     22.99142    48.76088    0.24770    72.00000

 Normal termination of Gaussian 16 at Mon Dec 14 20:04:37 2020.
