 Gaussian 16, Revision A.03,

 -----------------------------------------------------------
 # opt freq B3LYP/6-31G(d) empiricaldispersion=gd3bj scf=xqc
 -----------------------------------------------------------

 -------------------------------
 CID_150364181_JID_1299_neutraal
 -------------------------------
 Symbolic Z-matrix:
 Charge =  0 Multiplicity = 1

 SCF Done:  E(RB3LYP) =  -544.819844928     A.U. after   18 cycles
 SCF Done:  E(RB3LYP) =  -544.825858431     A.U. after   15 cycles
 SCF Done:  E(RB3LYP) =  -544.824326684     A.U. after   16 cycles
 SCF Done:  E(RB3LYP) =  -544.827724434     A.U. after   15 cycles
 SCF Done:  E(RB3LYP) =  -544.829496573     A.U. after   13 cycles
 SCF Done:  E(RB3LYP) =  -544.831375171     A.U. after   15 cycles
 SCF Done:  E(RB3LYP) =  -544.833312482     A.U. after   16 cycles
 SCF Done:  E(RB3LYP) =  -544.835046058     A.U. after   14 cycles
 SCF Done:  E(RB3LYP) =  -544.837512737     A.U. after   16 cycles
 SCF Done:  E(RB3LYP) =  -544.837974372     A.U. after   14 cycles
 SCF Done:  E(RB3LYP) =  -544.839769138     A.U. after   10 cycles
 SCF Done:  E(RB3LYP) =  -544.839771407     A.U. after   10 cycles
 SCF Done:  E(RB3LYP) =  -544.839772468     A.U. after    9 cycles
 SCF Done:  E(RB3LYP) =  -544.839772573     A.U. after    8 cycles
 SCF Done:  E(RB3LYP) =  -544.839772622     A.U. after    8 cycles
 Optimization completed.
    -- Stationary point found.
 Normal termination of Gaussian 16 at Tue Dec  8 19:43:24 2020.

 --------------------------------------------------------------------
 #N Geom=AllCheck Guess=TCheck SCRF=Check GenChk RB3LYP/6-31G(d) Freq
 --------------------------------------------------------------------

 Structure from the checkpoint file:  "JID_1299.chk"
 -------------------------------
 CID_150364181_JID_1299_neutraal
 -------------------------------
 Charge =  0 Multiplicity = 1

 SCF Done:  E(RB3LYP) =  -544.839772622     A.U. after    1 cycles

  Exact polarizability:  89.317  -3.096  89.438  -3.979   4.319  73.169
 Approx polarizability: 126.480 -12.508 143.326 -21.653  18.037 135.550

                      1                      2                      3
                      A                      A                      A
 Frequencies --     50.1472                56.5436                89.7726
 Red. masses --      5.9380                 5.6834                10.2575
 Frc consts  --      0.0088                 0.0107                 0.0487
 IR Inten    --      0.2106                 0.1619                 1.7407

                      4                      5                      6
                      A                      A                      A
 Frequencies --    105.1119               169.5884               202.3932
 Red. masses --      3.7690                 4.4000                 1.1864
 Frc consts  --      0.0245                 0.0746                 0.0286
 IR Inten    --      0.6166                 0.4033                 0.6130

                      7                      8                      9
                      A                      A                      A
 Frequencies --    253.6889               272.5701               324.2578
 Red. masses --      3.9369                 5.2569                 2.4930
 Frc consts  --      0.1493                 0.2301                 0.1544
 IR Inten    --      9.2077                 3.1207                 0.2844

                     10                     11                     12
                      A                      A                      A
 Frequencies --    341.1419               404.6247               439.9655
 Red. masses --      2.3599                 3.3625                 2.9705
 Frc consts  --      0.1618                 0.3244                 0.3388
 IR Inten    --      0.6014                 7.2493                 6.1846

                     13                     14                     15
                      A                      A                      A
 Frequencies --    495.4700               533.8850               564.5333
 Red. masses --      5.7388                 3.2033                 3.4073
 Frc consts  --      0.8301                 0.5380                 0.6398
 IR Inten    --     15.7124                34.4772                24.7999

                     16                     17                     18
                      A                      A                      A
 Frequencies --    625.2558               642.5520               735.5711
 Red. masses --      1.6919                 2.8662                 4.0294
 Frc consts  --      0.3897                 0.6972                 1.2845
 IR Inten    --     68.6076                52.6077                43.8297

                     19                     20                     21
                      A                      A                      A
 Frequencies --    778.6639               788.0344               791.6985
 Red. masses --      9.4599                 1.4878                 1.7228
 Frc consts  --      3.3794                 0.5444                 0.6362
 IR Inten    --      9.9429                 4.0164                 7.0552

                     22                     23                     24
                      A                      A                      A
 Frequencies --    877.2769               898.9716               953.1422
 Red. masses --      2.9002                 1.7152                 1.6748
 Frc consts  --      1.3151                 0.8167                 0.8965
 IR Inten    --      0.9081                12.8529                 3.9209

                     25                     26                     27
                      A                      A                      A
 Frequencies --    988.7491              1014.3103              1050.4521
 Red. masses --      1.7932                 4.3903                 1.3926
 Frc consts  --      1.0329                 2.6613                 0.9054
 IR Inten    --      3.8884                 4.6460                15.7215

                     28                     29                     30
                      A                      A                      A
 Frequencies --   1066.1666              1081.8708              1096.6175
 Red. masses --      2.0401                 1.7458                 1.4686
 Frc consts  --      1.3664                 1.2039                 1.0405
 IR Inten    --     20.4235                 6.9189                 6.0869

                     31                     32                     33
                      A                      A                      A
 Frequencies --   1140.9588              1169.7497              1200.7449
 Red. masses --      1.8821                 9.0916                 1.3141
 Frc consts  --      1.4436                 7.3296                 1.1163
 IR Inten    --     12.6214                51.1449                 0.7680

                     34                     35                     36
                      A                      A                      A
 Frequencies --   1317.1282              1355.3526              1417.0380
 Red. masses --      2.5733                 2.8221                 1.9423
 Frc consts  --      2.6303                 3.0544                 2.2979
 IR Inten    --     37.1269                14.0751               179.7851

                     37                     38                     39
                      A                      A                      A
 Frequencies --   1430.8970              1451.8809              1469.5872
 Red. masses --      2.0358                 1.3709                 1.4531
 Frc consts  --      2.4559                 1.7026                 1.8490
 IR Inten    --    130.0520                30.6973                 7.6569

                     40                     41                     42
                      A                      A                      A
 Frequencies --   1494.7067              1520.7357              1523.9219
 Red. masses --      1.1172                 1.0613                 1.0679
 Frc consts  --      1.4706                 1.4460                 1.4612
 IR Inten    --      1.0491                 0.3209                 2.3055

                     43                     44                     45
                      A                      A                      A
 Frequencies --   1535.8813              1804.9377              2210.6769
 Red. masses --      1.3264                 7.0076                13.7895
 Frc consts  --      1.8435                13.4507                39.7053
 IR Inten    --      2.4124               432.5910               277.0821

                     46                     47                     48
                      A                      A                      A
 Frequencies --   3055.2446              3118.0806              3142.0825
 Red. masses --      1.0386                 1.1000                 1.1000
 Frc consts  --      5.7121                 6.3011                 6.3986
 IR Inten    --     25.8739                22.6362                21.5084

                     49                     50                     51
                      A                      A                      A
 Frequencies --   3149.1423              3168.7371              3230.6132
 Red. masses --      1.0542                 1.0574                 1.1194
 Frc consts  --      6.1598                 6.2558                 6.8832
 IR Inten    --     15.7937                 6.1874                 6.4065

                     52                     53                     54
                      A                      A                      A
 Frequencies --   3255.8105              3541.5910              3588.0102
 Red. masses --      1.1162                 1.0763                 1.0754
 Frc consts  --      6.9710                 7.9542                 8.1569
 IR Inten    --      6.0266                23.5541                26.0629

 - Thermochemistry -
 -------------------
 Temperature   298.150 Kelvin.  Pressure   1.00000 Atm.
 Atom     1 has atomic number  6 and mass  12.00000

 Molecular mass:   155.08071 amu.
 Principal axes and moments of inertia in atomic units:
                           1         2         3
     Eigenvalues --  1241.014581802.314922382.43001
           X            0.99832   0.05771   0.00590
           Y           -0.05785   0.99795   0.02724
           Z           -0.00431  -0.02754   0.99961
 This molecule is an asymmetric top.
 Rotational symmetry number  1.
 Warning -- assumption of classical behavior for rotation
           may cause significant error
 Rotational temperatures (Kelvin)      0.06979     0.04806     0.03636
 Rotational constants (GHZ):           1.45425     1.00135     0.75752
 Zero-point vibrational energy     412631.1 (Joules/Mol)
                                   98.62120 (Kcal/Mol)
 Warning -- explicit consideration of  15 degrees of freedom as
           vibrations may cause significant error
 Vibrational temperatures:     72.15    81.35   129.16   151.23   244.00
          (Kelvin)            291.20   365.00   392.17   466.53   490.83
                              582.16   633.01   712.87   768.14   812.24
                              899.60   924.49  1058.32  1120.32  1133.81
                             1139.08  1262.21  1293.42  1371.36  1422.59
                             1459.37  1511.37  1533.98  1556.57  1577.79
                             1641.59  1683.01  1727.60  1895.05  1950.05
                             2038.80  2058.74  2088.93  2114.41  2150.55
                             2188.00  2192.58  2209.79  2596.90  3180.67
                             4395.82  4486.22  4520.76  4530.91  4559.11
                             4648.13  4684.39  5095.56  5162.35

 Zero-point correction=                           0.157163 (Hartree/Particle)
 Thermal correction to Energy=                    0.168275
 Thermal correction to Enthalpy=                  0.169220
 Thermal correction to Gibbs Free Energy=         0.119694
 Sum of electronic and zero-point Energies=           -544.682610
 Sum of electronic and thermal Energies=              -544.671497
 Sum of electronic and thermal Enthalpies=            -544.670553
 Sum of electronic and thermal Free Energies=         -544.720079

                     E (Thermal)             CV                S
                      KCal/Mol        Cal/Mol-Kelvin    Cal/Mol-Kelvin
 Total                  105.594             40.374            104.236
 Electronic               0.000              0.000              0.000
 Translational            0.889              2.981             41.026
 Rotational               0.889              2.981             30.056
 Vibrational            103.817             34.412             33.154
 Vibration     1          0.595              1.978              4.812
 Vibration     2          0.596              1.975              4.574
 Vibration     3          0.602              1.956              3.665
 Vibration     4          0.605              1.945              3.357
 Vibration     5          0.625              1.880              2.440
 Vibration     6          0.639              1.836              2.111
 Vibration     7          0.665              1.757              1.705
 Vibration     8          0.676              1.724              1.580
 Vibration     9          0.709              1.627              1.289
 Vibration    10          0.721              1.593              1.207
 Vibration    11          0.770              1.460              0.946
 Vibration    12          0.800              1.383              0.827
 Vibration    13          0.851              1.260              0.670
 Vibration    14          0.889              1.175              0.579
 Vibration    15          0.920              1.108              0.515

                           ! Non-Optimized Parameters !
 Normal termination of Gaussian 16 at Tue Dec  8 19:47:35 2020.

 ----------------------------------------------------------------------
 # B3LYP/6-311++G(d,p) empiricaldispersion=gd3bj scf=xqc pop=npa geom=c
 heck
 ----------------------------------------------------------------------

 ---------------------------------------
 CID_150364181_JID_1299_Energie_neutraal
 ---------------------------------------
 Structure from the checkpoint file:  "JID_1299.chk"
 Charge =  0 Multiplicity = 1

 SCF Done:  E(RB3LYP) =  -545.001945078     A.U. after   16 cycles
 Normal termination of Gaussian 16 at Tue Dec  8 19:49:26 2020.

 ----------------------------------------------------------------------
 # B3LYP/6-311++G(d,p) empiricaldispersion=gd3bj scf=xqc pop=npa geom=c
 heck
 ----------------------------------------------------------------------

 -------------------------------------
 CID_150364181_JID_1299_Energie_kation
 -------------------------------------
 Structure from the checkpoint file:  "JID_1299.chk"
 Charge =  1 Multiplicity = 2

 SCF Done:  E(UB3LYP) =  -544.660761322     A.U. after   33 cycles
 SCF Done:  E(UB3LYP) =  -544.660761322     a.u. after    1 cycles
 Normal termination of Gaussian 16 at Tue Dec  8 19:54:49 2020.
 Gaussian 16:  ES64L-G16RevA.03 25-Dec-2016

 ----------------------------------------------------------------------
 # B3LYP/6-311++G(d,p) empiricaldispersion=gd3bj scf=xqc pop=npa geom=c
 heck
 ----------------------------------------------------------------------

 ------------------------------------
 CID_150364181_JID_1299_Energie_anion
 ------------------------------------
 Structure from the checkpoint file:  "JID_1299.chk"
 Charge = -1 Multiplicity = 2

                         Standard orientation:
 ---------------------------------------------------------------------
 Center     Atomic      Atomic             Coordinates (Angstroms)
 Number     Number       Type             X           Y           Z
 ---------------------------------------------------------------------
      1          6           0       -1.243365   -1.716208   -0.822405
      2          6           0       -1.375520   -0.328170   -0.227574
      3          6           0       -2.762072    0.157530    0.150279
      4          6           0       -1.752551   -0.170062    1.220535
      5          7           0       -0.501334    0.663325   -0.822939
      6          6           0        0.509988    1.393420   -0.255537
      7          8           0        0.883527    2.473705   -0.691054
      8          7           0        1.117992    0.869150    0.903233
      9          7           0        1.298276   -0.538321    1.083001
     10          7           0        1.975176   -1.061327    0.156025
     11          7           0        2.537517   -1.701306   -0.599018
     12          1           0       -0.242431   -2.127470   -0.665052
     13          1           0       -1.433378   -1.695178   -1.902152
     14          1           0       -1.966097   -2.400393   -0.366351
     15          1           0       -2.988999    1.205904   -0.021091
     16          1           0       -3.595716   -0.519983   -0.012611
     17          1           0       -1.875063   -1.083387    1.794600
     18          1           0       -1.306459    0.647838    1.774344
     19          1           0       -0.862492    1.138059   -1.641697
     20          1           0        1.950153    1.405270    1.134530
 ---------------------------------------------------------------------

 SCF Done:  E(UB3LYP) =  -545.005986475     A.U. after   31 cycles

 The electronic state is 2-A.
 Alpha  occ. eigenvalues --  -18.96480 -14.27732 -14.21857 -14.21844 -14.21532
 Alpha  occ. eigenvalues --  -14.19808 -10.17331 -10.11164 -10.06541 -10.06100
 Alpha  occ. eigenvalues --  -10.04866  -0.96954  -0.93000  -0.84713  -0.81983
 Alpha  occ. eigenvalues --   -0.73421  -0.71454  -0.60537  -0.51832  -0.49804
 Alpha  occ. eigenvalues --   -0.48088  -0.44534  -0.40296  -0.37391  -0.35923
 Alpha  occ. eigenvalues --   -0.35389  -0.32944  -0.31713  -0.30207  -0.29535
 Alpha  occ. eigenvalues --   -0.28915  -0.28048  -0.27493  -0.25891  -0.20833
 Alpha  occ. eigenvalues --   -0.19809  -0.17758  -0.16514  -0.13852  -0.11985
 Alpha  occ. eigenvalues --   -0.10148   0.05189
 Alpha virt. eigenvalues --    0.07219   0.09243   0.09520   0.10452   0.11174
 Alpha virt. eigenvalues --    0.12010   0.12473   0.13798   0.14707   0.15219
 Alpha virt. eigenvalues --    0.15855   0.16510   0.16796   0.17566   0.18643

  Beta  occ. eigenvalues --  -18.96466 -14.27222 -14.21834 -14.21667 -14.21570
  Beta  occ. eigenvalues --  -14.19074 -10.17325 -10.11165 -10.06524 -10.06083
  Beta  occ. eigenvalues --  -10.04843  -0.96038  -0.92863  -0.84281  -0.81927
  Beta  occ. eigenvalues --   -0.73353  -0.71022  -0.60503  -0.51713  -0.49732
  Beta  occ. eigenvalues --   -0.47796  -0.44303  -0.40254  -0.37294  -0.35824
  Beta  occ. eigenvalues --   -0.33606  -0.32568  -0.31641  -0.29502  -0.29404
  Beta  occ. eigenvalues --   -0.28242  -0.27595  -0.26867  -0.25856  -0.20780
  Beta  occ. eigenvalues --   -0.18833  -0.17385  -0.16340  -0.13828  -0.11651
  Beta  occ. eigenvalues --   -0.09929
  Beta virt. eigenvalues --    0.07650   0.09538   0.09661   0.10137   0.11406
  Beta virt. eigenvalues --    0.12125   0.12539   0.13638   0.13973   0.14845
  Beta virt. eigenvalues --    0.15259   0.16175   0.16785   0.16815   0.17527

 Mulliken charges and spin densities:
               1          2
     1  C    0.998023  -1.608874
     2  C   -1.762762   1.778202
     3  C    0.260343  -0.547745
     4  C    0.401402  -0.690302
     5  N   -0.110590  -0.081361
     6  C    0.313071  -0.141419
     7  O   -0.388643   0.012783
     8  N   -0.285584   0.027810
     9  N    0.161760  -0.301396
    10  N    0.000054   0.229744
    11  N   -0.473956   0.576752
    12  H   -0.067870   0.233717
    13  H   -0.049352   0.177987
    14  H   -0.180161   0.303673
    15  H    0.079394   0.057221
    16  H   -0.304057   0.444502
    17  H   -0.056681   0.212393
    18  H    0.132304   0.048958
    19  H    0.228359   0.069295
    20  H    0.104946   0.198060
 Sum of Mulliken charges =  -1.00000   1.00000

 Dipole moment (field-independent basis, Debye):
    X=             -2.7033    Y=              1.9495    Z=              0.0548  Tot=              3.3333
 Quadrupole moment (field-independent basis, Debye-Ang):
   XX=           -101.1268   YY=           -100.4690   ZZ=            -82.4927
   XY=             -0.3070   XZ=              4.4738   YZ=              0.6031

 Summary of Natural Population Analysis:

                                       Natural Population
                Natural  -----------------------------------------------
    Atom  No    Charge         Core      Valence    Rydberg      Total
 -----------------------------------------------------------------------
      C    1   -0.28355      0.99961     2.27696    0.00698     3.28355
      C    2    0.04917      0.99955     1.93699    0.01429     2.95083
      C    3   -0.20181      0.99959     2.19377    0.00845     3.20181
      C    4   -0.18580      0.99958     2.17741    0.00881     3.18580
      N    5   -0.32789      0.99963     2.81772    0.01054     3.82789
      C    6    0.40535      0.99969     1.57230    0.02266     2.59465
      O    7   -0.34393      0.99987     3.33810    0.00596     4.34393
      N    8   -0.24042      0.99968     2.72743    0.01332     3.74042
      N    9   -0.16608      0.99973     2.64805    0.01829     3.66608
      N   10    0.14201      0.99970     2.34331    0.01498     3.35799
      N   11    0.05334      0.99982     2.43285    0.01400     3.44666
      H   12    0.11263      0.00000     0.38603    0.00134     0.38737
      H   13    0.09541      0.00000     0.40346    0.00113     0.40459
      H   14    0.09768      0.00000     0.40110    0.00122     0.40232
      H   15    0.10103      0.00000     0.39795    0.00102     0.39897
      H   16    0.10090      0.00000     0.39793    0.00117     0.39910
      H   17    0.10488      0.00000     0.39385    0.00127     0.39512
      H   18    0.11289      0.00000     0.38559    0.00152     0.38711
      H   19    0.19145      0.00000     0.30622    0.00233     0.30855
      H   20    0.18274      0.00000     0.31517    0.00208     0.31726
 =======================================================================
   * Total *    0.00000     10.99644    29.85220    0.15136    41.00000

 Normal termination of Gaussian 16 at Tue Dec  8 19:59:46 2020.
