 Gaussian 16, Revision A.03,

 -----------------------------------------------------------
 # opt freq B3LYP/6-31G(d) empiricaldispersion=gd3bj scf=xqc
 -----------------------------------------------------------

 -------------------------------
 CID_117549800_JID_9302_neutraal
 -------------------------------
 Symbolic Z-matrix:
 Charge =  0 Multiplicity = 1

 SCF Done:  E(RB3LYP) =  -828.707280208     A.U. after   14 cycles
 SCF Done:  E(RB3LYP) =  -828.726638110     A.U. after   12 cycles
 SCF Done:  E(RB3LYP) =  -828.725258306     A.U. after   12 cycles
 SCF Done:  E(RB3LYP) =  -828.724931684     A.U. after   12 cycles
 SCF Done:  E(RB3LYP) =  -828.714416288     A.U. after   12 cycles
 SCF Done:  E(RB3LYP) =  -828.727092475     A.U. after   10 cycles
 SCF Done:  E(RB3LYP) =  -828.730258638     A.U. after   11 cycles
 SCF Done:  E(RB3LYP) =  -828.730510121     A.U. after   12 cycles
 SCF Done:  E(RB3LYP) =  -828.730140852     A.U. after   12 cycles
 SCF Done:  E(RB3LYP) =  -828.730913615     A.U. after   11 cycles
 SCF Done:  E(RB3LYP) =  -828.739913034     A.U. after    8 cycles
 SCF Done:  E(RB3LYP) =  -828.739913359     A.U. after    8 cycles
 SCF Done:  E(RB3LYP) =  -828.739913921     A.U. after    9 cycles
 SCF Done:  E(RB3LYP) =  -828.739914084     A.U. after    8 cycles
 SCF Done:  E(RB3LYP) =  -828.739914106     A.U. after    6 cycles
 Optimization completed.
    -- Stationary point found.
 Normal termination of Gaussian 16 at Sat Dec 12 10:38:06 2020.

 --------------------------------------------------------------------
 #N Geom=AllCheck Guess=TCheck SCRF=Check GenChk RB3LYP/6-31G(d) Freq
 --------------------------------------------------------------------

 Structure from the checkpoint file:  "JID_9302.chk"
 -------------------------------
 CID_117549800_JID_9302_neutraal
 -------------------------------
 Charge =  0 Multiplicity = 1

 SCF Done:  E(RB3LYP) =  -828.739914106     A.U. after    1 cycles

  Exact polarizability: 202.942   0.120 193.026  -2.518  -3.695 125.182
 Approx polarizability: 280.847  -1.664 293.082  -3.209  -9.184 190.154

                      1                      2                      3
                      A                      A                      A
 Frequencies --     26.3698                40.3722                68.1619
 Red. masses --      1.0470                 3.2142                 3.2159
 Frc consts  --      0.0004                 0.0031                 0.0088
 IR Inten    --      0.0909                 1.2909                 1.7192

                      4                      5                      6
                      A                      A                      A
 Frequencies --     76.1677                84.5060                96.0691
 Red. masses --      2.9826                 3.6328                 2.6107
 Frc consts  --      0.0102                 0.0153                 0.0142
 IR Inten    --      0.3044                 1.5950                 0.7689

                      7                      8                      9
                      A                      A                      A
 Frequencies --    117.4218               130.6646               150.1855
 Red. masses --      4.3480                 4.8767                 3.1644
 Frc consts  --      0.0353                 0.0491                 0.0421
 IR Inten    --      4.1017                 2.9225                 0.4728

                     10                     11                     12
                      A                      A                      A
 Frequencies --    173.1997               199.0545               232.6133
 Red. masses --      3.2192                 3.3843                 1.9677
 Frc consts  --      0.0569                 0.0790                 0.0627
 IR Inten    --      5.5518                 2.8021                13.3987

                     13                     14                     15
                      A                      A                      A
 Frequencies --    243.6881               260.3668               265.3966
 Red. masses --      3.6379                 1.3956                 1.1850
 Frc consts  --      0.1273                 0.0557                 0.0492
 IR Inten    --      2.8811                29.1029                 0.1892

                     16                     17                     18
                      A                      A                      A
 Frequencies --    299.0074               312.8919               340.3697
 Red. masses --      2.8272                 3.0076                 3.4576
 Frc consts  --      0.1489                 0.1735                 0.2360
 IR Inten    --      0.7766                 2.3035                 3.1886

                     19                     20                     21
                      A                      A                      A
 Frequencies --    358.5022               371.1937               377.3451
 Red. masses --      3.3607                 3.2094                 2.5730
 Frc consts  --      0.2545                 0.2605                 0.2159
 IR Inten    --      2.6995                 1.5183                 5.7687

                     22                     23                     24
                      A                      A                      A
 Frequencies --    390.3213               401.4228               452.6893
 Red. masses --      2.6937                 3.1786                 3.5589
 Frc consts  --      0.2418                 0.3018                 0.4297
 IR Inten    --      0.5337                 0.9436                 1.1155

                     25                     26                     27
                      A                      A                      A
 Frequencies --    479.9122               514.6437               543.6904
 Red. masses --      4.0537                 3.4089                 2.9177
 Frc consts  --      0.5501                 0.5320                 0.5081
 IR Inten    --      2.9307                 4.0512                 2.1281

                     28                     29                     30
                      A                      A                      A
 Frequencies --    565.1741               599.3614               664.2358
 Red. masses --      3.5469                 3.6434                 4.0937
 Frc consts  --      0.6675                 0.7711                 1.0642
 IR Inten    --      7.0777                 0.6571                 1.4151

                     31                     32                     33
                      A                      A                      A
 Frequencies --    725.2110               743.3131               745.0614
 Red. masses --      3.5486                 1.6200                 2.4134
 Frc consts  --      1.0996                 0.5274                 0.7893
 IR Inten    --      0.8593                 6.1562                 2.2021

                     34                     35                     36
                      A                      A                      A
 Frequencies --    754.9413               798.1068               818.7731
 Red. masses --      4.3387                 1.3065                 1.4925
 Frc consts  --      1.4569                 0.4903                 0.5895
 IR Inten    --      8.6682                 0.4145                27.5036

                     37                     38                     39
                      A                      A                      A
 Frequencies --    832.7965               835.9024               859.6833
 Red. masses --      2.6556                 4.0529                 1.4052
 Frc consts  --      1.0852                 1.6685                 0.6119
 IR Inten    --      4.5938                 6.0568                85.3830

                     40                     41                     42
                      A                      A                      A
 Frequencies --    874.0589               912.4831               919.8215
 Red. masses --      2.1695                 2.2963                 1.2981
 Frc consts  --      0.9765                 1.1265                 0.6471
 IR Inten    --      4.7983                 4.7266                 1.3725

                     43                     44                     45
                      A                      A                      A
 Frequencies --    934.2882               944.8145               974.5522
 Red. masses --      2.1740                 1.3886                 2.6493
 Frc consts  --      1.1181                 0.7303                 1.4825
 IR Inten    --     20.2881                 4.5326                 3.3247

                     46                     47                     48
                      A                      A                      A
 Frequencies --    982.8698               986.7920              1001.0788
 Red. masses --      2.7412                 2.7338                 1.4367
 Frc consts  --      1.5602                 1.5684                 0.8483
 IR Inten    --     12.2223                10.2741                 4.3831

                     49                     50                     51
                      A                      A                      A
 Frequencies --   1027.3118              1035.6909              1049.1759
 Red. masses --      1.9364                 2.8026                 2.3436
 Frc consts  --      1.2041                 1.7712                 1.5200
 IR Inten    --     11.2702                 0.2787                 4.8134

                     52                     53                     54
                      A                      A                      A
 Frequencies --   1051.1703              1076.7797              1077.9303
 Red. masses --      6.8038                 2.9101                 1.8246
 Frc consts  --      4.4294                 1.9880                 1.2491
 IR Inten    --     64.1160                31.4709                10.3785

                     55                     56                     57
                      A                      A                      A
 Frequencies --   1085.9597              1094.0635              1114.6263
 Red. masses --      2.1403                 1.8399                 2.2153
 Frc consts  --      1.4871                 1.2976                 1.6216
 IR Inten    --      1.9380                11.1200                17.9749

                     58                     59                     60
                      A                      A                      A
 Frequencies --   1117.7127              1169.4212              1175.4195
 Red. masses --      2.7273                 1.2816                 1.5681
 Frc consts  --      2.0075                 1.0326                 1.2764
 IR Inten    --     17.7433                 4.4793                 9.6981

                     61                     62                     63
                      A                      A                      A
 Frequencies --   1181.2653              1186.4202              1200.9404
 Red. masses --      1.2677                 1.2703                 2.0927
 Frc consts  --      1.0422                 1.0535                 1.7783
 IR Inten    --      4.1634                 0.9131                 1.9151

                     64                     65                     66
                      A                      A                      A
 Frequencies --   1212.5683              1222.6561              1228.6831
 Red. masses --      2.0238                 1.4636                 1.5353
 Frc consts  --      1.7532                 1.2891                 1.3656
 IR Inten    --      0.9032                 8.2484                14.6072

                     67                     68                     69
                      A                      A                      A
 Frequencies --   1250.4809              1259.9548              1274.9261
 Red. masses --      1.3122                 1.8158                 1.2805
 Frc consts  --      1.2089                 1.6984                 1.2263
 IR Inten    --      0.9896                 1.8830                 1.2940

                     70                     71                     72
                      A                      A                      A
 Frequencies --   1287.0461              1291.3174              1297.5411
 Red. masses --      2.4579                 1.5655                 2.0269
 Frc consts  --      2.3988                 1.5381                 2.0106
 IR Inten    --    100.1764                24.6807                89.6605

                     73                     74                     75
                      A                      A                      A
 Frequencies --   1311.8989              1317.1101              1325.5534
 Red. masses --      2.2829                 1.6675                 1.2663
 Frc consts  --      2.3149                 1.7043                 1.3109
 IR Inten    --     17.8880                 3.2810                 1.6791

                     76                     77                     78
                      A                      A                      A
 Frequencies --   1342.3116              1354.4770              1366.6572
 Red. masses --      1.5475                 4.2582                 1.3961
 Frc consts  --      1.6428                 4.6028                 1.5363
 IR Inten    --      9.8121                16.2398                 1.0582

                     79                     80                     81
                      A                      A                      A
 Frequencies --   1394.8078              1443.5888              1449.6810
 Red. masses --      1.4279                 1.2719                 1.3767
 Frc consts  --      1.6367                 1.5616                 1.7046
 IR Inten    --      9.0899                 1.3582                 3.6722

                     82                     83                     84
                      A                      A                      A
 Frequencies --   1454.4483              1494.3051              1499.4468
 Red. masses --      2.8929                 1.0882                 1.2232
 Frc consts  --      3.6057                 1.4316                 1.6204
 IR Inten    --     11.7871                 2.8554                 8.3398

                     85                     86                     87
                      A                      A                      A
 Frequencies --   1514.7190              1515.6040              1521.9379
 Red. masses --      1.0887                 1.0497                 1.0485
 Frc consts  --      1.4718                 1.4206                 1.4310
 IR Inten    --      3.0722                 3.8699                 4.9041

                     88                     89                     90
                      A                      A                      A
 Frequencies --   1527.6356              1530.3655              1533.4808
 Red. masses --      1.1059                 1.0948                 1.1576
 Frc consts  --      1.5206                 1.5106                 1.6039
 IR Inten    --      6.4324                 3.7345                71.5076

                     91                     92                     93
                      A                      A                      A
 Frequencies --   1539.8808              1549.2939              1554.9700
 Red. masses --      1.0879                 1.3127                 1.5557
 Frc consts  --      1.5199                 1.8564                 2.2163
 IR Inten    --      4.8933                20.4044                43.5656

                     94                     95                     96
                      A                      A                      A
 Frequencies --   1567.1780              1641.7189              1670.5350
 Red. masses --      1.1526                 5.7905                 5.4966
 Frc consts  --      1.6679                 9.1953                 9.0376
 IR Inten    --      4.0008                11.5230                11.6546

                     97                     98                     99
                      A                      A                      A
 Frequencies --   1699.3822              2956.9312              3026.2944
 Red. masses --      1.0867                 1.0743                 1.0347
 Frc consts  --      1.8491                 5.5342                 5.5835
 IR Inten    --     36.4158                64.4640                68.3133

                    100                    101                    102
                      A                      A                      A
 Frequencies --   3040.6664              3048.1589              3058.2108
 Red. masses --      1.0379                 1.0595                 1.0681
 Frc consts  --      5.6537                 5.8002                 5.8858
 IR Inten    --     38.5193                76.7572                 9.0079

                    103                    104                    105
                      A                      A                      A
 Frequencies --   3063.0390              3072.5440              3080.0978
 Red. masses --      1.0688                 1.0605                 1.0629
 Frc consts  --      5.9079                 5.8987                 5.9414
 IR Inten    --     90.8793                57.5996                24.0663

                    106                    107                    108
                      A                      A                      A
 Frequencies --   3085.5015              3091.8119              3105.2873
 Red. masses --      1.1066                 1.1003                 1.1053
 Frc consts  --      6.2070                 6.1969                 6.2796
 IR Inten    --     38.5195                22.4575                40.6389

                    109                    110                    111
                      A                      A                      A
 Frequencies --   3118.1261              3122.4517              3123.7951
 Red. masses --      1.1043                 1.1009                 1.0859
 Frc consts  --      6.3261                 6.3240                 6.2433
 IR Inten    --      8.5317                21.8375                25.1496

                    112                    113                    114
                      A                      A                      A
 Frequencies --   3137.7803              3142.9164              3144.2285
 Red. masses --      1.1000                 1.0988                 1.1042
 Frc consts  --      6.3807                 6.3949                 6.4315
 IR Inten    --      1.1626                35.1295                40.0732

                    115                    116                    117
                      A                      A                      A
 Frequencies --   3162.1523              3183.5551              3229.9629
 Red. masses --      1.0997                 1.0895                 1.0908
 Frc consts  --      6.4789                 6.5060                 6.7049
 IR Inten    --     19.1514                20.1375                15.0818

                    118                    119                    120
                      A                      A                      A
 Frequencies --   3248.7894              3477.8985              3559.7903
 Red. masses --      1.0880                 1.0499                 1.0922
 Frc consts  --      6.7661                 7.4825                 8.1542
 IR Inten    --      3.0484                 2.1175                 0.1033

 - Thermochemistry -
 -------------------
 Temperature   298.150 Kelvin.  Pressure   1.00000 Atm.
 Atom     1 has atomic number  6 and mass  12.00000

 Molecular mass:   261.17288 amu.
 Principal axes and moments of inertia in atomic units:
                           1         2         3
     Eigenvalues --  3598.620785371.639157785.13226
           X            0.99988   0.01557   0.00097
           Y           -0.01557   0.99987  -0.00332
           Z           -0.00102   0.00331   0.99999
 This molecule is an asymmetric top.
 Rotational symmetry number  1.
 Warning -- assumption of classical behavior for rotation
           may cause significant error
 Rotational temperatures (Kelvin)      0.02407     0.01612     0.01113
 Rotational constants (GHZ):           0.50151     0.33598     0.23182
 Zero-point vibrational energy     968075.5 (Joules/Mol)
                                  231.37560 (Kcal/Mol)
 Warning -- explicit consideration of  29 degrees of freedom as
           vibrations may cause significant error
 Vibrational temperatures:     37.94    58.09    98.07   109.59   121.59
          (Kelvin)            138.22   168.94   188.00   216.08   249.20
                              286.39   334.68   350.61   374.61   381.85
                              430.21   450.18   489.72   515.80   534.06
                              542.92   561.59   577.56   651.32   690.49
                              740.46   782.25   813.16   862.35   955.69
                             1043.42  1069.46  1071.98  1086.19  1148.30
                             1178.03  1198.21  1202.68  1236.89  1257.58
                             1312.86  1323.42  1344.23  1359.38  1402.16
                             1414.13  1419.77  1440.33  1478.07  1490.13
                             1509.53  1512.40  1549.25  1550.90  1562.45
                             1574.11  1603.70  1608.14  1682.54  1691.17
                             1699.58  1706.99  1727.89  1744.62  1759.13
                             1767.80  1799.16  1812.79  1834.33  1851.77
                             1857.92  1866.87  1887.53  1895.03  1907.18
                             1931.29  1948.79  1966.31  2006.82  2077.00
                             2085.77  2092.63  2149.97  2157.37  2179.34
                             2180.62  2189.73  2197.93  2201.85  2206.34
                             2215.55  2229.09  2237.25  2254.82  2362.07
                             2403.53  2445.03  4254.36  4354.16  4374.84
                             4385.62  4400.08  4407.03  4420.71  4431.57
                             4439.35  4448.43  4467.82  4486.29  4492.51
                             4494.44  4514.57  4521.96  4523.84  4549.63
                             4580.43  4647.20  4674.28  5003.92  5121.74

 Zero-point correction=                           0.368720 (Hartree/Particle)
 Thermal correction to Energy=                    0.387518
 Thermal correction to Enthalpy=                  0.388462
 Thermal correction to Gibbs Free Energy=         0.321580
 Sum of electronic and zero-point Energies=           -828.371194
 Sum of electronic and thermal Energies=              -828.352396
 Sum of electronic and thermal Enthalpies=            -828.351452
 Sum of electronic and thermal Free Energies=         -828.418334

                     E (Thermal)             CV                S
                      KCal/Mol        Cal/Mol-Kelvin    Cal/Mol-Kelvin
 Total                  243.171             72.597            140.766
 Electronic               0.000              0.000              0.000
 Translational            0.889              2.981             42.580
 Rotational               0.889              2.981             33.375
 Vibrational            241.394             66.635             64.811
 Vibration     1          0.593              1.985              6.085
 Vibration     2          0.594              1.981              5.241
 Vibration     3          0.598              1.969              4.206
 Vibration     4          0.599              1.965              3.987
 Vibration     5          0.601              1.960              3.783
 Vibration     6          0.603              1.952              3.533
 Vibration     7          0.608              1.935              3.142
 Vibration     8          0.612              1.923              2.936
 Vibration     9          0.618              1.902              2.670
 Vibration    10          0.627              1.875              2.400
 Vibration    11          0.637              1.841              2.142
 Vibration    12          0.653              1.791              1.859
 Vibration    13          0.659              1.773              1.776
 Vibration    14          0.668              1.745              1.659
 Vibration    15          0.671              1.736              1.626
 Vibration    16          0.692              1.676              1.422
 Vibration    17          0.701              1.649              1.347
 Vibration    18          0.720              1.595              1.210
 Vibration    19          0.733              1.558              1.129
 Vibration    20          0.743              1.531              1.075
 Vibration    21          0.748              1.518              1.050
 Vibration    22          0.758              1.491              0.999
 Vibration    23          0.767              1.467              0.957
 Vibration    24          0.811              1.355              0.788
 Vibration    25          0.836              1.295              0.710
 Vibration    26          0.870              1.218              0.623
 Vibration    27          0.899              1.154              0.557
 Vibration    28          0.921              1.107              0.514
 Vibration    29          0.957              1.033              0.451

 Optimization completed.
    -- Stationary point found.
 Normal termination of Gaussian 16 at Sat Dec 12 11:02:44 2020.

 ----------------------------------------------------------------------
 # B3LYP/6-311++G(d,p) empiricaldispersion=gd3bj scf=xqc pop=npa geom=c
 heck
 ----------------------------------------------------------------------

 ---------------------------------------
 CID_117549800_JID_9302_Energie_neutraal
 ---------------------------------------
 Structure from the checkpoint file:  "JID_9302.chk"
 Charge =  0 Multiplicity = 1

 SCF Done:  E(RB3LYP) =  -828.969705545     A.U. after   15 cycles
 Normal termination of Gaussian 16 at Sat Dec 12 11:14:16 2020.

 ----------------------------------------------------------------------
 # B3LYP/6-311++G(d,p) empiricaldispersion=gd3bj scf=xqc pop=npa geom=c
 heck
 ----------------------------------------------------------------------

 -------------------------------------
 CID_117549800_JID_9302_Energie_kation
 -------------------------------------
 Structure from the checkpoint file:  "JID_9302.chk"
 Charge =  1 Multiplicity = 2

 SCF Done:  E(UB3LYP) =  -828.688017516     A.U. after   28 cycles
 Normal termination of Gaussian 16 at Sat Dec 12 11:42:58 2020.
 Gaussian 16:  ES64L-G16RevA.03 25-Dec-2016

 ----------------------------------------------------------------------
 # B3LYP/6-311++G(d,p) empiricaldispersion=gd3bj scf=xqc pop=npa geom=c
 heck
 ----------------------------------------------------------------------

 ------------------------------------
 CID_117549800_JID_9302_Energie_anion
 ------------------------------------
 Structure from the checkpoint file:  "JID_9302.chk"
 Charge = -1 Multiplicity = 2

                         Standard orientation:
 ---------------------------------------------------------------------
 Center     Atomic      Atomic             Coordinates (Angstroms)
 Number     Number       Type             X           Y           Z
 ---------------------------------------------------------------------
      1          6           0       -1.754274    3.797826   -0.399145
      2          6           0       -1.886014    2.305571   -0.212700
      3          6           0       -0.742630    1.494719   -0.174902
      4          6           0       -0.777526    0.109560    0.008119
      5          6           0       -2.064896   -0.479632    0.110224
      6          6           0       -3.216936    0.307130    0.087335
      7          6           0       -3.124816    1.690905   -0.067789
      8          8           0       -2.110954   -1.844355    0.206070
      9          6           0       -3.370929   -2.488806    0.242806
     10          6           0        0.490712   -0.741585   -0.008560
     11          6           0        0.574593   -1.992489    0.924096
     12          8           0        0.719485   -2.887261   -0.200224
     13          6           0        0.489024   -1.817430   -1.137016
     14          6           0        1.816239    0.058369    0.076445
     15          6           0        3.109174   -0.800424   -0.166166
     16          6           0        3.540900    0.162185   -1.301165
     17          6           0        2.190471    0.908495   -1.184176
     18          6           0        1.914506    0.813481    1.416529
     19          7           0        3.103567    1.673722    1.480855
     20          1           0       -1.254651    4.268642    0.457149
     21          1           0       -1.160544    4.040087   -1.288816
     22          1           0       -2.734315    4.272036   -0.512028
     23          1           0        0.213762    1.982333   -0.306010
     24          1           0       -4.194061   -0.151087    0.179841
     25          1           0       -4.034276    2.286250   -0.085842
     26          1           0       -3.947181   -2.199589    1.131447
     27          1           0       -3.961172   -2.268062   -0.656014
     28          1           0       -3.153818   -3.557298    0.282660
     29          1           0        1.462615   -2.019924    1.566353
     30          1           0       -0.314650   -2.212271    1.515821
     31          1           0       -0.472555   -1.925665   -1.647064
     32          1           0        1.287956   -1.739540   -1.884440
     33          1           0        3.788079   -0.860438    0.692171
     34          1           0        2.911604   -1.824852   -0.486787
     35          1           0        3.739572   -0.313335   -2.266741
     36          1           0        4.396690    0.789741   -1.038988
     37          1           0        1.514383    0.738806   -2.027772
     38          1           0        2.276119    1.981886   -1.003447
     39          1           0        1.046111    1.460754    1.555175
     40          1           0        1.874531    0.063648    2.227089
     41          1           0        3.054875    2.252152    2.316745
     42          1           0        3.942130    1.105343    1.583139
 ---------------------------------------------------------------------

 SCF Done:  E(UB3LYP) =  -828.957706387     A.U. after   33 cycles
 SCF Done:  E(UB3LYP) =  -828.957706387     a.u. after    1 cycles

 The electronic state is 2-A.
 Alpha  occ. eigenvalues --  -19.06279 -19.02557 -14.19785 -10.14358 -10.13180
 Alpha  occ. eigenvalues --  -10.12416 -10.12031 -10.10460 -10.09585 -10.09402
 Alpha  occ. eigenvalues --  -10.09310 -10.08586 -10.08111 -10.07972 -10.07883
 Alpha  occ. eigenvalues --  -10.07819 -10.07487 -10.07295 -10.07080  -0.98130
 Alpha  occ. eigenvalues --   -0.95054  -0.79743  -0.77063  -0.74765  -0.70016
 Alpha  occ. eigenvalues --   -0.67601  -0.64127  -0.62766  -0.60669  -0.59265
 Alpha  occ. eigenvalues --   -0.57653  -0.57317  -0.52650  -0.51629  -0.49589
 Alpha  occ. eigenvalues --   -0.46698  -0.44611  -0.42937  -0.42431  -0.40438
 Alpha  occ. eigenvalues --   -0.39689  -0.38962  -0.38394  -0.37031  -0.36264
 Alpha  occ. eigenvalues --   -0.35934  -0.35454  -0.34600  -0.33599  -0.33139
 Alpha  occ. eigenvalues --   -0.33030  -0.31586  -0.30687  -0.29667  -0.29224
 Alpha  occ. eigenvalues --   -0.28561  -0.28509  -0.27678  -0.26487  -0.25986
 Alpha  occ. eigenvalues --   -0.24474  -0.24236  -0.23049  -0.22636  -0.21726
 Alpha  occ. eigenvalues --   -0.20171  -0.19761  -0.16285  -0.15830  -0.14891
 Alpha  occ. eigenvalues --   -0.12824   0.03947
 Alpha virt. eigenvalues --    0.05325   0.06314   0.07092   0.07214   0.07803
 Alpha virt. eigenvalues --    0.08238   0.08545   0.08608   0.08960   0.09572
 Alpha virt. eigenvalues --    0.10033   0.10584   0.10662   0.10787   0.11456

  Beta  occ. eigenvalues --  -19.06272 -19.02555 -14.19740 -10.14359 -10.13137
  Beta  occ. eigenvalues --  -10.12411 -10.12028 -10.10459 -10.09570 -10.09402
  Beta  occ. eigenvalues --  -10.09311 -10.08587 -10.08098 -10.07958 -10.07878
  Beta  occ. eigenvalues --  -10.07799 -10.07480 -10.07282 -10.07073  -0.98113
  Beta  occ. eigenvalues --   -0.95051  -0.79691  -0.77049  -0.74736  -0.70005
  Beta  occ. eigenvalues --   -0.67584  -0.64101  -0.62733  -0.60648  -0.59232
  Beta  occ. eigenvalues --   -0.57610  -0.57293  -0.52616  -0.51602  -0.49561
  Beta  occ. eigenvalues --   -0.46677  -0.44576  -0.42915  -0.42411  -0.40407
  Beta  occ. eigenvalues --   -0.39669  -0.38940  -0.38369  -0.37004  -0.36236
  Beta  occ. eigenvalues --   -0.35908  -0.35429  -0.34566  -0.33566  -0.33118
  Beta  occ. eigenvalues --   -0.33011  -0.31560  -0.30662  -0.29643  -0.29210
  Beta  occ. eigenvalues --   -0.28543  -0.28488  -0.27656  -0.26466  -0.25968
  Beta  occ. eigenvalues --   -0.24459  -0.24212  -0.23034  -0.22617  -0.21711
  Beta  occ. eigenvalues --   -0.20160  -0.19750  -0.16277  -0.15821  -0.14853
  Beta  occ. eigenvalues --   -0.12814
  Beta virt. eigenvalues --    0.05987   0.06501   0.06818   0.07157   0.07332
  Beta virt. eigenvalues --    0.08286   0.08474   0.08702   0.08831   0.09316
  Beta virt. eigenvalues --    0.09871   0.10295   0.10642   0.10910   0.11106

 Mulliken charges and spin densities:
               1          2
     1  C    0.503138  -0.947698
     2  C   -0.591327   1.033549
     3  C   -0.428709   0.349641
     4  C    0.223062   0.190571
     5  C   -0.435330   0.298176
     6  C    0.362861  -0.724554
     7  C    0.461097  -1.138795
     8  O   -0.178891   0.048828
     9  C    0.814690  -1.086461
    10  C   -0.149222   0.111294
    11  C    0.216662  -0.498556
    12  O   -0.039081   0.002303
    13  C    0.262872  -0.653470
    14  C    0.998079  -0.296242
    15  C   -0.992241   0.734603
    16  C    0.395517  -1.147201
    17  C   -1.155436   0.971647
    18  C   -0.148333  -0.974665
    19  N   -0.459009   0.197588
    20  H   -0.048843   0.219994
    21  H   -0.016422   0.165862
    22  H   -0.098818   0.254088
    23  H    0.498199  -0.393780
    24  H   -0.339293   0.520532
    25  H   -0.474966   0.616631
    26  H   -0.340773   0.494780
    27  H   -0.280494   0.429232
    28  H   -0.094376   0.271195
    29  H    0.140511   0.031414
    30  H    0.128775   0.080837
    31  H    0.193867  -0.013072
    32  H    0.177030  -0.000037
    33  H   -0.180783   0.331828
    34  H    0.087588   0.095665
    35  H    0.115683   0.016152
    36  H    0.101402   0.036332
    37  H    0.017073   0.123346
    38  H    0.009698   0.167690
    39  H    0.224249  -0.053895
    40  H   -0.216398   0.389639
    41  H   -0.303833   0.562265
    42  H    0.040524   0.182743
 Sum of Mulliken charges =  -1.00000   1.00000

 Dipole moment (field-independent basis, Debye):
    X=              2.5672    Y=             -1.3069    Z=             -3.2956  Tot=              4.3771
 Quadrupole moment (field-independent basis, Debye-Ang):
   XX=           -205.9947   YY=           -175.7033   ZZ=           -151.5815
   XY=            -10.2495   XZ=             -9.1268   YZ=             -4.8754

 Summary of Natural Population Analysis:

                                       Natural Population
                Natural  -----------------------------------------------
    Atom  No    Charge         Core      Valence    Rydberg      Total
 -----------------------------------------------------------------------
      C    1   -0.28914      0.99964     2.28486    0.00464     3.28914
      C    2   -0.02866      0.99951     2.01968    0.00948     3.02866
      C    3   -0.09495      0.99948     2.08706    0.00840     3.09495
      C    4   -0.03071      0.99945     2.02020    0.01106     3.03071
      C    5    0.16531      0.99935     1.82239    0.01295     2.83469
      C    6   -0.13750      0.99952     2.12846    0.00952     3.13750
      C    7   -0.09133      0.99951     2.08192    0.00989     3.09133
      O    8   -0.28052      0.99986     3.26937    0.01129     4.28052
      C    9   -0.09977      0.99959     2.09114    0.00904     3.09977
      C   10   -0.05953      0.99948     2.04581    0.01423     3.05953
      C   11    0.00283      0.99958     1.98483    0.01277     2.99717
      O   12   -0.30730      0.99991     3.29957    0.00782     4.30730
      C   13    0.00426      0.99958     1.98514    0.01102     2.99574
      C   14   -0.02926      0.99955     2.01294    0.01677     3.02926
      C   15   -0.19492      0.99961     2.18620    0.00911     3.19492
      C   16   -0.19238      0.99964     2.18526    0.00747     3.19238
      C   17   -0.19391      0.99960     2.18709    0.00722     3.19391
      C   18   -0.08919      0.99954     2.07781    0.01184     3.08919
      N   19   -0.42461      0.99977     2.91404    0.01079     3.92461
      H   20    0.10412      0.00000     0.39467    0.00121     0.39588
      H   21    0.10189      0.00000     0.39705    0.00106     0.39811
      H   22    0.10125      0.00000     0.39782    0.00093     0.39875
      H   23    0.10459      0.00000     0.39303    0.00238     0.39541
      H   24    0.10814      0.00000     0.39004    0.00182     0.39186
      H   25    0.10009      0.00000     0.39874    0.00117     0.39991
      H   26    0.08664      0.00000     0.41159    0.00177     0.41336
      H   27    0.08659      0.00000     0.41170    0.00171     0.41341
      H   28    0.09488      0.00000     0.40408    0.00104     0.40512
      H   29    0.08228      0.00000     0.41617    0.00154     0.41772
      H   30    0.09490      0.00000     0.40347    0.00163     0.40510
      H   31    0.09048      0.00000     0.40807    0.00146     0.40952
      H   32    0.08129      0.00000     0.41734    0.00138     0.41871
      H   33    0.09597      0.00000     0.40287    0.00116     0.40403
      H   34    0.10627      0.00000     0.39193    0.00180     0.39373
      H   35    0.09215      0.00000     0.40676    0.00109     0.40785
      H   36    0.09965      0.00000     0.39897    0.00138     0.40035
      H   37    0.09797      0.00000     0.40096    0.00107     0.40203
      H   38    0.10850      0.00000     0.39014    0.00136     0.39150
      H   39    0.09901      0.00000     0.39951    0.00147     0.40099
      H   40    0.08144      0.00000     0.41677    0.00179     0.41856
      H   41    0.18014      0.00000     0.31692    0.00294     0.31986
      H   42    0.17304      0.00000     0.32442    0.00254     0.32696
 =======================================================================
   * Total *   -0.00000     18.99218    51.77683    0.23100    71.00000

 Normal termination of Gaussian 16 at Sat Dec 12 12:17:10 2020.
