 Gaussian 16, Revision A.03,

 -----------------------------------------------------------
 # opt freq B3LYP/6-31G(d) empiricaldispersion=gd3bj scf=xqc
 -----------------------------------------------------------

 ------------------------------
 CID_21200012_JID_7975_neutraal
 ------------------------------
 Symbolic Z-matrix:
 Charge =  0 Multiplicity = 1

 SCF Done:  E(RB3LYP) =  -1017.52271014     A.U. after   15 cycles
 SCF Done:  E(RB3LYP) =  -1017.53006477     A.U. after   13 cycles
 SCF Done:  E(RB3LYP) =  -1017.53208161     A.U. after   12 cycles
 SCF Done:  E(RB3LYP) =  -1017.53481339     A.U. after   15 cycles
 SCF Done:  E(RB3LYP) =  -1017.53535113     A.U. after   12 cycles
 SCF Done:  E(RB3LYP) =  -1017.53607945     A.U. after   12 cycles
 SCF Done:  E(RB3LYP) =  -1017.53624915     A.U. after   12 cycles
 SCF Done:  E(RB3LYP) =  -1017.53628964     A.U. after   12 cycles
 SCF Done:  E(RB3LYP) =  -1017.53629361     A.U. after    9 cycles
 SCF Done:  E(RB3LYP) =  -1017.53629440     A.U. after    8 cycles
 SCF Done:  E(RB3LYP) =  -1017.53629455     A.U. after    7 cycles
 SCF Done:  E(RB3LYP) =  -1017.53629464     A.U. after    7 cycles
 SCF Done:  E(RB3LYP) =  -1017.53629466     A.U. after    7 cycles
 Optimization completed.
    -- Stationary point found.
 Normal termination of Gaussian 16 at Fri Dec 11 13:27:38 2020.

 --------------------------------------------------------------------
 #N Geom=AllCheck Guess=TCheck SCRF=Check GenChk RB3LYP/6-31G(d) Freq
 --------------------------------------------------------------------

 Structure from the checkpoint file:  "JID_7975.chk"
 ------------------------------
 CID_21200012_JID_7975_neutraal
 ------------------------------
 Charge =  0 Multiplicity = 1

 SCF Done:  E(RB3LYP) =  -1017.53629466     A.U. after    1 cycles

  Exact polarizability: 208.516  -1.484 229.250  16.059  -3.858 122.841
 Approx polarizability: 302.661  -6.066 381.261  34.800 -13.754 206.043

                      1                      2                      3
                      A                      A                      A
 Frequencies --     38.8854                50.7457                73.4949
 Red. masses --      3.2574                 4.1699                 3.3967
 Frc consts  --      0.0029                 0.0063                 0.0108
 IR Inten    --      0.1469                 0.0584                 0.0349

                      4                      5                      6
                      A                      A                      A
 Frequencies --     86.4629               119.6431               136.9815
 Red. masses --      4.8277                 3.8010                 4.8157
 Frc consts  --      0.0213                 0.0321                 0.0532
 IR Inten    --      0.2716                 0.2057                 0.1998

                      7                      8                      9
                      A                      A                      A
 Frequencies --    182.8044               205.6876               234.7992
 Red. masses --      2.5512                 2.2619                 2.6739
 Frc consts  --      0.0502                 0.0564                 0.0869
 IR Inten    --      0.1085                 2.1077                 1.1813

                     10                     11                     12
                      A                      A                      A
 Frequencies --    247.0189               284.1301               305.1592
 Red. masses --      3.6520                 4.7588                 4.2754
 Frc consts  --      0.1313                 0.2264                 0.2346
 IR Inten    --      0.4079                 0.1249                 0.4980

                     13                     14                     15
                      A                      A                      A
 Frequencies --    345.5225               406.3992               427.6378
 Red. masses --      4.9818                 3.6963                 2.8587
 Frc consts  --      0.3504                 0.3597                 0.3080
 IR Inten    --      0.1549                 2.5611                 1.3012

                     16                     17                     18
                      A                      A                      A
 Frequencies --    468.9559               515.9592               524.7131
 Red. masses --      3.2037                 3.6031                 3.1140
 Frc consts  --      0.4151                 0.5651                 0.5051
 IR Inten    --      2.9513                 1.2664                 3.2206

                     19                     20                     21
                      A                      A                      A
 Frequencies --    533.1160               550.5758               573.5535
 Red. masses --      3.3039                 2.9296                 3.3963
 Frc consts  --      0.5532                 0.5232                 0.6583
 IR Inten    --      0.5509                 1.8141                 1.9198

                     22                     23                     24
                      A                      A                      A
 Frequencies --    608.2639               640.7621               679.6835
 Red. masses --      7.3031                 5.1213                 1.5490
 Frc consts  --      1.5920                 1.2389                 0.4216
 IR Inten    --     11.0692                 4.1774                 1.6574

                     25                     26                     27
                      A                      A                      A
 Frequencies --    705.7374               718.2706               731.8443
 Red. masses --      1.8006                 1.4966                 2.0383
 Frc consts  --      0.5284                 0.4549                 0.6432
 IR Inten    --     22.5746                14.3132                26.6580

                     28                     29                     30
                      A                      A                      A
 Frequencies --    750.7571               768.9011               774.8787
 Red. masses --      3.1577                 1.8184                 1.8091
 Frc consts  --      1.0486                 0.6334                 0.6400
 IR Inten    --     17.1870                 7.5305                 0.5205

                     31                     32                     33
                      A                      A                      A
 Frequencies --    803.0458               845.9427               873.1880
 Red. masses --      1.2681                 4.9410                 4.7723
 Frc consts  --      0.4818                 2.0833                 2.1438
 IR Inten    --     52.1898                 2.9656                32.7502

                     34                     35                     36
                      A                      A                      A
 Frequencies --    888.5740               897.2523               914.8468
 Red. masses --      3.7811                 3.1868                 1.4974
 Frc consts  --      1.7590                 1.5116                 0.7384
 IR Inten    --      7.3792                 1.7825                 5.1463

                     37                     38                     39
                      A                      A                      A
 Frequencies --    934.5169               938.3556               973.6280
 Red. masses --      2.6328                 1.4643                 1.9621
 Frc consts  --      1.3547                 0.7597                 1.0959
 IR Inten    --      0.5696                10.2804                 0.7483

                     40                     41                     42
                      A                      A                      A
 Frequencies --    979.5099               985.2836               998.6851
 Red. masses --      1.4310                 1.4258                 2.5477
 Frc consts  --      0.8089                 0.8155                 1.4971
 IR Inten    --      0.4126                 0.9236                 0.4661

                     43                     44                     45
                      A                      A                      A
 Frequencies --   1019.0158              1022.5908              1033.7490
 Red. masses --      2.5266                 2.5631                 2.6300
 Frc consts  --      1.5458                 1.5791                 1.6559
 IR Inten    --      1.3689                 1.9070                 5.4757

                     46                     47                     48
                      A                      A                      A
 Frequencies --   1056.2694              1061.3837              1087.3316
 Red. masses --      1.9432                 2.0574                 1.8308
 Frc consts  --      1.2774                 1.3656                 1.2753
 IR Inten    --      1.7864                 0.5202                 0.9793

                     49                     50                     51
                      A                      A                      A
 Frequencies --   1094.3848              1189.5717              1192.0364
 Red. masses --      1.7834                 1.1130                 1.0792
 Frc consts  --      1.2585                 0.9280                 0.9035
 IR Inten    --      4.0675                 0.9468                 0.0309

                     52                     53                     54
                      A                      A                      A
 Frequencies --   1197.6541              1201.6675              1209.7454
 Red. masses --      1.1564                 1.1461                 1.2184
 Frc consts  --      0.9773                 0.9751                 1.0506
 IR Inten    --      1.4603                 5.2034                 3.6665

                     55                     56                     57
                      A                      A                      A
 Frequencies --   1241.1837              1247.8676              1284.8755
 Red. masses --      1.7496                 1.7604                 1.3281
 Frc consts  --      1.5881                 1.6151                 1.2918
 IR Inten    --      5.2660                 5.6557                10.0261

                     58                     59                     60
                      A                      A                      A
 Frequencies --   1292.8068              1335.8426              1346.7619
 Red. masses --      1.6925                 1.4363                 1.3540
 Frc consts  --      1.6666                 1.5101                 1.4470
 IR Inten    --      1.3472                 3.4741                 2.8089

                     61                     62                     63
                      A                      A                      A
 Frequencies --   1375.9134              1380.7202              1383.8577
 Red. masses --      1.5531                 1.5321                 2.3596
 Frc consts  --      1.7323                 1.7209                 2.6624
 IR Inten    --      3.5887                 2.3189                 9.6625

                     64                     65                     66
                      A                      A                      A
 Frequencies --   1399.1428              1423.2817              1439.5473
 Red. masses --      1.6856                 2.3611                 1.6966
 Frc consts  --      1.9441                 2.8180                 2.0715
 IR Inten    --      3.2921                 5.5075                 0.7517

                     67                     68                     69
                      A                      A                      A
 Frequencies --   1443.4730              1491.4646              1498.2797
 Red. masses --      1.8453                 3.1776                 1.1033
 Frc consts  --      2.2654                 4.1647                 1.4592
 IR Inten    --      1.9906                 2.6159                 1.6311

                     70                     71                     72
                      A                      A                      A
 Frequencies --   1501.5145              1508.4752              1512.8228
 Red. masses --      1.2042                 1.1219                 1.1284
 Frc consts  --      1.5995                 1.5042                 1.5216
 IR Inten    --      4.2427                 0.5182                 1.0357

                     73                     74                     75
                      A                      A                      A
 Frequencies --   1571.0579              1641.3150              1649.1165
 Red. masses --      7.9705                 7.4077                 7.6145
 Frc consts  --     11.5910                11.7576                12.2009
 IR Inten    --      1.6875                 3.8233                 3.4537

                     76                     77                     78
                      A                      A                      A
 Frequencies --   1712.9422              1713.7857              2982.1622
 Red. masses --      5.4823                 5.5977                 1.0736
 Frc consts  --      9.4777                 9.6866                 5.6257
 IR Inten    --      5.3260                 3.7433                18.7518

                     79                     80                     81
                      A                      A                      A
 Frequencies --   2987.4271              2997.4098              3039.2308
 Red. masses --      1.0725                 1.0701                 1.0662
 Frc consts  --      5.6393                 5.6644                 5.8025
 IR Inten    --     35.3499                46.1979                29.4577

                     82                     83                     84
                      A                      A                      A
 Frequencies --   3081.3339              3082.1908              3093.7252
 Red. masses --      1.0892                 1.0890                 1.0899
 Frc consts  --      6.0932                 6.0953                 6.1458
 IR Inten    --     37.5702                30.7107                21.3809

                     85                     86                     87
                      A                      A                      A
 Frequencies --   3100.0778              3173.0842              3175.6009
 Red. masses --      1.0957                 1.0847                 1.0847
 Frc consts  --      6.2044                 6.4348                 6.4450
 IR Inten    --     16.9804                 4.8806                 4.9184

                     88                     89                     90
                      A                      A                      A
 Frequencies --   3186.2199              3195.2277              3199.0094
 Red. masses --      1.0904                 1.0944                 1.0976
 Frc consts  --      6.5222                 6.5833                 6.6183
 IR Inten    --     28.5202                40.3950                36.4651

                     91                     92                     93
                      A                      A                      A
 Frequencies --   3206.1964              3270.3480              3273.0980
 Red. masses --      1.0936                 1.0923                 1.0940
 Frc consts  --      6.6234                 6.8830                 6.9051
 IR Inten    --     12.4624                 1.3982                 1.0230

 - Thermochemistry -
 -------------------
 Temperature   298.150 Kelvin.  Pressure   1.00000 Atm.
 Atom     1 has atomic number  6 and mass  12.00000

 Molecular mass:   240.09727 amu.
 Principal axes and moments of inertia in atomic units:
                           1         2         3
     Eigenvalues --  3801.769444784.164027715.46879
           X            0.99998  -0.00410   0.00385
           Y            0.00408   0.99998   0.00552
           Z           -0.00387  -0.00551   0.99998
 This molecule is an asymmetric top.
 Rotational symmetry number  1.
 Warning -- assumption of classical behavior for rotation
           may cause significant error
 Rotational temperatures (Kelvin)      0.02278     0.01810     0.01123
 Rotational constants (GHZ):           0.47471     0.37723     0.23391
 Zero-point vibrational energy     720917.3 (Joules/Mol)
                                  172.30337 (Kcal/Mol)
 Warning -- explicit consideration of  22 degrees of freedom as
           vibrations may cause significant error
 Vibrational temperatures:     55.95    73.01   105.74   124.40   172.14
          (Kelvin)            197.09   263.01   295.94   337.82   355.41
                              408.80   439.06   497.13   584.72   615.28
                              674.72   742.35   754.95   767.04   792.16
                              825.22   875.16   921.91   977.91  1015.40
                             1033.43  1052.96  1080.17  1106.28  1114.88
                             1155.40  1217.12  1256.32  1278.46  1290.95
                             1316.26  1344.56  1350.08  1400.83  1409.30
                             1417.60  1436.89  1466.14  1471.28  1487.33
                             1519.74  1527.09  1564.43  1574.58  1711.53
                             1715.07  1723.16  1728.93  1740.55  1785.79
                             1795.40  1848.65  1860.06  1921.98  1937.69
                             1979.63  1986.55  1991.06  2013.05  2047.78
                             2071.19  2076.84  2145.88  2155.69  2160.34
                             2170.36  2176.61  2260.40  2361.49  2372.71
                             2464.54  2465.76  4290.67  4298.24  4312.60
                             4372.78  4433.35  4434.59  4451.18  4460.32
                             4565.36  4568.98  4584.26  4597.22  4602.66
                             4613.00  4705.30  4709.26

 Zero-point correction=                           0.274583 (Hartree/Particle)
 Thermal correction to Energy=                    0.289266
 Thermal correction to Enthalpy=                  0.290210
 Thermal correction to Gibbs Free Energy=         0.232070
 Sum of electronic and zero-point Energies=          -1017.261712
 Sum of electronic and thermal Energies=             -1017.247029
 Sum of electronic and thermal Enthalpies=           -1017.246084
 Sum of electronic and thermal Free Energies=        -1017.304224

                     E (Thermal)             CV                S
                      KCal/Mol        Cal/Mol-Kelvin    Cal/Mol-Kelvin
 Total                  181.517             58.515            122.366
 Electronic               0.000              0.000              0.000
 Translational            0.889              2.981             42.329
 Rotational               0.889              2.981             33.306
 Vibrational            179.740             52.553             46.731
 Vibration     1          0.594              1.981              5.315
 Vibration     2          0.595              1.977              4.788
 Vibration     3          0.599              1.967              4.057
 Vibration     4          0.601              1.959              3.739
 Vibration     5          0.609              1.933              3.106
 Vibration     6          0.614              1.916              2.846
 Vibration     7          0.630              1.863              2.300
 Vibration     8          0.640              1.832              2.082
 Vibration     9          0.655              1.788              1.842
 Vibration    10          0.661              1.768              1.752
 Vibration    11          0.683              1.703              1.509
 Vibration    12          0.696              1.664              1.388
 Vibration    13          0.724              1.584              1.187
 Vibration    14          0.771              1.456              0.939
 Vibration    15          0.789              1.410              0.866
 Vibration    16          0.826              1.319              0.740
 Vibration    17          0.871              1.215              0.619
 Vibration    18          0.880              1.195              0.599
 Vibration    19          0.888              1.177              0.580
 Vibration    20          0.906              1.138              0.543
 Vibration    21          0.930              1.088              0.497
 Vibration    22          0.967              1.014              0.436

 Optimization completed.
    -- Stationary point found.
 Normal termination of Gaussian 16 at Fri Dec 11 13:40:02 2020.

 ----------------------------------------------------------------------
 # B3LYP/6-311++G(d,p) empiricaldispersion=gd3bj scf=xqc pop=npa geom=c
 heck
 ----------------------------------------------------------------------

 --------------------------------------
 CID_21200012_JID_7975_Energie_neutraal
 --------------------------------------
 Structure from the checkpoint file:  "JID_7975.chk"
 Charge =  0 Multiplicity = 1

 SCF Done:  E(RB3LYP) =  -1017.71934234     A.U. after   16 cycles
 Normal termination of Gaussian 16 at Fri Dec 11 13:46:37 2020.

 ----------------------------------------------------------------------
 # B3LYP/6-311++G(d,p) empiricaldispersion=gd3bj scf=xqc pop=npa geom=c
 heck
 ----------------------------------------------------------------------

 ------------------------------------
 CID_21200012_JID_7975_Energie_kation
 ------------------------------------
 Structure from the checkpoint file:  "JID_7975.chk"
 Charge =  1 Multiplicity = 2

 SCF Done:  E(UB3LYP) =  -1017.46092074     A.U. after   26 cycles
 Normal termination of Gaussian 16 at Fri Dec 11 14:01:45 2020.
 Gaussian 16:  ES64L-G16RevA.03 25-Dec-2016

 ----------------------------------------------------------------------
 # B3LYP/6-311++G(d,p) empiricaldispersion=gd3bj scf=xqc pop=npa geom=c
 heck
 ----------------------------------------------------------------------

 -----------------------------------
 CID_21200012_JID_7975_Energie_anion
 -----------------------------------
 Structure from the checkpoint file:  "JID_7975.chk"
 Charge = -1 Multiplicity = 2

                         Standard orientation:
 ---------------------------------------------------------------------
 Center     Atomic      Atomic             Coordinates (Angstroms)
 Number     Number       Type             X           Y           Z
 ---------------------------------------------------------------------
      1          6           0       -3.508985   -1.480582   -0.801653
      2          6           0       -3.021704   -0.079054   -0.410347
      3          6           0       -1.620490   -0.105239    0.178158
      4          6           0       -1.261111   -1.181481    0.917308
      5          6           0       -2.145197   -2.331187    1.071796
      6          6           0       -3.218940   -2.491680    0.279134
      7          6           0       -0.775109    1.085153    0.047409
      8          6           0       -1.297378    2.354285   -0.064354
      9         16           0       -0.082005    3.586886   -0.054429
     10          6           0        1.168157    2.391928    0.071931
     11          6           0        0.678195    1.110457    0.105909
     12          6           0        1.579378   -0.056326    0.091608
     13          6           0        2.597875   -0.181776    0.971517
     14          6           0        3.546341   -1.289661    0.882277
     15          6           0        3.634156   -2.026953   -0.237925
     16          6           0        2.753265   -1.702002   -1.420204
     17          6           0        1.400552   -1.138715   -0.965526
     18          1           0       -4.579284   -1.449499   -1.034382
     19          1           0       -3.002744   -1.800664   -1.728642
     20          1           0       -3.059773    0.584232   -1.280311
     21          1           0       -3.707600    0.346125    0.340928
     22          1           0       -0.307285   -1.190751    1.435717
     23          1           0       -1.893092   -3.074004    1.824536
     24          1           0       -3.848058   -3.374587    0.358941
     25          1           0       -2.341833    2.631795   -0.088723
     26          1           0        2.208790    2.682835    0.040268
     27          1           0        2.714759    0.545341    1.771101
     28          1           0        4.202699   -1.478843    1.728166
     29          1           0        4.371279   -2.820844   -0.329404
     30          1           0        2.592629   -2.588379   -2.044116
     31          1           0        3.272973   -0.966285   -2.057551
     32          1           0        0.840790   -0.746170   -1.820202
     33          1           0        0.793815   -1.953476   -0.547701
 ---------------------------------------------------------------------

 SCF Done:  E(UB3LYP) =  -1017.72035937     A.U. after   31 cycles

 The electronic state is 2-A.
 Alpha  occ. eigenvalues --  -88.74899 -10.06901 -10.05441 -10.05353 -10.05260
 Alpha  occ. eigenvalues --  -10.04478 -10.04365 -10.04279 -10.04177 -10.04139
 Alpha  occ. eigenvalues --  -10.03895 -10.03853 -10.03206 -10.02216 -10.02047
 Alpha  occ. eigenvalues --  -10.01423 -10.00880  -7.83517  -5.79791  -5.79448
 Alpha  occ. eigenvalues --   -5.79130  -0.75540  -0.71507  -0.70053  -0.64444
 Alpha  occ. eigenvalues --   -0.63012  -0.61623  -0.60291  -0.57984  -0.57050
 Alpha  occ. eigenvalues --   -0.49690  -0.48413  -0.47382  -0.45596  -0.43256
 Alpha  occ. eigenvalues --   -0.40807  -0.38844  -0.37309  -0.35979  -0.33878
 Alpha  occ. eigenvalues --   -0.32409  -0.31791  -0.31126  -0.29871  -0.29062
 Alpha  occ. eigenvalues --   -0.28057  -0.27191  -0.26306  -0.26206  -0.25651
 Alpha  occ. eigenvalues --   -0.24958  -0.24635  -0.23738  -0.22859  -0.20907
 Alpha  occ. eigenvalues --   -0.19732  -0.19283  -0.18726  -0.17908  -0.17255
 Alpha  occ. eigenvalues --   -0.13246  -0.12140  -0.08312  -0.06529   0.04903
 Alpha virt. eigenvalues --    0.07402   0.08083   0.08710   0.09444   0.09766
 Alpha virt. eigenvalues --    0.09900   0.10740   0.10873   0.11509   0.11697
 Alpha virt. eigenvalues --    0.11903   0.12182   0.13157   0.13350   0.13636

  Beta  occ. eigenvalues --  -88.74902 -10.06927 -10.05328 -10.05271 -10.05255
  Beta  occ. eigenvalues --  -10.04327 -10.04306 -10.04279 -10.04201 -10.04141
  Beta  occ. eigenvalues --  -10.03854 -10.03700 -10.03139 -10.02074 -10.02047
  Beta  occ. eigenvalues --  -10.01056 -10.00694  -7.83519  -5.79796  -5.79453
  Beta  occ. eigenvalues --   -5.79131  -0.75397  -0.71303  -0.69744  -0.64183
  Beta  occ. eigenvalues --   -0.62652  -0.61507  -0.60080  -0.57786  -0.56738
  Beta  occ. eigenvalues --   -0.49615  -0.48330  -0.47033  -0.45040  -0.43120
  Beta  occ. eigenvalues --   -0.40631  -0.38730  -0.37137  -0.35715  -0.33697
  Beta  occ. eigenvalues --   -0.32259  -0.31652  -0.30905  -0.29734  -0.28860
  Beta  occ. eigenvalues --   -0.27948  -0.27123  -0.26152  -0.26086  -0.25492
  Beta  occ. eigenvalues --   -0.24690  -0.24409  -0.23521  -0.22735  -0.20801
  Beta  occ. eigenvalues --   -0.19597  -0.19099  -0.18445  -0.17503  -0.16228
  Beta  occ. eigenvalues --   -0.12773  -0.11478  -0.07610  -0.05155
  Beta virt. eigenvalues --    0.08030   0.08657   0.08712   0.09367   0.09652
  Beta virt. eigenvalues --    0.09804   0.09871   0.10689   0.10869   0.11486
  Beta virt. eigenvalues --    0.11795   0.12021   0.12517   0.13117   0.13314

 Mulliken charges and spin densities:
               1          2
     1  C   -0.578124  -0.008894
     2  C   -0.524236   0.023723
     3  C    0.756699   0.052169
     4  C   -0.785568   0.187020
     5  C   -0.396597   0.009045
     6  C   -0.243524   0.257984
     7  C    0.175960   0.033662
     8  C    0.301159   0.154244
     9  S   -0.635895  -0.004936
    10  C    0.168962  -0.011974
    11  C   -0.105326  -0.011196
    12  C    0.807272   0.043292
    13  C   -0.527955   0.089532
    14  C   -0.368041   0.002845
    15  C   -0.117554   0.156551
    16  C   -0.696064  -0.036810
    17  C   -0.541018   0.021831
    18  H    0.113002   0.004941
    19  H    0.096421   0.017637
    20  H    0.122607   0.011461
    21  H    0.098165   0.013040
    22  H    0.212787  -0.013772
    23  H    0.111293   0.005569
    24  H    0.117014  -0.020912
    25  H    0.256353  -0.009715
    26  H    0.241199   0.003929
    27  H    0.152173  -0.002078
    28  H    0.121664  -0.001824
    29  H    0.128628  -0.008181
    30  H    0.120041   0.017114
    31  H    0.115998   0.005886
    32  H    0.160235  -0.001097
    33  H    0.142270   0.019914
 Sum of Mulliken charges =  -1.00000   1.00000

 Dipole moment (field-independent basis, Debye):
    X=              1.1671    Y=              1.4605    Z=             -1.4017  Tot=              2.3366
 Quadrupole moment (field-independent basis, Debye-Ang):
   XX=           -145.6420   YY=           -140.4078   ZZ=           -121.2668
   XY=             -3.2226   XZ=              3.2374   YZ=              2.2748

 Summary of Natural Population Analysis:

                                       Natural Population
                Natural  -----------------------------------------------
    Atom  No    Charge         Core      Valence    Rydberg      Total
 -----------------------------------------------------------------------
      C    1   -0.20335      0.99963     2.19673    0.00699     3.20335
      C    2   -0.19181      0.99962     2.18547    0.00673     3.19181
      C    3    0.00319      0.99947     1.98536    0.01198     2.99681
      C    4   -0.07501      0.99949     2.06362    0.01190     3.07501
      C    5   -0.12946      0.99954     2.12012    0.00980     3.12946
      C    6   -0.02062      0.99955     2.01119    0.00988     3.02062
      C    7   -0.03337      0.99944     2.02143    0.01250     3.03337
      C    8   -0.16096      0.99949     2.15232    0.00915     3.16096
      S    9    0.17208      4.99946     2.80388    0.02458     7.82792
      C   10   -0.20099      0.99947     2.19186    0.00966     3.20099
      C   11   -0.03607      0.99943     2.02244    0.01421     3.03607
      C   12    0.01940      0.99948     1.96542    0.01570     2.98060
      C   13   -0.11074      0.99947     2.10281    0.00846     3.11074
      C   14   -0.11996      0.99954     2.10983    0.01059     3.11996
      C   15   -0.06738      0.99959     2.05312    0.01467     3.06738
      C   16   -0.17718      0.99965     2.17340    0.00413     3.17718
      C   17   -0.19417      0.99963     2.18808    0.00646     3.19417
      H   18    0.09231      0.00000     0.40646    0.00123     0.40769
      H   19    0.09651      0.00000     0.40193    0.00157     0.40349
      H   20    0.09713      0.00000     0.40151    0.00135     0.40287
      H   21    0.09172      0.00000     0.40608    0.00219     0.40828
      H   22    0.09922      0.00000     0.39942    0.00136     0.40078
      H   23    0.09103      0.00000     0.40792    0.00105     0.40897
      H   24    0.08172      0.00000     0.41717    0.00111     0.41828
      H   25    0.10357      0.00000     0.39554    0.00089     0.39643
      H   26    0.10645      0.00000     0.39259    0.00096     0.39355
      H   27    0.09485      0.00000     0.40372    0.00143     0.40515
      H   28    0.09136      0.00000     0.40758    0.00106     0.40864
      H   29    0.08504      0.00000     0.41334    0.00162     0.41496
      H   30    0.09279      0.00000     0.40535    0.00186     0.40721
      H   31    0.09138      0.00000     0.40621    0.00241     0.40862
      H   32    0.09985      0.00000     0.39828    0.00186     0.40015
      H   33    0.11169      0.00000     0.38541    0.00290     0.38831
 =======================================================================
   * Total *    0.00023     20.99194    42.79558    0.21225    63.99977

 Normal termination of Gaussian 16 at Fri Dec 11 14:20:09 2020.
