 Gaussian 16, Revision A.03,

 -----------------------------------------------------------
 # opt freq B3LYP/6-31G(d) empiricaldispersion=gd3bj scf=xqc
 -----------------------------------------------------------

 -------------------------------
 CID_151972919_JID_3755_neutraal
 -------------------------------
 Symbolic Z-matrix:
 Charge =  0 Multiplicity = 1

 SCF Done:  E(RB3LYP) =  -539.538792526     A.U. after   14 cycles
 SCF Done:  E(RB3LYP) =  -539.541208328     A.U. after   13 cycles
 SCF Done:  E(RB3LYP) =  -539.541356366     A.U. after   12 cycles
 SCF Done:  E(RB3LYP) =  -539.541387580     A.U. after   11 cycles
 SCF Done:  E(RB3LYP) =  -539.541400282     A.U. after   10 cycles
 SCF Done:  E(RB3LYP) =  -539.541400279     A.U. after    8 cycles
 SCF Done:  E(RB3LYP) =  -539.541401136     A.U. after    8 cycles
 SCF Done:  E(RB3LYP) =  -539.541401224     A.U. after    7 cycles
 Optimization completed.
    -- Stationary point found.
 Normal termination of Gaussian 16 at Sun Dec 13 12:18:27 2020.

 --------------------------------------------------------------------
 #N Geom=AllCheck Guess=TCheck SCRF=Check GenChk RB3LYP/6-31G(d) Freq
 --------------------------------------------------------------------

 Structure from the checkpoint file:  "JID_3755.chk"
 -------------------------------
 CID_151972919_JID_3755_neutraal
 -------------------------------
 Charge =  0 Multiplicity = 1

 SCF Done:  E(RB3LYP) =  -539.541401224     A.U. after    1 cycles

  Exact polarizability: 152.638  -7.448 119.199 -15.907  -3.404  96.065
 Approx polarizability: 192.876 -12.224 201.050 -32.476 -13.677 152.329

                      1                      2                      3
                      A                      A                      A
 Frequencies --     30.7052                46.3655                47.9844
 Red. masses --      4.0367                 4.1906                 3.4018
 Frc consts  --      0.0022                 0.0053                 0.0046
 IR Inten    --      3.2618                 3.1674                 0.2566

                      4                      5                      6
                      A                      A                      A
 Frequencies --     68.5448                99.5099               138.6550
 Red. masses --      3.5545                 2.7298                 2.9128
 Frc consts  --      0.0098                 0.0159                 0.0330
 IR Inten    --      0.6138                 0.5198                 1.1494

                      7                      8                      9
                      A                      A                      A
 Frequencies --    176.9217               229.4182               264.8795
 Red. masses --      2.2597                 1.5290                 2.9128
 Frc consts  --      0.0417                 0.0474                 0.1204
 IR Inten    --      1.7116                 0.7432                 1.2628

                     10                     11                     12
                      A                      A                      A
 Frequencies --    295.0671               343.7575               375.7266
 Red. masses --      1.7079                 2.1685                 2.2660
 Frc consts  --      0.0876                 0.1510                 0.1885
 IR Inten    --      0.5798                 0.3048                 1.9557

                     13                     14                     15
                      A                      A                      A
 Frequencies --    381.5696               390.2091               450.5243
 Red. masses --      3.7229                 1.8777                 1.9798
 Frc consts  --      0.3194                 0.1685                 0.2368
 IR Inten    --      1.3489                 0.6763                 1.0406

                     16                     17                     18
                      A                      A                      A
 Frequencies --    514.2864               537.6703               617.1713
 Red. masses --      3.5934                 2.6931                 3.1277
 Frc consts  --      0.5600                 0.4587                 0.7019
 IR Inten    --      0.2302                 0.1823                 0.2984

                     19                     20                     21
                      A                      A                      A
 Frequencies --    647.3938               721.0957               745.9905
 Red. masses --      7.6112                 1.2985                 1.6612
 Frc consts  --      1.8795                 0.3978                 0.5447
 IR Inten    --      0.1546                17.7454                 0.0713

                     22                     23                     24
                      A                      A                      A
 Frequencies --    771.1718               800.2338               806.3909
 Red. masses --      2.5744                 1.9187                 2.3544
 Frc consts  --      0.9020                 0.7239                 0.9020
 IR Inten    --      4.4867                 7.7949                 3.5116

                     25                     26                     27
                      A                      A                      A
 Frequencies --    829.7829               853.5114               882.7382
 Red. masses --      1.8618                 2.3563                 1.6732
 Frc consts  --      0.7553                 1.0113                 0.7682
 IR Inten    --      6.0367                 8.6501                 1.3461

                     28                     29                     30
                      A                      A                      A
 Frequencies --    924.7470               955.6926               962.1399
 Red. masses --      1.8088                 1.3756                 1.7248
 Frc consts  --      0.9113                 0.7402                 0.9407
 IR Inten    --      0.5308                 0.0876                 0.5592

                     31                     32                     33
                      A                      A                      A
 Frequencies --    982.0567              1004.0135              1023.8061
 Red. masses --      1.7036                 1.3098                 1.8310
 Frc consts  --      0.9680                 0.7779                 1.1308
 IR Inten    --      0.4855                 0.0617                 1.8729

                     34                     35                     36
                      A                      A                      A
 Frequencies --   1043.6560              1044.9491              1066.4463
 Red. masses --      1.5799                 5.1247                 1.8174
 Frc consts  --      1.0139                 3.2969                 1.2178
 IR Inten    --      2.3976                 2.2746                 0.0964

                     37                     38                     39
                      A                      A                      A
 Frequencies --   1075.9794              1105.3857              1118.9024
 Red. masses --      2.5316                 1.9397                 1.6261
 Frc consts  --      1.7269                 1.3964                 1.1994
 IR Inten    --      0.7368                 1.2442                 3.4549

                     40                     41                     42
                      A                      A                      A
 Frequencies --   1134.1864              1145.9606              1182.1256
 Red. masses --      2.0722                 1.8598                 2.0661
 Frc consts  --      1.5706                 1.4390                 1.7011
 IR Inten    --      8.6129                 1.7897                 0.6390

                     43                     44                     45
                      A                      A                      A
 Frequencies --   1197.2824              1213.8392              1234.7734
 Red. masses --      1.3334                 1.3144                 2.2597
 Frc consts  --      1.1262                 1.1410                 2.0299
 IR Inten    --      0.0911                 3.9289                 2.1563

                     46                     47                     48
                      A                      A                      A
 Frequencies --   1258.6514              1288.4766              1294.6398
 Red. masses --      1.5317                 1.6869                 1.3140
 Frc consts  --      1.4297                 1.6500                 1.2976
 IR Inten    --      1.3232                 5.3028                 3.4146

                     49                     50                     51
                      A                      A                      A
 Frequencies --   1323.6543              1350.7079              1371.2513
 Red. masses --      1.1696                 1.1421                 1.4796
 Frc consts  --      1.2074                 1.2276                 1.6391
 IR Inten    --      2.5549                 2.5910                 1.5603

                     52                     53                     54
                      A                      A                      A
 Frequencies --   1381.0962              1398.1186              1402.7826
 Red. masses --      1.3714                 1.4764                 1.3722
 Frc consts  --      1.5412                 1.7004                 1.5909
 IR Inten    --     13.4102                 2.3999                 1.1096

                     55                     56                     57
                      A                      A                      A
 Frequencies --   1424.2604              1426.4263              1443.1814
 Red. masses --      1.4267                 1.4156                 1.3696
 Frc consts  --      1.7052                 1.6971                 1.6807
 IR Inten    --      1.8232                 2.2188                 4.2240

                     58                     59                     60
                      A                      A                      A
 Frequencies --   1445.2902              1481.2694              1505.8866
 Red. masses --      2.1397                 2.1379                 1.0801
 Frc consts  --      2.6334                 2.7638                 1.4431
 IR Inten    --     13.5764                21.9327                 1.0369

                     61                     62                     63
                      A                      A                      A
 Frequencies --   1515.4745              1518.1463              1524.6339
 Red. masses --      1.1026                 1.0954                 1.0648
 Frc consts  --      1.4919                 1.4875                 1.4583
 IR Inten    --      5.9114                 2.3882                 5.8295

                     64                     65                     66
                      A                      A                      A
 Frequencies --   1530.8025              1534.8615              1538.0120
 Red. masses --      1.0594                 1.0752                 1.0788
 Frc consts  --      1.4627                 1.4924                 1.5035
 IR Inten    --      6.3048                 4.9222                 7.6093

                     67                     68                     69
                      A                      A                      A
 Frequencies --   1548.6248              1609.3440              1639.0752
 Red. masses --      1.0798                 5.1668                 5.3748
 Frc consts  --      1.5258                 7.8844                 8.5076
 IR Inten    --      0.5670                 1.8282                14.8530

                     70                     71                     72
                      A                      A                      A
 Frequencies --   3026.8096              3031.2022              3033.9405
 Red. masses --      1.0609                 1.0644                 1.0643
 Frc consts  --      5.7268                 5.7622                 5.7718
 IR Inten    --     32.7527                22.2071                15.9873

                     73                     74                     75
                      A                      A                      A
 Frequencies --   3040.0415              3044.5883              3050.0044
 Red. masses --      1.0639                 1.0409                 1.0660
 Frc consts  --      5.7929                 5.6848                 5.8429
 IR Inten    --     16.9675                12.1636                22.5862

                     76                     77                     78
                      A                      A                      A
 Frequencies --   3054.1669              3059.8008              3065.6233
 Red. masses --      1.0701                 1.0914                 1.1015
 Frc consts  --      5.8812                 6.0206                 6.0994
 IR Inten    --     27.0812                32.3363                23.2861

                     79                     80                     81
                      A                      A                      A
 Frequencies --   3069.2754              3083.0155              3094.7555
 Red. masses --      1.0974                 1.0991                 1.0993
 Frc consts  --      6.0912                 6.1549                 6.2030
 IR Inten    --     81.0350                62.6338                53.1633

                     82                     83                     84
                      A                      A                      A
 Frequencies --   3108.7445              3116.6999              3124.7498
 Red. masses --      1.1017                 1.1018                 1.0957
 Frc consts  --      6.2732                 6.3058                 6.3032
 IR Inten    --     46.7982                51.8641                17.1138

                     85                     86                     87
                      A                      A                      A
 Frequencies --   3190.5763              3198.3279              3215.4209
 Red. masses --      1.0870                 1.0916                 1.0984
 Frc consts  --      6.5198                 6.5792                 6.6912
 IR Inten    --      0.0203                20.7905                17.2575

 - Thermochemistry -
 -------------------
 Temperature   298.150 Kelvin.  Pressure   1.00000 Atm.
 Atom     1 has atomic number  6 and mass  12.00000

 Molecular mass:   178.14700 amu.
 Principal axes and moments of inertia in atomic units:
                           1         2         3
     Eigenvalues --   921.519065300.596055594.29765
           X            0.99995   0.00946  -0.00148
           Y           -0.00941   0.99949   0.03060
           Z            0.00177  -0.03059   0.99953
 This molecule is an asymmetric top.
 Rotational symmetry number  1.
 Warning -- assumption of classical behavior for rotation
           may cause significant error
 Rotational temperatures (Kelvin)      0.09399     0.01634     0.01548
 Rotational constants (GHZ):           1.95844     0.34048     0.32260
 Zero-point vibrational energy     728798.7 (Joules/Mol)
                                  174.18707 (Kcal/Mol)
 Warning -- explicit consideration of  18 degrees of freedom as
           vibrations may cause significant error
 Vibrational temperatures:     44.18    66.71    69.04    98.62   143.17
          (Kelvin)            199.49   254.55   330.08   381.10   424.54
                              494.59   540.59   548.99   561.42   648.20
                              739.94   773.59   887.97   931.46  1037.50
                             1073.31  1109.54  1151.36  1160.22  1193.87
                             1228.01  1270.06  1330.50  1375.03  1384.30
                             1412.96  1444.55  1473.03  1501.59  1503.45
                             1534.38  1548.09  1590.40  1609.85  1631.84
                             1648.78  1700.82  1722.62  1746.44  1776.56
                             1810.92  1853.83  1862.70  1904.44  1943.37
                             1972.92  1987.09  2011.58  2018.29  2049.19
                             2052.31  2076.42  2079.45  2131.22  2166.63
                             2180.43  2184.27  2193.61  2202.48  2208.32
                             2212.86  2228.13  2315.49  2358.26  4354.90
                             4361.22  4365.16  4373.94  4380.48  4388.28
                             4394.26  4402.37  4410.75  4416.00  4435.77
                             4452.66  4472.79  4484.24  4495.82  4590.53
                             4601.68  4626.27

 Zero-point correction=                           0.277585 (Hartree/Particle)
 Thermal correction to Energy=                    0.290798
 Thermal correction to Enthalpy=                  0.291742
 Thermal correction to Gibbs Free Energy=         0.236148
 Sum of electronic and zero-point Energies=           -539.263816
 Sum of electronic and thermal Energies=              -539.250603
 Sum of electronic and thermal Enthalpies=            -539.249659
 Sum of electronic and thermal Free Energies=         -539.305253

                     E (Thermal)             CV                S
                      KCal/Mol        Cal/Mol-Kelvin    Cal/Mol-Kelvin
 Total                  182.478             49.650            117.007
 Electronic               0.000              0.000              0.000
 Translational            0.889              2.981             41.439
 Rotational               0.889              2.981             31.680
 Vibrational            180.701             43.688             43.888
 Vibration     1          0.594              1.984              5.783
 Vibration     2          0.595              1.979              4.967
 Vibration     3          0.595              1.978              4.899
 Vibration     4          0.598              1.969              4.195
 Vibration     5          0.604              1.949              3.464
 Vibration     6          0.614              1.915              2.822
 Vibration     7          0.628              1.871              2.361
 Vibration     8          0.652              1.796              1.883
 Vibration     9          0.671              1.737              1.629
 Vibration    10          0.689              1.683              1.445
 Vibration    11          0.723              1.588              1.195
 Vibration    12          0.747              1.522              1.056
 Vibration    13          0.751              1.509              1.033
 Vibration    14          0.758              1.491              0.999
 Vibration    15          0.809              1.360              0.794
 Vibration    16          0.869              1.218              0.623
 Vibration    17          0.893              1.167              0.570
 Vibration    18          0.977              0.996              0.421

                           ! Non-Optimized Parameters !
 Normal termination of Gaussian 16 at Sun Dec 13 12:25:36 2020.

 ----------------------------------------------------------------------
 # B3LYP/6-311++G(d,p) empiricaldispersion=gd3bj scf=xqc pop=npa geom=c
 heck
 ----------------------------------------------------------------------

 ---------------------------------------
 CID_151972919_JID_3755_Energie_neutraal
 ---------------------------------------
 Structure from the checkpoint file:  "JID_3755.chk"
 Charge =  0 Multiplicity = 1

 SCF Done:  E(RB3LYP) =  -539.684414468     A.U. after   14 cycles
 Normal termination of Gaussian 16 at Sun Dec 13 12:28:28 2020.

 ----------------------------------------------------------------------
 # B3LYP/6-311++G(d,p) empiricaldispersion=gd3bj scf=xqc pop=npa geom=c
 heck
 ----------------------------------------------------------------------

 -------------------------------------
 CID_151972919_JID_3755_Energie_kation
 -------------------------------------
 Structure from the checkpoint file:  "JID_3755.chk"
 Charge =  1 Multiplicity = 2

 SCF Done:  E(UB3LYP) =  -539.365424666     A.U. after   26 cycles
 Normal termination of Gaussian 16 at Sun Dec 13 12:35:26 2020.
 Gaussian 16:  ES64L-G16RevA.03 25-Dec-2016

 ----------------------------------------------------------------------
 # B3LYP/6-311++G(d,p) empiricaldispersion=gd3bj scf=xqc pop=npa geom=c
 heck
 ----------------------------------------------------------------------

 ------------------------------------
 CID_151972919_JID_3755_Energie_anion
 ------------------------------------
 Structure from the checkpoint file:  "JID_3755.chk"
 Charge = -1 Multiplicity = 2

                         Standard orientation:
 ---------------------------------------------------------------------
 Center     Atomic      Atomic             Coordinates (Angstroms)
 Number     Number       Type             X           Y           Z
 ---------------------------------------------------------------------
      1          6           0       -4.621813   -0.671179   -0.845109
      2          6           0       -3.956969    0.283895    0.150538
      3          6           0       -2.779639   -0.337783    0.917735
      4          6           0       -1.618509   -0.836868    0.043590
      5          6           0       -0.995103    0.225359   -0.875571
      6          6           0       -0.486218    1.485865   -0.160879
      7          6           0        0.545800    1.215003    0.954579
      8          6           0        1.753570    0.464576    0.457967
      9          7           0        1.825770   -0.833342    0.789258
     10          7           0        2.843362   -1.584257    0.361484
     11          6           0        3.790529   -1.033973   -0.398908
     12          6           0        3.784616    0.311205   -0.783138
     13          6           0        2.729633    1.084059   -0.339637
     14          1           0       -3.934281   -0.963681   -1.646361
     15          1           0       -5.497398   -0.208268   -1.314032
     16          1           0       -4.955734   -1.589133   -0.345638
     17          1           0       -3.621038    1.185063   -0.380023
     18          1           0       -4.706039    0.625293    0.877253
     19          1           0       -2.404273    0.397112    1.642898
     20          1           0       -3.152053   -1.182305    1.514073
     21          1           0       -0.836418   -1.253274    0.688590
     22          1           0       -1.964137   -1.670197   -0.581151
     23          1           0       -0.163317   -0.237345   -1.422033
     24          1           0       -1.722275    0.534604   -1.637668
     25          1           0       -0.040071    2.159814   -0.905045
     26          1           0       -1.327052    2.034488    0.280842
     27          1           0        0.861760    2.173444    1.385920
     28          1           0        0.092490    0.627695    1.757426
     29          1           0        4.585398   -1.708271   -0.707060
     30          1           0        4.579436    0.719200   -1.400364
     31          1           0        2.645700    2.138005   -0.589821
 ---------------------------------------------------------------------

 SCF Done:  E(UB3LYP) =  -539.681933573     A.U. after   33 cycles
 SCF Done:  E(UB3LYP) =  -539.681933573     a.u. after    1 cycles

 The electronic state is 2-A.
 Alpha  occ. eigenvalues --  -14.17781 -14.17306 -10.07228 -10.06398 -10.06305
 Alpha  occ. eigenvalues --  -10.05868 -10.05793 -10.05788 -10.05132 -10.05097
 Alpha  occ. eigenvalues --  -10.04648 -10.04234 -10.03416  -0.85816  -0.71136
 Alpha  occ. eigenvalues --   -0.69264  -0.66978  -0.65854  -0.61643  -0.57562
 Alpha  occ. eigenvalues --   -0.53491  -0.51217  -0.49680  -0.46627  -0.42961
 Alpha  occ. eigenvalues --   -0.37988  -0.37371  -0.36950  -0.35804  -0.33751
 Alpha  occ. eigenvalues --   -0.32668  -0.31364  -0.30159  -0.28369  -0.28262
 Alpha  occ. eigenvalues --   -0.27772  -0.26914  -0.26697  -0.24765  -0.24175
 Alpha  occ. eigenvalues --   -0.23623  -0.23313  -0.20748  -0.20373  -0.20176
 Alpha  occ. eigenvalues --   -0.16390  -0.15912  -0.14048  -0.08461   0.04819
 Alpha virt. eigenvalues --    0.06125   0.07764   0.08295   0.08700   0.09222
 Alpha virt. eigenvalues --    0.10020   0.10400   0.11268   0.11481   0.11828
 Alpha virt. eigenvalues --    0.11988   0.12730   0.12856   0.13657   0.14423

  Beta  occ. eigenvalues --  -14.17477 -14.16820 -10.07318 -10.06465 -10.06291
  Beta  occ. eigenvalues --  -10.05842 -10.05792 -10.05790 -10.05122 -10.05093
  Beta  occ. eigenvalues --  -10.04644 -10.04043 -10.03098  -0.85131  -0.71047
  Beta  occ. eigenvalues --   -0.69090  -0.66455  -0.65655  -0.61539  -0.57496
  Beta  occ. eigenvalues --   -0.53441  -0.50490  -0.49584  -0.46537  -0.42923
  Beta  occ. eigenvalues --   -0.37884  -0.37200  -0.36895  -0.35685  -0.33651
  Beta  occ. eigenvalues --   -0.32604  -0.31230  -0.30117  -0.28214  -0.27966
  Beta  occ. eigenvalues --   -0.27676  -0.26547  -0.26059  -0.24672  -0.24127
  Beta  occ. eigenvalues --   -0.23489  -0.23259  -0.20715  -0.20345  -0.20147
  Beta  occ. eigenvalues --   -0.15521  -0.14315  -0.12962  -0.07910
  Beta virt. eigenvalues --    0.06821   0.07850   0.08368   0.08819   0.09406
  Beta virt. eigenvalues --    0.10150   0.10356   0.10651   0.11392   0.11488
  Beta virt. eigenvalues --    0.11999   0.12050   0.12668   0.12978   0.13690

 Mulliken charges and spin densities:
               1          2
     1  C    0.640854  -1.275864
     2  C   -0.545949   0.356543
     3  C   -0.196149  -0.034421
     4  C   -0.176809  -0.271784
     5  C    0.087933  -0.180909
     6  C   -0.272961  -0.064389
     7  C   -0.371070  -0.066332
     8  C    0.125621  -0.219252
     9  N   -0.007814   0.148708
    10  N   -0.140626   0.201986
    11  C   -0.274808  -0.009314
    12  C   -0.213905  -0.037596
    13  C   -0.274573   0.528597
    14  H   -0.021139   0.156460
    15  H   -0.440720   0.576487
    16  H    0.022298   0.105540
    17  H    0.125997  -0.010272
    18  H   -0.344997   0.489067
    19  H    0.132093  -0.001629
    20  H    0.036354   0.104132
    21  H    0.228897  -0.008802
    22  H    0.132196   0.000975
    23  H    0.186803  -0.053908
    24  H    0.026047   0.146207
    25  H    0.128367   0.001498
    26  H    0.000975   0.135574
    27  H    0.008323   0.150112
    28  H    0.187026  -0.009723
    29  H    0.126836   0.012234
    30  H    0.087378   0.017891
    31  H   -0.002475   0.112183
 Sum of Mulliken charges =  -1.00000   1.00000

 Dipole moment (field-independent basis, Debye):
    X=              0.9433    Y=              2.1788    Z=             -0.7443  Tot=              2.4881
 Quadrupole moment (field-independent basis, Debye-Ang):
   XX=           -163.9110   YY=           -105.6322   ZZ=           -100.1426
   XY=              7.3148   XZ=             -9.0071   YZ=              2.1309

 Summary of Natural Population Analysis:

                                       Natural Population
                Natural  -----------------------------------------------
    Atom  No    Charge         Core      Valence    Rydberg      Total
 -----------------------------------------------------------------------
      C    1   -0.28795      0.99967     2.28250    0.00579     3.28795
      C    2   -0.19391      0.99964     2.18555    0.00872     3.19391
      C    3   -0.19064      0.99963     2.18246    0.00856     3.19064
      C    4   -0.20008      0.99963     2.19256    0.00789     3.20008
      C    5   -0.19482      0.99963     2.18681    0.00838     3.19482
      C    6   -0.18681      0.99963     2.17925    0.00793     3.18681
      C    7   -0.20514      0.99959     2.19525    0.01029     3.20514
      C    8    0.07199      0.99954     1.91194    0.01653     2.92801
      N    9   -0.11195      0.99968     2.59306    0.01922     3.61195
      N   10   -0.07007      0.99973     2.55482    0.01552     3.57007
      C   11   -0.01602      0.99961     2.00240    0.01400     3.01602
      C   12   -0.07983      0.99956     2.07061    0.00966     3.07983
      C   13   -0.05948      0.99950     2.05109    0.00888     3.05948
      H   14    0.09640      0.00000     0.40273    0.00087     0.40360
      H   15    0.09886      0.00000     0.39990    0.00124     0.40114
      H   16    0.09384      0.00000     0.40525    0.00091     0.40616
      H   17    0.09348      0.00000     0.40540    0.00112     0.40652
      H   18    0.09381      0.00000     0.40505    0.00114     0.40619
      H   19    0.09471      0.00000     0.40420    0.00110     0.40529
      H   20    0.09324      0.00000     0.40576    0.00099     0.40676
      H   21    0.11386      0.00000     0.38448    0.00166     0.38614
      H   22    0.09326      0.00000     0.40571    0.00102     0.40674
      H   23    0.10373      0.00000     0.39515    0.00112     0.39627
      H   24    0.09234      0.00000     0.40674    0.00092     0.40766
      H   25    0.09496      0.00000     0.40394    0.00110     0.40504
      H   26    0.09222      0.00000     0.40666    0.00112     0.40778
      H   27    0.09832      0.00000     0.40069    0.00098     0.40168
      H   28    0.10453      0.00000     0.39379    0.00168     0.39547
      H   29    0.08359      0.00000     0.41514    0.00128     0.41641
      H   30    0.09192      0.00000     0.40687    0.00121     0.40808
      H   31    0.09165      0.00000     0.40722    0.00113     0.40835
 =======================================================================
   * Total *   -0.00000     12.99504    35.84298    0.16198    49.00000

 Normal termination of Gaussian 16 at Sun Dec 13 12:44:23 2020.
