 Gaussian 16, Revision A.03,

 -----------------------------------------------------------
 # opt freq B3LYP/6-31G(d) empiricaldispersion=gd3bj scf=xqc
 -----------------------------------------------------------

 -------------------------------
 CID_141884933_JID_4522_neutraal
 -------------------------------
 Symbolic Z-matrix:
 Charge =  0 Multiplicity = 1

 SCF Done:  E(RB3LYP) =  -706.460125790     A.U. after   15 cycles
 SCF Done:  E(RB3LYP) =  -706.465085192     A.U. after   12 cycles
 SCF Done:  E(RB3LYP) =  -706.465274785     A.U. after   13 cycles
 SCF Done:  E(RB3LYP) =  -706.466688016     A.U. after   13 cycles
 SCF Done:  E(RB3LYP) =  -706.466500010     A.U. after   13 cycles
 SCF Done:  E(RB3LYP) =  -706.467754418     A.U. after   12 cycles
 SCF Done:  E(RB3LYP) =  -706.468402262     A.U. after   13 cycles
 SCF Done:  E(RB3LYP) =  -706.468720207     A.U. after   13 cycles
 SCF Done:  E(RB3LYP) =  -706.468859561     A.U. after   11 cycles
 SCF Done:  E(RB3LYP) =  -706.468958472     A.U. after   12 cycles
 SCF Done:  E(RB3LYP) =  -706.469360286     A.U. after    8 cycles
 SCF Done:  E(RB3LYP) =  -706.469362322     A.U. after    9 cycles
 SCF Done:  E(RB3LYP) =  -706.469362994     A.U. after    8 cycles
 SCF Done:  E(RB3LYP) =  -706.469363674     A.U. after    8 cycles
 SCF Done:  E(RB3LYP) =  -706.469364241     A.U. after    8 cycles
 SCF Done:  E(RB3LYP) =  -706.469364345     A.U. after    8 cycles
 Optimization completed.
    -- Stationary point found.
 Normal termination of Gaussian 16 at Thu Dec 10 10:17:09 2020.

 --------------------------------------------------------------------
 #N Geom=AllCheck Guess=TCheck SCRF=Check GenChk RB3LYP/6-31G(d) Freq
 --------------------------------------------------------------------

 Structure from the checkpoint file:  "JID_4522.chk"
 -------------------------------
 CID_141884933_JID_4522_neutraal
 -------------------------------
 Charge =  0 Multiplicity = 1

 SCF Done:  E(RB3LYP) =  -706.469364345     A.U. after    1 cycles

  Exact polarizability: 107.495  -3.289 134.528 -26.804   0.084 101.204
 Approx polarizability: 163.583 -19.366 210.071 -56.816   6.877 161.358

                      1                      2                      3
                      A                      A                      A
 Frequencies --     18.3448                36.6762                45.9091
 Red. masses --      4.2225                 4.1608                 2.3017
 Frc consts  --      0.0008                 0.0033                 0.0029
 IR Inten    --      0.3449                 1.1942                 0.1996

                      4                      5                      6
                      A                      A                      A
 Frequencies --     54.8563                56.6460                71.8956
 Red. masses --      2.1545                 4.1127                 2.0685
 Frc consts  --      0.0038                 0.0078                 0.0063
 IR Inten    --      0.4983                 0.4348                 0.0579

                      7                      8                      9
                      A                      A                      A
 Frequencies --     82.1434                93.1374               100.4240
 Red. masses --      1.8800                 6.4699                 3.8238
 Frc consts  --      0.0075                 0.0331                 0.0227
 IR Inten    --      0.1500                 0.7380                 1.0289

                     10                     11                     12
                      A                      A                      A
 Frequencies --    138.6073               199.0814               216.0664
 Red. masses --      3.9954                 8.0520                 3.8519
 Frc consts  --      0.0452                 0.1880                 0.1059
 IR Inten    --      7.7088                 1.1557                 3.7141

                     13                     14                     15
                      A                      A                      A
 Frequencies --    235.5499               321.9235               331.1078
 Red. masses --      4.7493                 1.0089                 7.3609
 Frc consts  --      0.1553                 0.0616                 0.4755
 IR Inten    --      2.3546                 0.0329                 2.6562

                     16                     17                     18
                      A                      A                      A
 Frequencies --    380.1602               405.3750               442.7918
 Red. masses --      4.9964                 4.0666                 1.8887
 Frc consts  --      0.4254                 0.3937                 0.2182
 IR Inten    --     12.2464                21.1614                67.3231

                     19                     20                     21
                      A                      A                      A
 Frequencies --    467.2342               542.3407               560.0423
 Red. masses --      2.4866                 2.9369                 1.7319
 Frc consts  --      0.3198                 0.5090                 0.3200
 IR Inten    --     36.4193                23.3441                26.2477

                     22                     23                     24
                      A                      A                      A
 Frequencies --    602.8000               613.5597               631.4848
 Red. masses --      1.5801                 4.3168                 3.4347
 Frc consts  --      0.3383                 0.9575                 0.8070
 IR Inten    --     54.0503                70.4982                50.2343

                     25                     26                     27
                      A                      A                      A
 Frequencies --    660.8827               728.6594               733.1320
 Red. masses --      1.8818                 1.9140                 3.5796
 Frc consts  --      0.4842                 0.5988                 1.1336
 IR Inten    --     52.9462                39.5437                20.7324

                     28                     29                     30
                      A                      A                      A
 Frequencies --    766.8763               784.5755               811.9709
 Red. masses --      5.6238                 6.0659                 5.2504
 Frc consts  --      1.9486                 2.2000                 2.0395
 IR Inten    --     40.5385                33.7383                 3.2243

                     31                     32                     33
                      A                      A                      A
 Frequencies --    837.4510               842.2075               932.9779
 Red. masses --      1.0586                 1.0584                 2.5684
 Frc consts  --      0.4374                 0.4423                 1.3172
 IR Inten    --      3.9279                 4.1002                 2.4578

                     34                     35                     36
                      A                      A                      A
 Frequencies --    990.5045              1014.2986              1016.5208
 Red. masses --      1.2814                 3.2675                 2.4468
 Frc consts  --      0.7407                 1.9806                 1.4896
 IR Inten    --      1.4362                 0.1009                12.8178

                     37                     38                     39
                      A                      A                      A
 Frequencies --   1076.6854              1091.1878              1117.8478
 Red. masses --      2.7684                 3.6714                 5.3839
 Frc consts  --      1.8908                 2.5756                 3.9638
 IR Inten    --     20.3628                98.9627               175.6233

                     40                     41                     42
                      A                      A                      A
 Frequencies --   1179.9160              1206.4519              1235.2631
 Red. masses --      2.0064                 1.1709                 1.4634
 Frc consts  --      1.6457                 1.0042                 1.3156
 IR Inten    --    246.0000                61.8771                 0.1798

                     43                     44                     45
                      A                      A                      A
 Frequencies --   1238.7587              1243.3793              1273.1271
 Red. masses --      1.4582                 1.7641                 1.1207
 Frc consts  --      1.3184                 1.6068                 1.0703
 IR Inten    --      0.2391               149.1800                 0.9938

                     46                     47                     48
                      A                      A                      A
 Frequencies --   1297.3676              1368.5145              1383.5788
 Red. masses --      2.1355                 1.8489                 1.8616
 Frc consts  --      2.1178                 2.0402                 2.0997
 IR Inten    --     42.7010                89.3499                36.4043

                     49                     50                     51
                      A                      A                      A
 Frequencies --   1405.7732              1436.2345              1445.1981
 Red. masses --      2.4082                 1.1999                 2.5372
 Frc consts  --      2.8040                 1.4583                 3.1222
 IR Inten    --     81.5074                 1.1610                51.4880

                     52                     53                     54
                      A                      A                      A
 Frequencies --   1457.9410              1531.9096              1533.8862
 Red. masses --      1.2504                 1.0476                 1.0319
 Frc consts  --      1.5660                 1.4485                 1.4304
 IR Inten    --      4.0040                 8.3425                 2.1720

                     55                     56                     57
                      A                      A                      A
 Frequencies --   1536.1838              1541.2273              1544.5967
 Red. masses --      1.0845                 1.1001                 1.0529
 Frc consts  --      1.5079                 1.5396                 1.4800
 IR Inten    --      1.7057                25.4334                 5.7253

                     58                     59                     60
                      A                      A                      A
 Frequencies --   1570.1776              1628.8507              1709.3696
 Red. masses --      1.7350                 6.1897                 6.6880
 Frc consts  --      2.5203                 9.6757                11.5137
 IR Inten    --    106.2846                34.7049                44.4531

                     61                     62                     63
                      A                      A                      A
 Frequencies --   1804.8698              1852.3568              2928.6698
 Red. masses --      9.5822                10.4321                 1.0750
 Frc consts  --     18.3911                21.0897                 5.4326
 IR Inten    --    387.5247               247.6211               112.9746

                     64                     65                     66
                      A                      A                      A
 Frequencies --   3046.1356              3050.7684              3077.6702
 Red. masses --      1.0358                 1.0377                 1.0872
 Frc consts  --      5.6628                 5.6906                 6.0672
 IR Inten    --     30.4310                41.4191                40.8799

                     67                     68                     69
                      A                      A                      A
 Frequencies --   3097.6573              3103.2029              3121.9173
 Red. masses --      1.1004                 1.1018                 1.1022
 Frc consts  --      6.2212                 6.2516                 6.3291
 IR Inten    --      0.9052                17.6177                56.6243

                     70                     71                     72
                      A                      A                      A
 Frequencies --   3135.1768              3205.7540              3226.7388
 Red. masses --      1.1018                 1.0870                 1.0965
 Frc consts  --      6.3811                 6.5816                 6.7264
 IR Inten    --     29.2745                 3.7300                 8.4749

                     73                     74                     75
                      A                      A                      A
 Frequencies --   3641.0123              3695.4179              3695.8730
 Red. masses --      1.0769                 1.0641                 1.0641
 Frc consts  --      8.4115                 8.5617                 8.5639
 IR Inten    --     82.4374                62.9745                85.3769

 - Thermochemistry -
 -------------------
 Temperature   298.150 Kelvin.  Pressure   1.00000 Atm.
 Atom     1 has atomic number  6 and mass  12.00000

 Molecular mass:   199.08446 amu.
 Principal axes and moments of inertia in atomic units:
                           1         2         3
     Eigenvalues --  2925.594583363.279603688.80834
           X            0.99476   0.06108   0.08203
           Y           -0.06212   0.99802   0.01018
           Z           -0.08125  -0.01522   0.99658
 This molecule is an asymmetric top.
 Rotational symmetry number  1.
 Warning -- assumption of classical behavior for rotation
           may cause significant error
 Rotational temperatures (Kelvin)      0.02961     0.02575     0.02348
 Rotational constants (GHZ):           0.61688     0.53660     0.48925
 Zero-point vibrational energy     571245.9 (Joules/Mol)
                                  136.53106 (Kcal/Mol)
 Warning -- explicit consideration of  23 degrees of freedom as
           vibrations may cause significant error
 Vibrational temperatures:     26.39    52.77    66.05    78.93    81.50
          (Kelvin)            103.44   118.19   134.00   144.49   199.42
                              286.43   310.87   338.90   463.18   476.39
                              546.97   583.24   637.08   672.25   780.31
                              805.78   867.29   882.78   908.57   950.86
                             1048.38  1054.81  1103.36  1128.83  1168.25
                             1204.91  1211.75  1342.35  1425.12  1459.35
                             1462.55  1549.11  1569.98  1608.33  1697.64
                             1735.82  1777.27  1782.30  1788.95  1831.75
                             1866.62  1968.99  1990.66  2022.59  2066.42
                             2079.32  2097.65  2204.08  2206.92  2210.23
                             2217.48  2222.33  2259.14  2343.55  2459.40
                             2596.81  2665.13  4213.70  4382.71  4389.38
                             4428.08  4456.84  4464.82  4491.74  4510.82
                             4612.36  4642.56  5238.60  5316.88  5317.54

 Zero-point correction=                           0.217576 (Hartree/Particle)
 Thermal correction to Energy=                    0.233855
 Thermal correction to Enthalpy=                  0.234799
 Thermal correction to Gibbs Free Energy=         0.170510
 Sum of electronic and zero-point Energies=           -706.251788
 Sum of electronic and thermal Energies=              -706.235509
 Sum of electronic and thermal Enthalpies=            -706.234565
 Sum of electronic and thermal Free Energies=         -706.298854

                     E (Thermal)             CV                S
                      KCal/Mol        Cal/Mol-Kelvin    Cal/Mol-Kelvin
 Total                  146.746             55.684            135.307
 Electronic               0.000              0.000              0.000
 Translational            0.889              2.981             41.770
 Rotational               0.889              2.981             31.962
 Vibrational            144.969             49.722             61.575
 Vibration     1          0.593              1.986              6.806
 Vibration     2          0.594              1.982              5.431
 Vibration     3          0.595              1.979              4.986
 Vibration     4          0.596              1.976              4.634
 Vibration     5          0.596              1.975              4.571
 Vibration     6          0.598              1.967              4.101
 Vibration     7          0.600              1.961              3.839
 Vibration     8          0.602              1.954              3.593
 Vibration     9          0.604              1.949              3.446
 Vibration    10          0.614              1.915              2.823
 Vibration    11          0.637              1.841              2.142
 Vibration    12          0.645              1.817              1.992
 Vibration    13          0.655              1.786              1.836
 Vibration    14          0.707              1.632              1.300
 Vibration    15          0.713              1.613              1.255
 Vibration    16          0.750              1.512              1.039
 Vibration    17          0.770              1.459              0.943
 Vibration    18          0.802              1.377              0.818
 Vibration    19          0.825              1.323              0.745
 Vibration    20          0.897              1.156              0.560
 Vibration    21          0.916              1.118              0.524
 Vibration    22          0.961              1.026              0.445
 Vibration    23          0.973              1.003              0.427

                           ! Non-Optimized Parameters !
 Normal termination of Gaussian 16 at Thu Dec 10 10:24:14 2020.

 ----------------------------------------------------------------------
 # B3LYP/6-311++G(d,p) empiricaldispersion=gd3bj scf=xqc pop=npa geom=c
 heck
 ----------------------------------------------------------------------

 ---------------------------------------
 CID_141884933_JID_4522_Energie_neutraal
 ---------------------------------------
 Structure from the checkpoint file:  "JID_4522.chk"
 Charge =  0 Multiplicity = 1

 SCF Done:  E(RB3LYP) =  -706.694560174     A.U. after   16 cycles
 Normal termination of Gaussian 16 at Thu Dec 10 10:26:50 2020.

 ----------------------------------------------------------------------
 # B3LYP/6-311++G(d,p) empiricaldispersion=gd3bj scf=xqc pop=npa geom=c
 heck
 ----------------------------------------------------------------------

 -------------------------------------
 CID_141884933_JID_4522_Energie_kation
 -------------------------------------
 Structure from the checkpoint file:  "JID_4522.chk"
 Charge =  1 Multiplicity = 2

 SCF Done:  E(UB3LYP) =  -706.410502861     A.U. after   23 cycles
 Normal termination of Gaussian 16 at Thu Dec 10 10:31:58 2020.
 Gaussian 16:  ES64L-G16RevA.03 25-Dec-2016

 ----------------------------------------------------------------------
 # B3LYP/6-311++G(d,p) empiricaldispersion=gd3bj scf=xqc pop=npa geom=c
 heck
 ----------------------------------------------------------------------

 ------------------------------------
 CID_141884933_JID_4522_Energie_anion
 ------------------------------------
 Structure from the checkpoint file:  "JID_4522.chk"
 Charge = -1 Multiplicity = 2

                         Standard orientation:
 ---------------------------------------------------------------------
 Center     Atomic      Atomic             Coordinates (Angstroms)
 Number     Number       Type             X           Y           Z
 ---------------------------------------------------------------------
      1          6           0       -2.500381    0.117065   -1.109492
      2          6           0       -3.862237   -0.147622   -1.753743
      3          6           0        0.292120    2.702080    0.143296
      4          6           0        1.518825    2.400885   -0.685308
      5          6           0        1.872012    1.128596   -0.920029
      6          6           0        1.159391    0.014983   -0.306004
      7          6           0        0.342471    0.312425    0.756982
      8          7           0        0.102876    1.611799    1.096717
      9          6           0       -0.177782   -0.700932    1.727222
     10          8           0        0.324355   -1.765503    1.991612
     11          8           0       -1.291217   -0.235680    2.365472
     12          6           0        1.419095   -1.327078   -0.846958
     13          8           0        2.449737   -1.647987   -1.409987
     14          8           0        0.359857   -2.173349   -0.756205
     15          1           0       -2.005076    0.982522   -1.565969
     16          1           0       -1.827095   -0.738690   -1.221480
     17          1           0       -2.598727    0.318503   -0.036960
     18          1           0       -4.534603    0.710925   -1.640517
     19          1           0       -3.762926   -0.350056   -2.826347
     20          1           0       -4.355022   -1.014937   -1.299221
     21          1           0       -0.602441    2.828015   -0.496519
     22          1           0        0.412626    3.630868    0.711186
     23          1           0        2.070078    3.232379   -1.112808
     24          1           0        2.714207    0.874693   -1.555203
     25          1           0       -0.503414    1.769207    1.887975
     26          1           0       -1.528822   -0.920733    3.017863
     27          1           0        0.678155   -3.027551   -1.101941
 ---------------------------------------------------------------------

 SCF Done:  E(UB3LYP) =  -706.717734469     A.U. after   25 cycles

 The electronic state is 2-A.
 Alpha  occ. eigenvalues --  -19.02218 -19.00915 -18.94125 -18.94117 -14.18014
 Alpha  occ. eigenvalues --  -10.13363 -10.12528 -10.07420 -10.05823 -10.04860
 Alpha  occ. eigenvalues --  -10.03532 -10.01955 -10.01169 -10.00183  -0.95582
 Alpha  occ. eigenvalues --   -0.94596  -0.86127  -0.85294  -0.80095  -0.65010
 Alpha  occ. eigenvalues --   -0.64292  -0.63089  -0.53404  -0.51694  -0.50437
 Alpha  occ. eigenvalues --   -0.47699  -0.44394  -0.39602  -0.35783  -0.34678
 Alpha  occ. eigenvalues --   -0.33666  -0.33005  -0.32702  -0.32504  -0.31748
 Alpha  occ. eigenvalues --   -0.31293  -0.30506  -0.28875  -0.28189  -0.26329
 Alpha  occ. eigenvalues --   -0.25754  -0.24871  -0.23260  -0.23074  -0.22455
 Alpha  occ. eigenvalues --   -0.20407  -0.19637  -0.17565  -0.16546  -0.14134
 Alpha  occ. eigenvalues --   -0.12324  -0.12162  -0.04844   0.04002
 Alpha virt. eigenvalues --    0.07599   0.08923   0.09519   0.10483   0.11269
 Alpha virt. eigenvalues --    0.11395   0.11810   0.12560   0.13148   0.14452
 Alpha virt. eigenvalues --    0.14596   0.15183   0.15620   0.16590   0.17410

  Beta  occ. eigenvalues --  -19.02139 -19.00902 -18.93986 -18.93734 -14.17757
  Beta  occ. eigenvalues --  -10.13289 -10.12251 -10.07419 -10.05822 -10.04439
  Beta  occ. eigenvalues --  -10.03532 -10.01953 -10.00991 -10.00109  -0.95231
  Beta  occ. eigenvalues --   -0.94484  -0.85572  -0.85085  -0.79570  -0.64703
  Beta  occ. eigenvalues --   -0.64288  -0.62505  -0.53071  -0.51083  -0.50414
  Beta  occ. eigenvalues --   -0.47418  -0.44120  -0.39340  -0.35439  -0.34358
  Beta  occ. eigenvalues --   -0.33298  -0.32884  -0.32678  -0.32393  -0.31438
  Beta  occ. eigenvalues --   -0.30920  -0.29992  -0.28202  -0.27563  -0.26096
  Beta  occ. eigenvalues --   -0.25701  -0.24619  -0.23234  -0.23043  -0.22303
  Beta  occ. eigenvalues --   -0.20146  -0.18504  -0.16351  -0.15589  -0.13266
  Beta  occ. eigenvalues --   -0.11967  -0.11725  -0.03416
  Beta virt. eigenvalues --    0.07561   0.08845   0.09480   0.10438   0.10627
  Beta virt. eigenvalues --    0.11217   0.11369   0.11804   0.12574   0.13145
  Beta virt. eigenvalues --    0.14445   0.14796   0.15456   0.15822   0.16571

 Mulliken charges and spin densities:
               1          2
     1  C   -0.305206   0.005965
     2  C   -0.651208  -0.009488
     3  C   -0.337567  -0.016868
     4  C   -0.360409   0.146254
     5  C    0.046194  -0.004557
     6  C    0.493330   0.014381
     7  C   -0.265257   0.315752
     8  N   -0.090725   0.106581
     9  C   -0.208217   0.190375
    10  O   -0.346875   0.133679
    11  O   -0.224725   0.013969
    12  C   -0.247185   0.044461
    13  O   -0.384426   0.044848
    14  O   -0.185773  -0.000759
    15  H    0.138392  -0.000156
    16  H    0.196978  -0.002085
    17  H    0.154300   0.004283
    18  H    0.110254   0.001546
    19  H    0.116678   0.001504
    20  H    0.120065   0.001226
    21  H    0.074468   0.009594
    22  H    0.094885   0.000078
    23  H    0.114202  -0.005254
    24  H    0.178687   0.001872
    25  H    0.253133  -0.000567
    26  H    0.256852   0.000899
    27  H    0.259156   0.002465
 Sum of Mulliken charges =  -1.00000   1.00000

 Dipole moment (field-independent basis, Debye):
    X=             -5.4600    Y=              2.2485    Z=              0.4742  Tot=              5.9239
 Quadrupole moment (field-independent basis, Debye-Ang):
   XX=           -110.5765   YY=            -98.9807   ZZ=            -98.3435
   XY=              5.0155   XZ=              0.3620   YZ=              4.1170

 Summary of Natural Population Analysis:

                                       Natural Population
                Natural  -----------------------------------------------
    Atom  No    Charge         Core      Valence    Rydberg      Total
 -----------------------------------------------------------------------
      C    1   -0.29554      0.99968     2.29039    0.00547     3.29554
      C    2   -0.28521      0.99969     2.28245    0.00307     3.28521
      C    3   -0.09191      0.99963     2.08359    0.00869     3.09191
      C    4   -0.09896      0.99955     2.08953    0.00988     3.09896
      C    5   -0.08790      0.99952     2.07883    0.00954     3.08790
      C    6   -0.13211      0.99941     2.11807    0.01463     3.13211
      C    7    0.15856      0.99943     1.82394    0.01807     2.84144
      N    8   -0.26336      0.99967     2.75306    0.01063     3.76336
      C    9    0.42355      0.99968     1.55317    0.02360     2.57645
      O   10   -0.27205      0.99987     3.26502    0.00716     4.27205
      O   11   -0.36298      0.99988     3.35698    0.00612     4.36298
      C   12    0.40798      0.99964     1.56879    0.02359     2.59202
      O   13   -0.32871      0.99987     3.32211    0.00673     4.32871
      O   14   -0.34688      0.99988     3.34005    0.00696     4.34688
      H   15    0.09518      0.00000     0.40366    0.00116     0.40482
      H   16    0.11167      0.00000     0.38734    0.00099     0.38833
      H   17    0.10248      0.00000     0.39644    0.00108     0.39752
      H   18    0.08811      0.00000     0.41089    0.00101     0.41189
      H   19    0.09020      0.00000     0.40882    0.00098     0.40980
      H   20    0.09098      0.00000     0.40807    0.00095     0.40902
      H   21    0.07187      0.00000     0.42555    0.00258     0.42813
      H   22    0.08553      0.00000     0.41296    0.00151     0.41447
      H   23    0.08602      0.00000     0.41291    0.00106     0.41398
      H   24    0.10387      0.00000     0.39498    0.00115     0.39613
      H   25    0.19071      0.00000     0.30746    0.00184     0.30929
      H   26    0.23234      0.00000     0.26465    0.00301     0.26766
      H   27    0.22656      0.00000     0.26866    0.00477     0.27344
 =======================================================================
   * Total *    0.00000     13.99541    38.82836    0.17623    53.00000

 Normal termination of Gaussian 16 at Thu Dec 10 10:38:04 2020.
