 Gaussian 16, Revision A.03,

 -----------------------------------------------------------
 # opt freq B3LYP/6-31G(d) empiricaldispersion=gd3bj scf=xqc
 -----------------------------------------------------------

 ------------------------------
 CID_14290132_JID_2777_neutraal
 ------------------------------
 Symbolic Z-matrix:
 Charge =  0 Multiplicity = 1

 SCF Done:  E(RB3LYP) =  -503.846203138     A.U. after   12 cycles
 SCF Done:  E(RB3LYP) =  -503.851009295     A.U. after   10 cycles
 SCF Done:  E(RB3LYP) =  -503.851874346     A.U. after   10 cycles
 SCF Done:  E(RB3LYP) =  -503.852850215     A.U. after   11 cycles
 SCF Done:  E(RB3LYP) =  -503.853600642     A.U. after   11 cycles
 SCF Done:  E(RB3LYP) =  -503.853782649     A.U. after   10 cycles
 SCF Done:  E(RB3LYP) =  -503.853815110     A.U. after   10 cycles
 SCF Done:  E(RB3LYP) =  -503.853824041     A.U. after   10 cycles
 SCF Done:  E(RB3LYP) =  -503.853845391     A.U. after    9 cycles
 SCF Done:  E(RB3LYP) =  -503.853845480     A.U. after    7 cycles
 SCF Done:  E(RB3LYP) =  -503.853845634     A.U. after    6 cycles
 Optimization completed.
    -- Stationary point found.
 Normal termination of Gaussian 16 at Wed Dec  9 18:14:28 2020.

 --------------------------------------------------------------------
 #N Geom=AllCheck Guess=TCheck SCRF=Check GenChk RB3LYP/6-31G(d) Freq
 --------------------------------------------------------------------

 Structure from the checkpoint file:  "JID_2777.chk"
 ------------------------------
 CID_14290132_JID_2777_neutraal
 ------------------------------
 Charge =  0 Multiplicity = 1

 SCF Done:  E(RB3LYP) =  -503.853845634     A.U. after    1 cycles

  Exact polarizability: 124.648  -0.004 132.234  -2.646  -0.001  98.009
 Approx polarizability: 155.890  -0.006 168.586  -3.460  -0.002 158.370

                      1                      2                      3
                      A                      A                      A
 Frequencies --     58.6895                77.4927               125.5065
 Red. masses --      2.4766                 3.0911                 3.2480
 Frc consts  --      0.0050                 0.0109                 0.0301
 IR Inten    --      0.0016                 0.3606                 1.0152

                      4                      5                      6
                      A                      A                      A
 Frequencies --    144.1922               155.0195               193.7174
 Red. masses --      2.7135                 1.9702                 2.3052
 Frc consts  --      0.0332                 0.0279                 0.0510
 IR Inten    --      0.1330                 0.2348                 2.4885

                      7                      8                      9
                      A                      A                      A
 Frequencies --    217.5029               248.5720               253.9371
 Red. masses --      2.4092                 2.3220                 2.9232
 Frc consts  --      0.0672                 0.0845                 0.1111
 IR Inten    --      0.7741                 0.1056                 1.0582

                     10                     11                     12
                      A                      A                      A
 Frequencies --    282.3330               317.4150               322.3101
 Red. masses --      2.1649                 2.0335                 2.3754
 Frc consts  --      0.1017                 0.1207                 0.1454
 IR Inten    --      0.0042                 0.0664                 3.5170

                     13                     14                     15
                      A                      A                      A
 Frequencies --    334.4914               436.7722               448.3384
 Red. masses --      2.2615                 2.0059                 2.8820
 Frc consts  --      0.1491                 0.2255                 0.3413
 IR Inten    --      5.0928                14.3966                 0.1519

                     16                     17                     18
                      A                      A                      A
 Frequencies --    479.6386               534.9645               536.4542
 Red. masses --      2.2305                 1.8690                 1.9165
 Frc consts  --      0.3023                 0.3151                 0.3250
 IR Inten    --      0.7517                 0.0017                11.2925

                     19                     20                     21
                      A                      A                      A
 Frequencies --    659.8894               721.7559               734.4640
 Red. masses --      1.6284                 1.3239                 1.2765
 Frc consts  --      0.4178                 0.4063                 0.4057
 IR Inten    --    120.7077                29.7508                 7.8257

                     22                     23                     24
                      A                      A                      A
 Frequencies --    751.0970               813.2967               820.8233
 Red. masses --      1.4658                 1.8945                 1.7376
 Frc consts  --      0.4872                 0.7383                 0.6897
 IR Inten    --     44.6029                 4.3966                24.6943

                     25                     26                     27
                      A                      A                      A
 Frequencies --    879.4693               880.9703               895.9637
 Red. masses --      1.8005                 1.6741                 2.1875
 Frc consts  --      0.8205                 0.7655                 1.0346
 IR Inten    --      0.0029                14.9655                 3.7386

                     28                     29                     30
                      A                      A                      A
 Frequencies --    910.0705               927.3219               951.7401
 Red. masses --      1.6863                 2.4473                 1.5816
 Frc consts  --      0.8229                 1.2399                 0.8441
 IR Inten    --      2.4895                16.1264                 0.4070

                     31                     32                     33
                      A                      A                      A
 Frequencies --    996.9705              1014.4740              1049.3313
 Red. masses --      2.2419                 2.1515                 2.1171
 Frc consts  --      1.3129                 1.3046                 1.3735
 IR Inten    --      9.6470                 8.6613                10.5968

                     34                     35                     36
                      A                      A                      A
 Frequencies --   1067.1313              1086.8511              1089.3548
 Red. masses --      1.7590                 2.4071                 1.9710
 Frc consts  --      1.1802                 1.6753                 1.3781
 IR Inten    --      0.1271                 5.0969                 1.4069

                     37                     38                     39
                      A                      A                      A
 Frequencies --   1090.6562              1098.8236              1126.0593
 Red. masses --      2.0765                 2.3708                 2.1909
 Frc consts  --      1.4553                 1.6866                 1.6368
 IR Inten    --     13.9542                 0.0973                 1.8522

                     40                     41                     42
                      A                      A                      A
 Frequencies --   1150.9772              1170.8272              1179.8041
 Red. masses --      2.1847                 1.9187                 2.0645
 Frc consts  --      1.7052                 1.5497                 1.6931
 IR Inten    --      0.0139                39.6263                 4.0735

                     43                     44                     45
                      A                      A                      A
 Frequencies --   1197.4801              1232.1908              1232.2325
 Red. masses --      1.3620                 1.5397                 1.3402
 Frc consts  --      1.1507                 1.3774                 1.1990
 IR Inten    --     42.8664                24.2370                 6.9454

                     46                     47                     48
                      A                      A                      A
 Frequencies --   1274.8458              1288.7907              1290.8811
 Red. masses --      1.2540                 1.4208                 1.1921
 Frc consts  --      1.2008                 1.3904                 1.1704
 IR Inten    --      1.8291                 0.6500                 4.3507

                     49                     50                     51
                      A                      A                      A
 Frequencies --   1322.5262              1336.4645              1341.7061
 Red. masses --      1.2464                 1.1808                 1.3434
 Frc consts  --      1.2844                 1.2427                 1.4249
 IR Inten    --      2.5308                 0.7547                 1.7991

                     52                     53                     54
                      A                      A                      A
 Frequencies --   1348.7220              1349.7061              1379.6739
 Red. masses --      1.2161                 1.1239                 1.1915
 Frc consts  --      1.3034                 1.2063                 1.3363
 IR Inten    --      0.6172                 2.8923                14.9847

                     55                     56                     57
                      A                      A                      A
 Frequencies --   1388.6751              1390.3879              1400.9338
 Red. masses --      1.3020                 1.4049                 1.3296
 Frc consts  --      1.4793                 1.6002                 1.5374
 IR Inten    --     18.0469                 5.7275                 0.8646

                     58                     59                     60
                      A                      A                      A
 Frequencies --   1408.5639              1416.6627              1419.1972
 Red. masses --      1.2270                 1.4632                 1.3825
 Frc consts  --      1.4343                 1.7302                 1.6405
 IR Inten    --     26.4710                 0.1540                 1.4082

                     61                     62                     63
                      A                      A                      A
 Frequencies --   1426.4704              1439.6827              1497.5426
 Red. masses --      1.3371                 1.3907                 1.1072
 Frc consts  --      1.6030                 1.6983                 1.4630
 IR Inten    --      2.5233                 1.5173                 0.0748

                     64                     65                     66
                      A                      A                      A
 Frequencies --   1499.1032              1501.8306              1515.0869
 Red. masses --      1.1651                 1.1048                 1.0861
 Frc consts  --      1.5427                 1.4682                 1.4690
 IR Inten    --     12.0881                 6.0654                 5.0288

                     67                     68                     69
                      A                      A                      A
 Frequencies --   1516.2601              1516.6519              1522.1756
 Red. masses --      1.0907                 1.0957                 1.0844
 Frc consts  --      1.4774                 1.4849                 1.4804
 IR Inten    --      6.4026                 1.3432                 4.1987

                     70                     71                     72
                      A                      A                      A
 Frequencies --   1524.7168              1525.9819              1530.2135
 Red. masses --      1.2334                 1.1308                 1.0951
 Frc consts  --      1.6894                 1.5514                 1.5107
 IR Inten    --     20.3256                11.6141                 6.0727

                     73                     74                     75
                      A                      A                      A
 Frequencies --   1536.4004              1547.3118              2936.7602
 Red. masses --      1.1106                 1.0924                 1.0730
 Frc consts  --      1.5446                 1.5409                 5.4524
 IR Inten    --     13.6517                 2.6187                27.0086

                     76                     77                     78
                      A                      A                      A
 Frequencies --   2942.9792              3006.6664              3009.5756
 Red. masses --      1.0737                 1.0657                 1.0693
 Frc consts  --      5.4793                 5.6761                 5.7064
 IR Inten    --    216.4158                43.6157                53.5992

                     79                     80                     81
                      A                      A                      A
 Frequencies --   3022.0435              3023.7725              3026.4949
 Red. masses --      1.0727                 1.0733                 1.0673
 Frc consts  --      5.7718                 5.7819                 5.7599
 IR Inten    --     29.7787                24.5641                40.8370

                     82                     83                     84
                      A                      A                      A
 Frequencies --   3027.4883              3030.6997              3031.6819
 Red. masses --      1.0673                 1.0610                 1.0618
 Frc consts  --      5.7635                 5.7419                 5.7501
 IR Inten    --     63.8062                 9.5921                30.8051

                     85                     86                     87
                      A                      A                      A
 Frequencies --   3048.3430              3053.3024              3063.3497
 Red. masses --      1.0880                 1.0880                 1.0970
 Frc consts  --      5.9570                 5.9759                 6.0655
 IR Inten    --      4.6402                18.8462                17.7894

                     88                     89                     90
                      A                      A                      A
 Frequencies --   3067.0911              3068.3410              3071.9779
 Red. masses --      1.0998                 1.0972                 1.0962
 Frc consts  --      6.0958                 6.0864                 6.0948
 IR Inten    --     62.3169                 6.4928               152.0647

                     91                     92                     93
                      A                      A                      A
 Frequencies --   3073.3613              3074.8825              3119.4051
 Red. masses --      1.0975                 1.0959                 1.0915
 Frc consts  --      6.1075                 6.1048                 6.2575
 IR Inten    --     56.9152                50.3787                72.7362

                     94                     95                     96
                      A                      A                      A
 Frequencies --   3138.1233              3488.8629              3528.0449
 Red. masses --      1.0871                 1.0737                 1.0730
 Frc consts  --      6.3076                 7.6999                 7.8691
 IR Inten    --     27.5872                 1.2827                 1.5297

 - Thermochemistry -
 -------------------
 Temperature   298.150 Kelvin.  Pressure   1.00000 Atm.
 Atom     1 has atomic number  6 and mass  12.00000

 Molecular mass:   170.17830 amu.
 Principal axes and moments of inertia in atomic units:
                           1         2         3
     Eigenvalues --  1971.438232111.654713745.53341
           X            0.99997  -0.00010  -0.00778
           Y            0.00010   1.00000  -0.00000
           Z            0.00778   0.00000   0.99997
 This molecule is an asymmetric top.
 Rotational symmetry number  1.
 Warning -- assumption of classical behavior for rotation
           may cause significant error
 Rotational temperatures (Kelvin)      0.04393     0.04102     0.02312
 Rotational constants (GHZ):           0.91544     0.85466     0.48184
 Zero-point vibrational energy     844610.1 (Joules/Mol)
                                  201.86666 (Kcal/Mol)
 Warning -- explicit consideration of  18 degrees of freedom as
           vibrations may cause significant error
 Vibrational temperatures:     84.44   111.49   180.58   207.46   223.04
          (Kelvin)            278.72   312.94   357.64   365.36   406.21
                              456.69   463.73   481.26   628.42   645.06
                              690.09   769.69   771.84   949.43  1038.45
                             1056.73  1080.66  1170.15  1180.98  1265.36
                             1267.52  1289.09  1309.39  1334.21  1369.34
                             1434.42  1459.60  1509.75  1535.36  1563.74
                             1567.34  1569.21  1580.96  1620.15  1656.00
                             1684.56  1697.47  1722.91  1772.85  1772.91
                             1834.22  1854.28  1857.29  1902.82  1922.87
                             1930.42  1940.51  1941.93  1985.04  1997.99
                             2000.46  2015.63  2026.61  2038.26  2041.91
                             2052.37  2071.38  2154.63  2156.88  2160.80
                             2179.87  2181.56  2182.12  2190.07  2193.73
                             2195.55  2201.64  2210.54  2226.24  4225.34
                             4234.29  4325.92  4330.11  4348.05  4350.53
                             4354.45  4355.88  4360.50  4361.91  4385.89
                             4393.02  4407.48  4412.86  4414.66  4419.89
                             4421.88  4424.07  4488.13  4515.06  5019.70
                             5076.07

 Zero-point correction=                           0.321695 (Hartree/Particle)
 Thermal correction to Energy=                    0.334417
 Thermal correction to Enthalpy=                  0.335362
 Thermal correction to Gibbs Free Energy=         0.283336
 Sum of electronic and zero-point Energies=           -503.532151
 Sum of electronic and thermal Energies=              -503.519428
 Sum of electronic and thermal Enthalpies=            -503.518484
 Sum of electronic and thermal Free Energies=         -503.570510

                     E (Thermal)             CV                S
                      KCal/Mol        Cal/Mol-Kelvin    Cal/Mol-Kelvin
 Total                  209.850             50.113            109.498
 Electronic               0.000              0.000              0.000
 Translational            0.889              2.981             41.303
 Rotational               0.889              2.981             31.123
 Vibrational            208.073             44.151             37.072
 Vibration     1          0.596              1.974              4.501
 Vibration     2          0.599              1.964              3.953
 Vibration     3          0.610              1.928              3.014
 Vibration     4          0.616              1.909              2.747
 Vibration     5          0.620              1.897              2.610
 Vibration     6          0.635              1.849              2.192
 Vibration     7          0.646              1.814              1.980
 Vibration     8          0.662              1.765              1.741
 Vibration     9          0.665              1.756              1.703
 Vibration    10          0.681              1.706              1.519
 Vibration    11          0.704              1.640              1.323
 Vibration    12          0.707              1.631              1.298
 Vibration    13          0.716              1.607              1.238
 Vibration    14          0.797              1.390              0.837
 Vibration    15          0.807              1.365              0.801
 Vibration    16          0.836              1.295              0.711
 Vibration    17          0.890              1.173              0.576
 Vibration    18          0.891              1.169              0.573

 Optimization completed.
    -- Stationary point found.
 Normal termination of Gaussian 16 at Wed Dec  9 18:24:17 2020.

 ----------------------------------------------------------------------
 # B3LYP/6-311++G(d,p) empiricaldispersion=gd3bj scf=xqc pop=npa geom=c
 heck
 ----------------------------------------------------------------------

 --------------------------------------
 CID_14290132_JID_2777_Energie_neutraal
 --------------------------------------
 Structure from the checkpoint file:  "JID_2777.chk"
 Charge =  0 Multiplicity = 1

 SCF Done:  E(RB3LYP) =  -503.999391773     A.U. after   12 cycles
 Normal termination of Gaussian 16 at Wed Dec  9 18:27:34 2020.

 ----------------------------------------------------------------------
 # B3LYP/6-311++G(d,p) empiricaldispersion=gd3bj scf=xqc pop=npa geom=c
 heck
 ----------------------------------------------------------------------

 ------------------------------------
 CID_14290132_JID_2777_Energie_kation
 ------------------------------------
 Structure from the checkpoint file:  "JID_2777.chk"
 Charge =  1 Multiplicity = 2

 SCF Done:  E(UB3LYP) =  -503.723924526     A.U. after   16 cycles
 Normal termination of Gaussian 16 at Wed Dec  9 18:33:52 2020.
 Gaussian 16:  ES64L-G16RevA.03 25-Dec-2016

 ----------------------------------------------------------------------
 # B3LYP/6-311++G(d,p) empiricaldispersion=gd3bj scf=xqc pop=npa geom=c
 heck
 ----------------------------------------------------------------------

 -----------------------------------
 CID_14290132_JID_2777_Energie_anion
 -----------------------------------
 Structure from the checkpoint file:  "JID_2777.chk"
 Charge = -1 Multiplicity = 2

                         Standard orientation:
 ---------------------------------------------------------------------
 Center     Atomic      Atomic             Coordinates (Angstroms)
 Number     Number       Type             X           Y           Z
 ---------------------------------------------------------------------
      1          6           0       -0.041012    2.224447   -0.444490
      2          6           0        1.389040    2.439402    0.094259
      3          6           0        2.303637    1.236269   -0.165046
      4          7           0        1.713789    0.000708    0.334919
      5          6           0        2.304711   -1.234327   -0.165072
      6          6           0        1.391172   -2.438265    0.094206
      7          6           0       -0.039081   -2.224523   -0.444477
      8          6           0       -1.039287   -1.767086    0.624777
      9          6           0       -2.371753   -1.253640    0.044748
     10          7           0       -2.369419   -0.001024   -0.707074
     11          6           0       -2.372893    1.251661    0.044630
     12          6           0       -1.040920    1.766301    0.624735
     13          1           0        0.001959    1.476182   -1.246859
     14          1           0       -0.416728    3.148890   -0.902809
     15          1           0        1.852647    3.318670   -0.370631
     16          1           0        1.351761    2.653754    1.172197
     17          1           0        3.317335    1.435642    0.231940
     18          1           0        2.416440    1.117511   -1.250828
     19          1           0        1.712464    0.000698    1.353269
     20          1           0        3.318586   -1.432833    0.231900
     21          1           0        2.417400   -1.115447   -1.250853
     22          1           0        1.354113   -2.652710    1.172133
     23          1           0        1.855530   -3.317100   -0.370754
     24          1           0       -0.414069   -3.149315   -0.902690
     25          1           0        0.003242   -1.476302   -1.246921
     26          1           0       -0.579928   -0.992014    1.242730
     27          1           0       -1.255088   -2.614760    1.292132
     28          1           0       -3.097107   -1.132132    0.859241
     29          1           0       -2.781172   -2.035176   -0.613324
     30          1           0       -1.650062   -0.000730   -1.424702
     31          1           0       -3.098228    1.129626    0.859062
     32          1           0       -2.782906    2.032779   -0.613567
     33          1           0       -0.580965    0.991682    1.242812
     34          1           0       -1.257494    2.613862    1.291983
 ---------------------------------------------------------------------

 SCF Done:  E(UB3LYP) =  -503.981001636     A.U. after   27 cycles

 The electronic state is 2-A.
 Alpha  occ. eigenvalues --  -14.19308 -14.18758 -10.09035 -10.09034 -10.08468
 Alpha  occ. eigenvalues --  -10.08467 -10.06081 -10.06081 -10.06025 -10.06025
 Alpha  occ. eigenvalues --  -10.05649 -10.05649  -0.80272  -0.79916  -0.70147
 Alpha  occ. eigenvalues --   -0.67660  -0.65346  -0.60546  -0.57897  -0.53778
 Alpha  occ. eigenvalues --   -0.50445  -0.49116  -0.47123  -0.46923  -0.39875
 Alpha  occ. eigenvalues --   -0.37444  -0.37131  -0.36652  -0.34787  -0.34471
 Alpha  occ. eigenvalues --   -0.33243  -0.31714  -0.30762  -0.29463  -0.29001
 Alpha  occ. eigenvalues --   -0.28408  -0.28302  -0.25110  -0.25109  -0.24100
 Alpha  occ. eigenvalues --   -0.23527  -0.23441  -0.22184  -0.22017  -0.21718
 Alpha  occ. eigenvalues --   -0.20523  -0.12421  -0.11328   0.04772
 Alpha virt. eigenvalues --    0.06703   0.06989   0.07329   0.08437   0.08958
 Alpha virt. eigenvalues --    0.09213   0.09564   0.10080   0.11192   0.11284
 Alpha virt. eigenvalues --    0.11775   0.12128   0.12678   0.13084   0.13423

  Beta  occ. eigenvalues --  -14.19307 -14.18735 -10.09026 -10.09025 -10.08445
  Beta  occ. eigenvalues --  -10.08444 -10.06072 -10.06072 -10.06004 -10.06004
  Beta  occ. eigenvalues --  -10.05638 -10.05637  -0.80249  -0.79896  -0.70117
  Beta  occ. eigenvalues --   -0.67633  -0.65313  -0.60506  -0.57864  -0.53733
  Beta  occ. eigenvalues --   -0.50401  -0.49047  -0.47084  -0.46867  -0.39856
  Beta  occ. eigenvalues --   -0.37394  -0.37082  -0.36621  -0.34766  -0.34436
  Beta  occ. eigenvalues --   -0.33214  -0.31660  -0.30734  -0.29428  -0.28975
  Beta  occ. eigenvalues --   -0.28378  -0.28274  -0.25071  -0.25071  -0.24056
  Beta  occ. eigenvalues --   -0.23504  -0.23418  -0.22139  -0.21989  -0.21692
  Beta  occ. eigenvalues --   -0.20499  -0.12379  -0.11290
  Beta virt. eigenvalues --    0.06911   0.07521   0.07556   0.07984   0.09015
  Beta virt. eigenvalues --    0.09445   0.09675   0.10015   0.10411   0.11585
  Beta virt. eigenvalues --    0.11770   0.12312   0.12512   0.12920   0.13335

 Mulliken charges and spin densities:
               1          2
     1  C   -0.187613   0.230885
     2  C   -0.541653   0.176553
     3  C    1.126046  -1.577922
     4  N   -0.237526   0.178578
     5  C    1.126426  -1.578382
     6  C   -0.542249   0.177296
     7  C   -0.187491   0.230690
     8  C    0.305445  -0.394248
     9  C    0.156765  -0.826037
    10  N   -0.043508   0.051689
    11  C    0.156410  -0.825695
    12  C    0.305598  -0.394411
    13  H    0.057685   0.001735
    14  H   -0.066149   0.230094
    15  H   -0.436573   0.578741
    16  H   -0.134144   0.294693
    17  H   -0.427790   0.570446
    18  H   -0.052998   0.179800
    19  H   -0.122779   0.350345
    20  H   -0.427821   0.570480
    21  H   -0.052933   0.179734
    22  H   -0.134140   0.294679
    23  H   -0.436689   0.578864
    24  H   -0.066095   0.230034
    25  H    0.057588   0.001847
    26  H    0.142152  -0.031517
    27  H   -0.346613   0.506112
    28  H   -0.039280   0.169542
    29  H    0.084725   0.079161
    30  H    0.124350   0.042755
    31  H   -0.039254   0.169525
    32  H    0.084652   0.079230
    33  H    0.142058  -0.031395
    34  H   -0.346602   0.506100
 Sum of Mulliken charges =  -1.00000   1.00000

 Dipole moment (field-independent basis, Debye):
    X=             -4.4832    Y=             -0.0019    Z=             -2.2525  Tot=              5.0172
 Quadrupole moment (field-independent basis, Debye-Ang):
   XX=           -144.1296   YY=           -140.6877   ZZ=           -109.8625
   XY=              0.0004   XZ=             -2.9898   YZ=             -0.0014

 Summary of Natural Population Analysis:

                                       Natural Population
                Natural  -----------------------------------------------
    Atom  No    Charge         Core      Valence    Rydberg      Total
 -----------------------------------------------------------------------
      C    1   -0.19094      0.99962     2.18195    0.00937     3.19094
      C    2   -0.19102      0.99963     2.18217    0.00922     3.19102
      C    3   -0.07735      0.99962     2.06668    0.01104     3.07735
      N    4   -0.35241      0.99974     2.83988    0.01279     3.85241
      C    5   -0.07735      0.99962     2.06668    0.01104     3.07735
      C    6   -0.19102      0.99963     2.18217    0.00922     3.19102
      C    7   -0.19094      0.99962     2.18195    0.00937     3.19094
      C    8   -0.19647      0.99961     2.18923    0.00762     3.19647
      C    9   -0.08376      0.99962     2.07231    0.01183     3.08376
      N   10   -0.34563      0.99976     2.83490    0.01097     3.84563
      C   11   -0.08376      0.99962     2.07231    0.01183     3.08376
      C   12   -0.19647      0.99961     2.18923    0.00762     3.19647
      H   13    0.09126      0.00000     0.40677    0.00197     0.40874
      H   14    0.09336      0.00000     0.40550    0.00114     0.40664
      H   15    0.09873      0.00000     0.39999    0.00128     0.40127
      H   16    0.09420      0.00000     0.40422    0.00158     0.40580
      H   17    0.08315      0.00000     0.41487    0.00198     0.41685
      H   18    0.08647      0.00000     0.41207    0.00146     0.41353
      H   19    0.17263      0.00000     0.32415    0.00323     0.32737
      H   20    0.08315      0.00000     0.41487    0.00198     0.41685
      H   21    0.08647      0.00000     0.41207    0.00146     0.41353
      H   22    0.09420      0.00000     0.40422    0.00158     0.40580
      H   23    0.09873      0.00000     0.39999    0.00128     0.40127
      H   24    0.09337      0.00000     0.40550    0.00114     0.40663
      H   25    0.09126      0.00000     0.40677    0.00197     0.40874
      H   26    0.09841      0.00000     0.39946    0.00213     0.40159
      H   27    0.09284      0.00000     0.40584    0.00132     0.40716
      H   28    0.09060      0.00000     0.40835    0.00105     0.40940
      H   29    0.08708      0.00000     0.41176    0.00116     0.41292
      H   30    0.17227      0.00000     0.32516    0.00257     0.32773
      H   31    0.09060      0.00000     0.40835    0.00105     0.40940
      H   32    0.08708      0.00000     0.41176    0.00116     0.41292
      H   33    0.09841      0.00000     0.39946    0.00213     0.40159
      H   34    0.09284      0.00000     0.40584    0.00132     0.40716
 =======================================================================
   * Total *    0.00000     11.99570    35.84643    0.15786    48.00000

 Normal termination of Gaussian 16 at Wed Dec  9 18:43:34 2020.
