 Gaussian 16, Revision A.03,

 -----------------------------------------------------------
 # opt freq B3LYP/6-31G(d) empiricaldispersion=gd3bj scf=xqc
 -----------------------------------------------------------

 -------------------------------
 CID_103464890_JID_6489_neutraal
 -------------------------------
 Symbolic Z-matrix:
 Charge =  0 Multiplicity = 1

 SCF Done:  E(RB3LYP) =  -659.919412345     A.U. after   13 cycles
 SCF Done:  E(RB3LYP) =  -659.924679438     A.U. after   11 cycles
 SCF Done:  E(RB3LYP) =  -659.924852169     A.U. after   10 cycles
 SCF Done:  E(RB3LYP) =  -659.925987990     A.U. after   11 cycles
 SCF Done:  E(RB3LYP) =  -659.926666348     A.U. after   10 cycles
 SCF Done:  E(RB3LYP) =  -659.927095379     A.U. after   11 cycles
 SCF Done:  E(RB3LYP) =  -659.928547890     A.U. after   10 cycles
 SCF Done:  E(RB3LYP) =  -659.929650356     A.U. after   13 cycles
 SCF Done:  E(RB3LYP) =  -659.930206310     A.U. after   11 cycles
 SCF Done:  E(RB3LYP) =  -659.930706516     A.U. after   10 cycles
 SCF Done:  E(RB3LYP) =  -659.930957646     A.U. after    8 cycles
 SCF Done:  E(RB3LYP) =  -659.930963277     A.U. after    7 cycles
 SCF Done:  E(RB3LYP) =  -659.930965234     A.U. after    7 cycles
 SCF Done:  E(RB3LYP) =  -659.930964550     A.U. after    8 cycles
 SCF Done:  E(RB3LYP) =  -659.930965096     A.U. after    7 cycles
 SCF Done:  E(RB3LYP) =  -659.930965088     A.U. after    6 cycles
 Optimization completed.
    -- Stationary point found.
 Normal termination of Gaussian 16 at Thu Dec 10 23:32:46 2020.

 --------------------------------------------------------------------
 #N Geom=AllCheck Guess=TCheck SCRF=Check GenChk RB3LYP/6-31G(d) Freq
 --------------------------------------------------------------------

 Structure from the checkpoint file:  "JID_6489.chk"
 -------------------------------
 CID_103464890_JID_6489_neutraal
 -------------------------------
 Charge =  0 Multiplicity = 1

 SCF Done:  E(RB3LYP) =  -659.930965088     A.U. after    1 cycles

  Exact polarizability: 173.815   0.833 147.152   1.385  -0.017 141.687
 Approx polarizability: 222.856   1.045 215.290   1.177  -1.163 210.434

                      1                      2                      3
                      A                      A                      A
 Frequencies --     33.0715                63.8166                73.5262
 Red. masses --      3.1276                 3.3248                 3.3071
 Frc consts  --      0.0020                 0.0080                 0.0105
 IR Inten    --      0.1178                 0.0115                 0.2087

                      4                      5                      6
                      A                      A                      A
 Frequencies --    110.1587               129.6726               133.7475
 Red. masses --      2.5135                 2.0084                 2.2684
 Frc consts  --      0.0180                 0.0199                 0.0239
 IR Inten    --      0.8502                 0.1809                 4.8077

                      7                      8                      9
                      A                      A                      A
 Frequencies --    175.6725               199.4867               229.3125
 Red. masses --      1.7767                 1.5397                 1.5458
 Frc consts  --      0.0323                 0.0361                 0.0479
 IR Inten    --      7.2065                 6.3781                 2.6445

                     10                     11                     12
                      A                      A                      A
 Frequencies --    229.6346               242.2181               275.4075
 Red. masses --      1.6738                 2.4859                 1.1944
 Frc consts  --      0.0520                 0.0859                 0.0534
 IR Inten    --      0.6437                 1.1011                 0.3530

                     13                     14                     15
                      A                      A                      A
 Frequencies --    286.9826               296.4416               317.4580
 Red. masses --      2.3937                 1.1516                 2.1731
 Frc consts  --      0.1162                 0.0596                 0.1290
 IR Inten    --      3.3216                 0.5926                 5.1847

                     16                     17                     18
                      A                      A                      A
 Frequencies --    333.6063               368.9958               374.8144
 Red. masses --      2.0289                 2.2090                 1.8791
 Frc consts  --      0.1330                 0.1772                 0.1555
 IR Inten    --      3.4992                 0.5708                 0.7607

                     19                     20                     21
                      A                      A                      A
 Frequencies --    386.2852               402.2913               423.8311
 Red. masses --      2.2897                 2.3088                 2.8832
 Frc consts  --      0.2013                 0.2202                 0.3051
 IR Inten    --      0.7053                 0.5440                 5.0907

                     22                     23                     24
                      A                      A                      A
 Frequencies --    442.7572               453.2358               478.1611
 Red. masses --      2.5371                 2.1886                 2.3075
 Frc consts  --      0.2930                 0.2649                 0.3108
 IR Inten    --      2.0073                 0.8058                 0.2791

                     25                     26                     27
                      A                      A                      A
 Frequencies --    513.6825               541.7706               635.3413
 Red. masses --      3.1785                 2.7308                 2.0440
 Frc consts  --      0.4941                 0.4723                 0.4861
 IR Inten    --      7.9135                 3.5440                 0.2963

                     28                     29                     30
                      A                      A                      A
 Frequencies --    669.7459               710.8386               732.9148
 Red. masses --      4.7797                 4.2305                 2.9654
 Frc consts  --      1.2632                 1.2595                 0.9385
 IR Inten    --      1.6319                 0.7957                 1.2469

                     31                     32                     33
                      A                      A                      A
 Frequencies --    762.2219               793.5351               796.6169
 Red. masses --      2.4891                 2.3598                 1.3932
 Frc consts  --      0.8520                 0.8755                 0.5209
 IR Inten    --      2.6549                20.9828                32.3923

                     34                     35                     36
                      A                      A                      A
 Frequencies --    829.1367               835.0119               855.5258
 Red. masses --      3.1214                 1.8596                 1.5757
 Frc consts  --      1.2643                 0.7639                 0.6795
 IR Inten    --      1.3748                73.7384                 5.0532

                     37                     38                     39
                      A                      A                      A
 Frequencies --    880.5288               892.5459               921.5275
 Red. masses --      2.0713                 1.6904                 1.9294
 Frc consts  --      0.9462                 0.7934                 0.9653
 IR Inten    --     11.7853               104.3862                15.3869

                     40                     41                     42
                      A                      A                      A
 Frequencies --    934.9569               942.8508               953.4303
 Red. masses --      2.0712                 2.0324                 1.9082
 Frc consts  --      1.0667                 1.0645                 1.0220
 IR Inten    --      0.5137                11.6754                 2.4448

                     43                     44                     45
                      A                      A                      A
 Frequencies --    956.1651               964.3616               988.0020
 Red. masses --      1.7368                 1.9014                 1.6152
 Frc consts  --      0.9355                 1.0418                 0.9290
 IR Inten    --      1.8172                 3.0291                 9.0023

                     46                     47                     48
                      A                      A                      A
 Frequencies --   1022.5674              1028.4413              1029.9565
 Red. masses --      1.3034                 1.8752                 1.7099
 Frc consts  --      0.8030                 1.1686                 1.0687
 IR Inten    --      1.8874                 0.9825                 2.3254

                     49                     50                     51
                      A                      A                      A
 Frequencies --   1050.7751              1076.0433              1086.1693
 Red. masses --      2.7860                 1.7514                 2.2886
 Frc consts  --      1.8124                 1.1948                 1.5908
 IR Inten    --     13.1517                 7.9711                13.6811

                     52                     53                     54
                      A                      A                      A
 Frequencies --   1087.4561              1104.8332              1128.6999
 Red. masses --      1.9022                 1.6025                 1.8179
 Frc consts  --      1.3254                 1.1525                 1.3645
 IR Inten    --      2.7736                10.3403                14.9567

                     55                     56                     57
                      A                      A                      A
 Frequencies --   1134.4372              1157.0813              1169.8429
 Red. masses --      1.7765                 1.7496                 3.2426
 Frc consts  --      1.3470                 1.3801                 2.6146
 IR Inten    --     11.6734                39.7399                25.2674

                     58                     59                     60
                      A                      A                      A
 Frequencies --   1199.2596              1204.5522              1217.0490
 Red. masses --      1.1932                 1.4325                 1.2243
 Frc consts  --      1.0111                 1.2246                 1.0684
 IR Inten    --      5.9184                 2.9206                 6.3014

                     61                     62                     63
                      A                      A                      A
 Frequencies --   1237.6110              1245.8840              1268.4093
 Red. masses --      2.1462                 1.8931                 2.1770
 Frc consts  --      1.9368                 1.7313                 2.0636
 IR Inten    --      7.0768                 0.1684                 0.0630

                     64                     65                     66
                      A                      A                      A
 Frequencies --   1289.4185              1307.5032              1318.2066
 Red. masses --      2.2448                 1.2246                 1.3006
 Frc consts  --      2.1990                 1.2334                 1.3316
 IR Inten    --      2.1520                 1.3922                 2.9609

                     67                     68                     69
                      A                      A                      A
 Frequencies --   1336.0107              1344.6178              1353.9790
 Red. masses --      1.3864                 1.2818                 1.8032
 Frc consts  --      1.4580                 1.3654                 1.9476
 IR Inten    --      5.9505                10.6264                13.0858

                     70                     71                     72
                      A                      A                      A
 Frequencies --   1359.8337              1372.1959              1381.0743
 Red. masses --      1.3990                 1.2904                 1.3563
 Frc consts  --      1.5242                 1.4316                 1.5242
 IR Inten    --      4.5791                 5.5963                 0.3809

                     73                     74                     75
                      A                      A                      A
 Frequencies --   1388.8647              1400.2785              1404.8998
 Red. masses --      1.4130                 1.3510                 1.3891
 Frc consts  --      1.6059                 1.5608                 1.6154
 IR Inten    --      0.5067                 3.5122                 1.0077

                     76                     77                     78
                      A                      A                      A
 Frequencies --   1407.5422              1413.7234              1413.9157
 Red. masses --      1.3892                 1.3079                 1.4686
 Frc consts  --      1.6215                 1.5401                 1.7298
 IR Inten    --      7.3369                 7.2249                10.6099

                     79                     80                     81
                      A                      A                      A
 Frequencies --   1422.9875              1425.1346              1435.5222
 Red. masses --      1.2982                 1.4180                 1.3508
 Frc consts  --      1.5488                 1.6969                 1.6400
 IR Inten    --     12.4663                 0.6960                20.6713

                     82                     83                     84
                      A                      A                      A
 Frequencies --   1441.0896              1447.4566              1450.0189
 Red. masses --      1.2553                 1.2813                 1.2756
 Frc consts  --      1.5359                 1.5817                 1.5802
 IR Inten    --      5.9689                 5.2359                 3.4905

                     85                     86                     87
                      A                      A                      A
 Frequencies --   1496.3785              1507.4025              1510.4778
 Red. masses --      1.0869                 1.0939                 1.0717
 Frc consts  --      1.4339                 1.4644                 1.4407
 IR Inten    --      2.4820                 6.4501                 1.0216

                     88                     89                     90
                      A                      A                      A
 Frequencies --   1513.7380              1515.7395              1519.4398
 Red. masses --      1.0871                 1.0695                 1.0795
 Frc consts  --      1.4677                 1.4478                 1.4684
 IR Inten    --      7.2157                 2.0300                 0.9477

                     91                     92                     93
                      A                      A                      A
 Frequencies --   1521.2749              1525.9700              1533.4413
 Red. masses --      1.0524                 1.0603                 1.0614
 Frc consts  --      1.4349                 1.4547                 1.4705
 IR Inten    --      0.7858                 4.7412                 1.9897

                     94                     95                     96
                      A                      A                      A
 Frequencies --   1535.8317              1539.4946              1539.6356
 Red. masses --      1.0461                 1.0931                 1.0639
 Frc consts  --      1.4538                 1.5264                 1.4859
 IR Inten    --      3.6958                16.2836                 4.7010

                     97                     98                     99
                      A                      A                      A
 Frequencies --   1549.5205              1696.9592              3008.0359
 Red. masses --      1.0583                 1.0885                 1.0621
 Frc consts  --      1.4971                 1.8468                 5.6621
 IR Inten    --      9.4929                22.6602                26.0464

                    100                    101                    102
                      A                      A                      A
 Frequencies --   3022.0925              3030.5090              3031.2201
 Red. masses --      1.0771                 1.0628                 1.0626
 Frc consts  --      5.7958                 5.7509                 5.7526
 IR Inten    --     12.3937                22.7122                16.3026

                    103                    104                    105
                      A                      A                      A
 Frequencies --   3031.7601              3036.1545              3036.8077
 Red. masses --      1.0607                 1.0696                 1.0372
 Frc consts  --      5.7443                 5.8091                 5.6357
 IR Inten    --     17.9971                44.4720                29.6012

                    106                    107                    108
                      A                      A                      A
 Frequencies --   3043.0263              3049.9808              3053.1115
 Red. masses --      1.0397                 1.0490                 1.0731
 Frc consts  --      5.6722                 5.7493                 5.8934
 IR Inten    --     34.1131                 3.1907                20.3759

                    109                    110                    111
                      A                      A                      A
 Frequencies --   3054.4420              3058.4292              3064.8371
 Red. masses --      1.0787                 1.0719                 1.0951
 Frc consts  --      5.9296                 5.9075                 6.0607
 IR Inten    --      5.8351                73.3796                73.4798

                    112                    113                    114
                      A                      A                      A
 Frequencies --   3066.1195              3068.1869              3070.0669
 Red. masses --      1.0935                 1.0993                 1.0836
 Frc consts  --      6.0566                 6.0974                 6.0174
 IR Inten    --     75.1477                49.5970                12.6793

                    115                    116                    117
                      A                      A                      A
 Frequencies --   3074.1324              3076.6253              3096.9284
 Red. masses --      1.0978                 1.0984                 1.1037
 Frc consts  --      6.1124                 6.1257                 6.2371
 IR Inten    --     12.8180                45.4837                43.7894

                    118                    119                    120
                      A                      A                      A
 Frequencies --   3097.7440              3103.7446              3108.7680
 Red. masses --      1.1016                 1.1012                 1.1018
 Frc consts  --      6.2283                 6.2501                 6.2737
 IR Inten    --      1.9919                63.6272                25.9996

                    121                    122                    123
                      A                      A                      A
 Frequencies --   3112.2590              3120.0231              3121.2616
 Red. masses --      1.1008                 1.1013                 1.0896
 Frc consts  --      6.2820                 6.3164                 6.2545
 IR Inten    --     72.4754                27.5083                59.0413

                    124                    125                    126
                      A                      A                      A
 Frequencies --   3124.6194              3483.4407              3591.1830
 Red. masses --      1.1002                 1.0520                 1.0884
 Frc consts  --      6.3289                 7.5211                 8.2704
 IR Inten    --     44.5048                 3.0494                 0.3226

 - Thermochemistry -
 -------------------
 Temperature   298.150 Kelvin.  Pressure   1.00000 Atm.
 Atom     1 has atomic number  6 and mass  12.00000

 Molecular mass:   224.22525 amu.
 Principal axes and moments of inertia in atomic units:
                           1         2         3
     Eigenvalues --  2021.516305312.009975376.65604
           X            0.99999  -0.00214   0.00451
           Y            0.00169   0.99536   0.09619
           Z           -0.00470  -0.09618   0.99535
 This molecule is an asymmetric top.
 Rotational symmetry number  1.
 Warning -- assumption of classical behavior for rotation
           may cause significant error
 Rotational temperatures (Kelvin)      0.04285     0.01631     0.01611
 Rotational constants (GHZ):           0.89277     0.33975     0.33566
 Zero-point vibrational energy    1085464.3 (Joules/Mol)
                                  259.43218 (Kcal/Mol)
 Warning -- explicit consideration of  26 degrees of freedom as
           vibrations may cause significant error
 Vibrational temperatures:     47.58    91.82   105.79   158.49   186.57
          (Kelvin)            192.43   252.75   287.02   329.93   330.39
                              348.50   396.25   412.90   426.51   456.75
                              479.99   530.90   539.27   555.78   578.81
                              609.80   637.03   652.11   687.97   739.07
                              779.49   914.11   963.61  1022.74  1054.50
                             1096.67  1141.72  1146.15  1192.94  1201.40
                             1230.91  1266.88  1284.17  1325.87  1345.19
                             1356.55  1371.77  1375.71  1387.50  1421.51
                             1471.25  1479.70  1481.88  1511.83  1548.19
                             1562.76  1564.61  1589.61  1623.95  1632.20
                             1664.78  1683.14  1725.47  1733.08  1751.06
                             1780.65  1792.55  1824.96  1855.19  1881.21
                             1896.61  1922.22  1934.61  1948.07  1956.50
                             1974.28  1987.06  1998.27  2014.69  2021.34
                             2025.14  2034.03  2034.31  2047.36  2050.45
                             2065.40  2073.41  2082.57  2086.25  2152.95
                             2168.82  2173.24  2177.93  2180.81  2186.13
                             2188.78  2195.53  2206.28  2209.72  2214.99
                             2215.19  2229.41  2441.55  4327.89  4348.12
                             4360.23  4361.25  4362.03  4368.35  4369.29
                             4378.24  4388.24  4392.75  4394.66  4400.40
                             4409.62  4411.46  4414.44  4417.14  4422.99
                             4426.58  4455.79  4456.96  4465.60  4472.82
                             4477.85  4489.02  4490.80  4495.63  5011.89
                             5166.91

 Zero-point correction=                           0.413431 (Hartree/Particle)
 Thermal correction to Energy=                    0.430339
 Thermal correction to Enthalpy=                  0.431283
 Thermal correction to Gibbs Free Energy=         0.370249
 Sum of electronic and zero-point Energies=           -659.517534
 Sum of electronic and thermal Energies=              -659.500626
 Sum of electronic and thermal Enthalpies=            -659.499682
 Sum of electronic and thermal Free Energies=         -659.560716

                     E (Thermal)             CV                S
                      KCal/Mol        Cal/Mol-Kelvin    Cal/Mol-Kelvin
 Total                  270.042             68.149            128.458
 Electronic               0.000              0.000              0.000
 Translational            0.889              2.981             42.125
 Rotational               0.889              2.981             32.424
 Vibrational            268.264             62.188             53.909
 Vibration     1          0.594              1.983              5.636
 Vibration     2          0.597              1.972              4.336
 Vibration     3          0.599              1.966              4.057
 Vibration     4          0.606              1.941              3.266
 Vibration     5          0.612              1.924              2.951
 Vibration     6          0.613              1.920              2.891
 Vibration     7          0.628              1.872              2.374
 Vibration     8          0.638              1.841              2.138
 Vibration     9          0.652              1.796              1.884
 Vibration    10          0.652              1.796              1.882
 Vibration    11          0.658              1.776              1.787
 Vibration    12          0.677              1.719              1.562
 Vibration    13          0.684              1.698              1.492
 Vibration    14          0.690              1.680              1.437
 Vibration    15          0.704              1.640              1.323
 Vibration    16          0.715              1.608              1.243
 Vibration    17          0.741              1.536              1.084
 Vibration    18          0.746              1.524              1.060
 Vibration    19          0.755              1.499              1.014
 Vibration    20          0.768              1.465              0.954
 Vibration    21          0.786              1.418              0.879
 Vibration    22          0.802              1.377              0.818
 Vibration    23          0.812              1.354              0.786
 Vibration    24          0.835              1.298              0.715
 Vibration    25          0.869              1.220              0.625
 Vibration    26          0.897              1.158              0.561

 Optimization completed.
    -- Stationary point found.
 Normal termination of Gaussian 16 at Thu Dec 10 23:54:33 2020.

 ----------------------------------------------------------------------
 # B3LYP/6-311++G(d,p) empiricaldispersion=gd3bj scf=xqc pop=npa geom=c
 heck
 ----------------------------------------------------------------------

 ---------------------------------------
 CID_103464890_JID_6489_Energie_neutraal
 ---------------------------------------
 Structure from the checkpoint file:  "JID_6489.chk"
 Charge =  0 Multiplicity = 1

 SCF Done:  E(RB3LYP) =  -660.115102989     A.U. after   13 cycles
 Normal termination of Gaussian 16 at Fri Dec 11 00:05:12 2020.

 ----------------------------------------------------------------------
 # B3LYP/6-311++G(d,p) empiricaldispersion=gd3bj scf=xqc pop=npa geom=c
 heck
 ----------------------------------------------------------------------

 -------------------------------------
 CID_103464890_JID_6489_Energie_kation
 -------------------------------------
 Structure from the checkpoint file:  "JID_6489.chk"
 Charge =  1 Multiplicity = 2

 SCF Done:  E(UB3LYP) =  -659.845697665     A.U. after   24 cycles
 Normal termination of Gaussian 16 at Fri Dec 11 00:32:21 2020.
 Gaussian 16:  ES64L-G16RevA.03 25-Dec-2016

 ----------------------------------------------------------------------
 # B3LYP/6-311++G(d,p) empiricaldispersion=gd3bj scf=xqc pop=npa geom=c
 heck
 ----------------------------------------------------------------------

 ------------------------------------
 CID_103464890_JID_6489_Energie_anion
 ------------------------------------
 Structure from the checkpoint file:  "JID_6489.chk"
 Charge = -1 Multiplicity = 2

                         Standard orientation:
 ---------------------------------------------------------------------
 Center     Atomic      Atomic             Coordinates (Angstroms)
 Number     Number       Type             X           Y           Z
 ---------------------------------------------------------------------
      1          6           0       -3.092152    2.066615    0.312382
      2          6           0       -2.726511    1.012725   -0.738006
      3          6           0       -2.537118   -0.433674   -0.225892
      4          6           0       -3.755681   -0.905581    0.582177
      5          6           0       -2.350565   -1.350084   -1.445134
      6          6           0       -1.284932   -0.530936    0.681199
      7          7           0       -0.050656   -0.144303    0.001257
      8          6           0        0.908578   -1.227433   -0.255845
      9          6           0        1.659904   -1.653478    1.029392
     10          6           0        2.264420   -0.489174    1.833589
     11          6           0        1.313814    0.711125    1.903677
     12          6           0        0.647640    1.025376    0.549010
     13          6           0        1.570048    1.586900   -0.554802
     14          6           0        2.439008    0.578283   -1.366084
     15          6           0        1.768870   -0.808644   -1.462144
     16          7           0        3.851297    0.431847   -0.979032
     17          1           0       -4.070087    1.870252    0.764771
     18          1           0       -3.136250    3.061714   -0.144377
     19          1           0       -2.357591    2.114040    1.124357
     20          1           0       -3.507896    1.003887   -1.510453
     21          1           0       -1.796875    1.303397   -1.242522
     22          1           0       -4.678239   -0.800201   -0.001286
     23          1           0       -3.654849   -1.962664    0.857184
     24          1           0       -3.878573   -0.333805    1.508886
     25          1           0       -1.485385   -1.031424   -2.035235
     26          1           0       -2.192995   -2.391957   -1.138569
     27          1           0       -3.234920   -1.323110   -2.092834
     28          1           0       -1.439937    0.093833    1.570364
     29          1           0       -1.212266   -1.562932    1.054833
     30          1           0        0.329528   -2.096702   -0.585834
     31          1           0        2.431548   -2.394941    0.784817
     32          1           0        0.933131   -2.169908    1.670996
     33          1           0        2.514649   -0.832710    2.844774
     34          1           0        3.208670   -0.162864    1.391302
     35          1           0        0.513615    0.494956    2.624488
     36          1           0        1.840330    1.596665    2.282340
     37          1           0       -0.109776    1.795537    0.732508
     38          1           0        2.215955    2.372894   -0.140276
     39          1           0        0.903519    2.079356   -1.273216
     40          1           0        2.479800    0.985067   -2.384348
     41          1           0        2.541131   -1.558601   -1.671413
     42          1           0        1.090418   -0.798974   -2.321945
     43          1           0        4.239775    1.332373   -0.703290
     44          1           0        3.957151   -0.188114   -0.182701
 ---------------------------------------------------------------------

 SCF Done:  E(UB3LYP) =  -660.102652397     A.U. after   29 cycles

 The electronic state is 2-A.
 Alpha  occ. eigenvalues --  -14.19308 -14.19201 -10.09939 -10.09628 -10.09411
 Alpha  occ. eigenvalues --  -10.08733 -10.07927 -10.06438 -10.06405 -10.06400
 Alpha  occ. eigenvalues --  -10.06270 -10.06196 -10.06102 -10.06046 -10.05976
 Alpha  occ. eigenvalues --  -10.05644  -0.83199  -0.78586  -0.72767  -0.68522
 Alpha  occ. eigenvalues --   -0.67578  -0.66011  -0.63832  -0.58957  -0.58089
 Alpha  occ. eigenvalues --   -0.57801  -0.52882  -0.52356  -0.50508  -0.48927
 Alpha  occ. eigenvalues --   -0.43699  -0.40944  -0.39263  -0.38956  -0.37331
 Alpha  occ. eigenvalues --   -0.36855  -0.36212  -0.34848  -0.34715  -0.33834
 Alpha  occ. eigenvalues --   -0.32670  -0.32208  -0.31579  -0.31227  -0.30300
 Alpha  occ. eigenvalues --   -0.28961  -0.28769  -0.28279  -0.27398  -0.26422
 Alpha  occ. eigenvalues --   -0.26006  -0.25076  -0.24461  -0.24370  -0.23211
 Alpha  occ. eigenvalues --   -0.22753  -0.22334  -0.21690  -0.21332  -0.20731
 Alpha  occ. eigenvalues --   -0.19990  -0.14126  -0.10459   0.04178
 Alpha virt. eigenvalues --    0.06317   0.06754   0.07129   0.08139   0.08305
 Alpha virt. eigenvalues --    0.08681   0.09142   0.09416   0.10471   0.10599
 Alpha virt. eigenvalues --    0.10974   0.11113   0.11621   0.12236   0.12334

  Beta  occ. eigenvalues --  -14.19307 -14.19182 -10.09934 -10.09624 -10.09405
  Beta  occ. eigenvalues --  -10.08717 -10.07926 -10.06419 -10.06390 -10.06387
  Beta  occ. eigenvalues --  -10.06251 -10.06183 -10.06081 -10.06021 -10.05954
  Beta  occ. eigenvalues --  -10.05627  -0.83186  -0.78553  -0.72749  -0.68490
  Beta  occ. eigenvalues --   -0.67551  -0.65977  -0.63801  -0.58919  -0.58053
  Beta  occ. eigenvalues --   -0.57757  -0.52831  -0.52310  -0.50475  -0.48884
  Beta  occ. eigenvalues --   -0.43657  -0.40893  -0.39225  -0.38922  -0.37310
  Beta  occ. eigenvalues --   -0.36832  -0.36182  -0.34817  -0.34693  -0.33798
  Beta  occ. eigenvalues --   -0.32641  -0.32183  -0.31551  -0.31195  -0.30272
  Beta  occ. eigenvalues --   -0.28934  -0.28741  -0.28254  -0.27372  -0.26389
  Beta  occ. eigenvalues --   -0.25976  -0.25052  -0.24434  -0.24345  -0.23181
  Beta  occ. eigenvalues --   -0.22725  -0.22309  -0.21661  -0.21308  -0.20701
  Beta  occ. eigenvalues --   -0.19961  -0.14101  -0.10445
  Beta virt. eigenvalues --    0.06114   0.06941   0.07383   0.07620   0.08501
  Beta virt. eigenvalues --    0.08671   0.08983   0.09551   0.09735   0.10703
  Beta virt. eigenvalues --    0.10915   0.11219   0.11322   0.11772   0.12523

 Mulliken charges and spin densities:
               1          2
     1  C    0.530966  -1.164955
     2  C   -0.614797   0.403642
     3  C   -0.059347   1.051715
     4  C    0.105718  -0.833357
     5  C   -0.023380  -0.550391
     6  C   -0.040155  -1.185540
     7  N    0.559180   0.023538
     8  C   -0.973527   1.039171
     9  C    0.412955  -0.853567
    10  C    0.348184  -0.704646
    11  C    0.353626  -0.777044
    12  C   -1.183417   1.339669
    13  C    0.699250  -1.521311
    14  C   -0.256629   0.515686
    15  C    0.373288  -1.081171
    16  N   -0.312329  -0.040422
    17  H    0.040400   0.104183
    18  H   -0.154757   0.297274
    19  H   -0.232232   0.377248
    20  H   -0.066971   0.227191
    21  H    0.086685   0.068004
    22  H   -0.002153   0.154695
    23  H   -0.083924   0.218653
    24  H   -0.135795   0.266725
    25  H   -0.092848   0.200220
    26  H   -0.010452   0.152191
    27  H   -0.018879   0.176058
    28  H    0.292824  -0.111730
    29  H    0.193792  -0.016349
    30  H    0.102029   0.088953
    31  H   -0.196610   0.366522
    32  H   -0.209298   0.338935
    33  H   -0.424077   0.634360
    34  H    0.240716  -0.195361
    35  H   -0.053871   0.172612
    36  H   -0.509739   0.685320
    37  H    0.081803   0.104810
    38  H   -0.188973   0.359531
    39  H    0.088757   0.023320
    40  H   -0.010919   0.259304
    41  H    0.012669   0.173480
    42  H    0.174709  -0.059963
    43  H    0.013044   0.203521
    44  H    0.144484   0.069277
 Sum of Mulliken charges =  -1.00000   1.00000

 Dipole moment (field-independent basis, Debye):
    X=             -0.9939    Y=             -0.9005    Z=             -2.0490  Tot=              2.4489
 Quadrupole moment (field-independent basis, Debye-Ang):
   XX=           -176.0209   YY=           -150.4118   ZZ=           -151.6941
   XY=             -0.0480   XZ=             -0.5864   YZ=              0.3456

 Summary of Natural Population Analysis:

                                       Natural Population
                Natural  -----------------------------------------------
    Atom  No    Charge         Core      Valence    Rydberg      Total
 -----------------------------------------------------------------------
      C    1   -0.28730      0.99966     2.28270    0.00495     3.28730
      C    2   -0.19085      0.99959     2.18187    0.00940     3.19085
      C    3   -0.04853      0.99957     2.03722    0.01175     3.04853
      C    4   -0.28807      0.99963     2.28119    0.00726     3.28807
      C    5   -0.28442      0.99962     2.27874    0.00606     3.28442
      C    6   -0.08094      0.99955     2.06852    0.01287     3.08094
      N    7   -0.29982      0.99969     2.78530    0.01483     3.79982
      C    8   -0.00064      0.99957     1.98811    0.01297     3.00064
      C    9   -0.19967      0.99960     2.19134    0.00872     3.19967
      C   10   -0.19066      0.99961     2.18281    0.00824     3.19066
      C   11   -0.19689      0.99960     2.18824    0.00905     3.19689
      C   12   -0.00171      0.99957     1.98828    0.01387     3.00171
      C   13   -0.19651      0.99958     2.18646    0.01047     3.19651
      C   14   -0.01346      0.99959     2.00145    0.01241     3.01346
      C   15   -0.19261      0.99958     2.18435    0.00869     3.19261
      N   16   -0.42156      0.99977     2.91210    0.00969     3.92156
      H   17    0.09540      0.00000     0.40364    0.00096     0.40460
      H   18    0.09899      0.00000     0.40021    0.00080     0.40101
      H   19    0.09639      0.00000     0.40234    0.00127     0.40361
      H   20    0.09372      0.00000     0.40530    0.00098     0.40628
      H   21    0.10343      0.00000     0.39458    0.00199     0.39657
      H   22    0.09912      0.00000     0.40008    0.00080     0.40088
      H   23    0.09964      0.00000     0.39946    0.00090     0.40036
      H   24    0.10055      0.00000     0.39853    0.00092     0.39945
      H   25    0.10508      0.00000     0.39358    0.00134     0.39492
      H   26    0.09691      0.00000     0.40217    0.00092     0.40309
      H   27    0.09714      0.00000     0.40199    0.00088     0.40286
      H   28    0.09582      0.00000     0.40247    0.00171     0.40418
      H   29    0.09335      0.00000     0.40504    0.00162     0.40665
      H   30    0.09947      0.00000     0.39895    0.00158     0.40053
      H   31    0.09859      0.00000     0.40034    0.00108     0.40141
      H   32    0.09885      0.00000     0.39979    0.00136     0.40115
      H   33    0.09994      0.00000     0.39866    0.00140     0.40006
      H   34    0.08586      0.00000     0.41207    0.00206     0.41414
      H   35    0.09756      0.00000     0.40102    0.00142     0.40244
      H   36    0.10071      0.00000     0.39793    0.00136     0.39929
      H   37    0.09964      0.00000     0.39838    0.00198     0.40036
      H   38    0.09800      0.00000     0.40069    0.00131     0.40200
      H   39    0.10219      0.00000     0.39614    0.00166     0.39781
      H   40    0.08846      0.00000     0.40991    0.00163     0.41154
      H   41    0.10152      0.00000     0.39732    0.00116     0.39848
      H   42    0.10381      0.00000     0.39490    0.00129     0.39619
      H   43    0.17269      0.00000     0.32543    0.00188     0.32731
      H   44    0.17084      0.00000     0.32687    0.00229     0.32916
 =======================================================================
   * Total *    0.00000     15.99378    46.80648    0.19974    63.00000

 Normal termination of Gaussian 16 at Fri Dec 11 01:04:53 2020.
