 Gaussian 16, Revision A.03,

 -----------------------------------------------------------
 # opt freq B3LYP/6-31G(d) empiricaldispersion=gd3bj scf=xqc
 -----------------------------------------------------------

 -----------------------------
 CID_53702734_JID_256_neutraal
 -----------------------------
 Symbolic Z-matrix:
 Charge =  0 Multiplicity = 1

 SCF Done:  E(RB3LYP) =  -477.091448515     A.U. after   17 cycles
 SCF Done:  E(RB3LYP) =  -477.148794777     A.U. after   14 cycles
 SCF Done:  E(RB3LYP) =  -477.195159358     A.U. after   15 cycles
 SCF Done:  E(RB3LYP) =  -477.206880296     A.U. after   14 cycles
 SCF Done:  E(RB3LYP) =  -477.216391736     A.U. after   13 cycles
 SCF Done:  E(RB3LYP) =  -477.221445197     A.U. after   12 cycles
 SCF Done:  E(RB3LYP) =  -477.226148867     A.U. after   12 cycles
 SCF Done:  E(RB3LYP) =  -477.229423786     A.U. after   12 cycles
 SCF Done:  E(RB3LYP) =  -477.232362376     A.U. after   12 cycles
 SCF Done:  E(RB3LYP) =  -477.233960058     A.U. after   12 cycles
 SCF Done:  E(RB3LYP) =  -477.238855407     A.U. after   10 cycles
 SCF Done:  E(RB3LYP) =  -477.238863212     A.U. after    9 cycles
 SCF Done:  E(RB3LYP) =  -477.238863977     A.U. after    9 cycles
 SCF Done:  E(RB3LYP) =  -477.238864350     A.U. after    8 cycles
 SCF Done:  E(RB3LYP) =  -477.238864803     A.U. after    8 cycles
 SCF Done:  E(RB3LYP) =  -477.238864871     A.U. after    7 cycles
 Optimization completed.
    -- Stationary point found.
 Normal termination of Gaussian 16 at Tue Dec  8 10:28:18 2020.

 --------------------------------------------------------------------
 #N Geom=AllCheck Guess=TCheck SCRF=Check GenChk RB3LYP/6-31G(d) Freq
 --------------------------------------------------------------------

 Structure from the checkpoint file:  "JID_256.chk"
 -----------------------------
 CID_53702734_JID_256_neutraal
 -----------------------------
 Charge =  0 Multiplicity = 1

 SCF Done:  E(RB3LYP) =  -477.238864871     A.U. after    1 cycles

  Exact polarizability: 113.482  -0.003  89.724  -0.923  -0.001  51.027
 Approx polarizability: 164.025  -0.008 151.143   5.693  -0.001  78.050

                      1                      2                      3
                      A                      A                      A
 Frequencies --     60.8435                94.0568               159.0596
 Red. masses --      1.0326                 3.1701                 6.4442
 Frc consts  --      0.0023                 0.0165                 0.0961
 IR Inten    --      0.0620                10.0122                 2.8948

                      4                      5                      6
                      A                      A                      A
 Frequencies --    197.9677               232.3133               251.3010
 Red. masses --      2.5307                 1.2175                 2.5382
 Frc consts  --      0.0584                 0.0387                 0.0944
 IR Inten    --      1.6368                 0.2872                47.8191

                      7                      8                      9
                      A                      A                      A
 Frequencies --    278.8883               288.7201               304.9759
 Red. masses --      2.9115                 1.2216                 2.4103
 Frc consts  --      0.1334                 0.0600                 0.1321
 IR Inten    --      2.4408                 1.4954                68.4413

                     10                     11                     12
                      A                      A                      A
 Frequencies --    311.4723               322.2407               407.4536
 Red. masses --      2.4577                 1.8728                 3.6138
 Frc consts  --      0.1405                 0.1146                 0.3535
 IR Inten    --     10.7594               118.2297                26.4767

                     13                     14                     15
                      A                      A                      A
 Frequencies --    472.9899               586.1349               605.2827
 Red. masses --      5.5578                 7.0919                 5.2147
 Frc consts  --      0.7326                 1.4355                 1.1256
 IR Inten    --      0.0070                25.7906                44.4990

                     16                     17                     18
                      A                      A                      A
 Frequencies --    642.7919               643.2277               707.4251
 Red. masses --      9.5389                 9.4631                 3.6663
 Frc consts  --      2.3221                 2.3068                 1.0810
 IR Inten    --     17.2819                11.5228                12.5382

                     19                     20                     21
                      A                      A                      A
 Frequencies --    748.0221               828.5370               987.5365
 Red. masses --      5.7374                 3.8262                 1.7026
 Frc consts  --      1.8914                 1.5475                 0.9783
 IR Inten    --     78.4479                 0.1802                 0.0071

                     22                     23                     24
                      A                      A                      A
 Frequencies --   1019.4892              1043.6463              1075.0127
 Red. masses --      3.8670                 1.4248                 2.0162
 Frc consts  --      2.3681                 0.9143                 1.3728
 IR Inten    --      6.0678                 0.1544                 3.5055

                     25                     26                     27
                      A                      A                      A
 Frequencies --   1126.1947              1142.4984              1159.7460
 Red. masses --      2.2882                 1.4802                 1.3186
 Frc consts  --      1.7099                 1.1384                 1.0449
 IR Inten    --     23.7232               106.1477                 9.8669

                     28                     29                     30
                      A                      A                      A
 Frequencies --   1185.7452              1260.6627              1285.5271
 Red. masses --      3.0327                 1.9853                 1.4713
 Frc consts  --      2.5123                 1.8590                 1.4326
 IR Inten    --    211.9227                11.6825                79.6508

                     31                     32                     33
                      A                      A                      A
 Frequencies --   1322.6458              1418.8659              1436.5503
 Red. masses --      2.2111                 1.7015                 1.4597
 Frc consts  --      2.2790                 2.0182                 1.7749
 IR Inten    --     70.5224                26.9200                24.3257

                     34                     35                     36
                      A                      A                      A
 Frequencies --   1453.1536              1464.6345              1516.2976
 Red. masses --      3.2054                 1.6133                 1.0881
 Frc consts  --      3.9880                 2.0390                 1.4739
 IR Inten    --      0.0582                 5.5454                28.1583

                     37                     38                     39
                      A                      A                      A
 Frequencies --   1520.1419              1520.5489              1529.9050
 Red. masses --      1.0470                 1.0763                 2.1106
 Frc consts  --      1.4255                 1.4661                 2.9106
 IR Inten    --      4.4647                 1.2754                21.3194

                     40                     41                     42
                      A                      A                      A
 Frequencies --   1538.4664              1589.4344              1680.9387
 Red. masses --      1.1367                 7.9541                10.8458
 Frc consts  --      1.5852                11.8393                18.0558
 IR Inten    --      1.4378               420.9955               341.3096

                     43                     44                     45
                      A                      A                      A
 Frequencies --   3036.6757              3046.6475              3061.5247
 Red. masses --      1.0757                 1.0443                 1.0424
 Frc consts  --      5.8445                 5.7111                 5.7568
 IR Inten    --     45.9040                69.9270                42.8053

                     46                     47                     48
                      A                      A                      A
 Frequencies --   3104.9589              3140.7688              3142.2688
 Red. masses --      1.1023                 1.0930                 1.1013
 Frc consts  --      6.2611                 6.3524                 6.4067
 IR Inten    --     30.1673                11.7329                27.9103

                     49                     50                     51
                      A                      A                      A
 Frequencies --   3179.6357              3774.7041              3774.9586
 Red. masses --      1.1059                 1.0656                 1.0657
 Frc consts  --      6.5878                 8.9456                 8.9473
 IR Inten    --      3.8713               129.9841                12.9111

 - Thermochemistry -
 -------------------
 Temperature   298.150 Kelvin.  Pressure   1.00000 Atm.
 Atom     1 has atomic number  6 and mass  12.00000

 Molecular mass:   139.06333 amu.
 Principal axes and moments of inertia in atomic units:
                           1         2         3
     Eigenvalues --   883.933421564.541792378.09478
           X            1.00000   0.00000  -0.00126
           Y           -0.00000   1.00000  -0.00000
           Z            0.00126   0.00000   1.00000
 This molecule is an asymmetric top.
 Rotational symmetry number  1.
 Warning -- assumption of classical behavior for rotation
           may cause significant error
 Rotational temperatures (Kelvin)      0.09799     0.05536     0.03642
 Rotational constants (GHZ):           2.04172     1.15353     0.75890
 Zero-point vibrational energy     398855.8 (Joules/Mol)
                                   95.32883 (Kcal/Mol)
 Warning -- explicit consideration of  15 degrees of freedom as
           vibrations may cause significant error
 Vibrational temperatures:     87.54   135.33   228.85   284.83   334.25
          (Kelvin)            361.57   401.26   415.40   438.79   448.14
                              463.63   586.23   680.53   843.32   870.87
                              924.83   925.46  1017.83  1076.24  1192.08
                             1420.84  1466.82  1501.57  1546.70  1620.34
                             1643.80  1668.62  1706.02  1813.81  1849.59
                             1902.99  2041.43  2066.88  2090.76  2107.28
                             2181.61  2187.15  2187.73  2201.19  2213.51
                             2286.84  2418.50  4369.10  4383.45  4404.85
                             4467.34  4518.87  4521.02  4574.79  5430.96
                             5431.32

 Zero-point correction=                           0.151916 (Hartree/Particle)
 Thermal correction to Energy=                    0.162313
 Thermal correction to Enthalpy=                  0.163257
 Thermal correction to Gibbs Free Energy=         0.116473
 Sum of electronic and zero-point Energies=           -477.086949
 Sum of electronic and thermal Energies=              -477.076552
 Sum of electronic and thermal Enthalpies=            -477.075608
 Sum of electronic and thermal Free Energies=         -477.122392

                     E (Thermal)             CV                S
                      KCal/Mol        Cal/Mol-Kelvin    Cal/Mol-Kelvin
 Total                  101.853             38.017             98.466
 Electronic               0.000              0.000              0.000
 Translational            0.889              2.981             40.701
 Rotational               0.889              2.981             29.576
 Vibrational            100.075             32.055             28.188
 Vibration     1          0.597              1.973              4.430
 Vibration     2          0.603              1.953              3.574
 Vibration     3          0.621              1.892              2.561
 Vibration     4          0.637              1.843              2.152
 Vibration     5          0.653              1.792              1.861
 Vibration     6          0.663              1.761              1.721
 Vibration     7          0.679              1.713              1.540
 Vibration     8          0.685              1.695              1.481
 Vibration     9          0.696              1.664              1.389
 Vibration    10          0.700              1.652              1.354
 Vibration    11          0.707              1.631              1.299
 Vibration    12          0.772              1.454              0.936
 Vibration    13          0.830              1.310              0.729
 Vibration    14          0.943              1.061              0.474
 Vibration    15          0.964              1.021              0.441

 Optimization completed.
    -- Stationary point found.
 Normal termination of Gaussian 16 at Tue Dec  8 10:31:26 2020.

 ----------------------------------------------------------------------
 # B3LYP/6-311++G(d,p) empiricaldispersion=gd3bj scf=xqc pop=npa geom=c
 heck
 ----------------------------------------------------------------------

 -------------------------------------
 CID_53702734_JID_256_Energie_neutraal
 -------------------------------------
 Structure from the checkpoint file:  "JID_256.chk"
 Charge =  0 Multiplicity = 1

 SCF Done:  E(RB3LYP) =  -477.388595530     A.U. after   15 cycles
 Normal termination of Gaussian 16 at Tue Dec  8 10:32:57 2020.

 ----------------------------------------------------------------------
 # B3LYP/6-311++G(d,p) empiricaldispersion=gd3bj scf=xqc pop=npa geom=c
 heck
 ----------------------------------------------------------------------

 -----------------------------------
 CID_53702734_JID_256_Energie_kation
 -----------------------------------
 Structure from the checkpoint file:  "JID_256.chk"
 Charge =  1 Multiplicity = 2

 SCF Done:  E(UB3LYP) =  -477.127911061     A.U. after   17 cycles
 Normal termination of Gaussian 16 at Tue Dec  8 10:35:48 2020.
 Gaussian 16:  ES64L-G16RevA.03 25-Dec-2016

 ----------------------------------------------------------------------
 # B3LYP/6-311++G(d,p) empiricaldispersion=gd3bj scf=xqc pop=npa geom=c
 heck
 ----------------------------------------------------------------------

 ----------------------------------
 CID_53702734_JID_256_Energie_anion
 ----------------------------------
 Structure from the checkpoint file:  "JID_256.chk"
 Charge = -1 Multiplicity = 2

                         Standard orientation:
 ---------------------------------------------------------------------
 Center     Atomic      Atomic             Coordinates (Angstroms)
 Number     Number       Type             X           Y           Z
 ---------------------------------------------------------------------
      1          6           0        3.388436    0.000092    0.222251
      2          6           0        2.028388   -0.000023   -0.447803
      3          6           0        0.878323    0.725056    0.177420
      4          6           0       -0.419091    1.116500   -0.004339
      5          7           0       -1.242686   -0.000056    0.003980
      6          6           0       -0.419169   -1.116499   -0.004433
      7          6           0        0.878360   -0.725164    0.177475
      8          8           0       -1.038181   -2.331086   -0.075552
      9          6           0       -2.691979    0.000036    0.102447
     10          8           0       -1.038296    2.331042   -0.075562
     11          1           0        3.276392    0.000022    1.309702
     12          1           0        3.961043    0.888005   -0.072004
     13          1           0        3.961360   -0.887580   -0.072101
     14          1           0        2.097572    0.000065   -1.543615
     15          1           0       -0.334592   -2.997624   -0.072795
     16          1           0       -3.017429    0.000654    1.149259
     17          1           0       -3.079255    0.892481   -0.391815
     18          1           0       -3.079274   -0.892964   -0.390792
     19          1           0       -0.334801    2.997686   -0.072904
 ---------------------------------------------------------------------

 SCF Done:  E(UB3LYP) =  -477.372647799     A.U. after   30 cycles

 The electronic state is 2-A.
 Alpha  occ. eigenvalues --  -19.04631 -19.04630 -14.25398 -10.14674 -10.14673
 Alpha  occ. eigenvalues --  -10.10723 -10.10001 -10.05554 -10.03737 -10.03697
 Alpha  occ. eigenvalues --   -0.96695  -0.95613  -0.86513  -0.75650  -0.65290
 Alpha  occ. eigenvalues --   -0.59656  -0.59432  -0.50426  -0.48643  -0.47137
 Alpha  occ. eigenvalues --   -0.41408  -0.38362  -0.37672  -0.36551  -0.32620
 Alpha  occ. eigenvalues --   -0.32163  -0.30817  -0.29834  -0.29174  -0.28186
 Alpha  occ. eigenvalues --   -0.27602  -0.26964  -0.21530  -0.20459  -0.15009
 Alpha  occ. eigenvalues --   -0.12244  -0.06981   0.04875
 Alpha virt. eigenvalues --    0.06569   0.07488   0.08719   0.09630   0.10852
 Alpha virt. eigenvalues --    0.11012   0.11694   0.11947   0.12523   0.13445
 Alpha virt. eigenvalues --    0.14421   0.16251   0.16491   0.16925   0.17985

  Beta  occ. eigenvalues --  -19.04578 -19.04577 -14.25367 -10.14663 -10.14662
  Beta  occ. eigenvalues --  -10.10700 -10.09969 -10.05537 -10.03724 -10.03684
  Beta  occ. eigenvalues --   -0.96606  -0.95513  -0.86437  -0.75603  -0.65248
  Beta  occ. eigenvalues --   -0.59569  -0.59380  -0.50357  -0.48584  -0.47004
  Beta  occ. eigenvalues --   -0.41356  -0.38295  -0.37603  -0.36490  -0.32591
  Beta  occ. eigenvalues --   -0.32103  -0.30761  -0.29796  -0.29123  -0.28107
  Beta  occ. eigenvalues --   -0.27550  -0.26921  -0.21493  -0.20379  -0.14926
  Beta  occ. eigenvalues --   -0.12171  -0.06912
  Beta virt. eigenvalues --    0.07439   0.07942   0.08212   0.09569   0.10153
  Beta virt. eigenvalues --    0.11225   0.11349   0.11865   0.12093   0.13201
  Beta virt. eigenvalues --    0.13625   0.14643   0.16192   0.16896   0.16975

 Mulliken charges and spin densities:
               1          2
     1  C    0.518425  -1.043492
     2  C   -0.945029   0.958818
     3  C    0.674239  -0.239337
     4  C    0.132745  -0.746768
     5  N   -0.004515  -0.048745
     6  C    0.133680  -0.747230
     7  C    0.673186  -0.238721
     8  O   -0.343711   0.093637
     9  C    0.684882  -0.971466
    10  O   -0.343810   0.093646
    11  H   -0.058617   0.194028
    12  H   -0.057578   0.180433
    13  H   -0.057556   0.180395
    14  H   -0.614909   0.807763
    15  H   -0.409760   0.719353
    16  H   -0.010728   0.179919
    17  H   -0.280472   0.454103
    18  H   -0.280563   0.454172
    19  H   -0.409911   0.719492
 Sum of Mulliken charges =  -1.00000   1.00000

 Dipole moment (field-independent basis, Debye):
    X=              0.1397    Y=             -0.0011    Z=              1.4689  Tot=              1.4755
 Quadrupole moment (field-independent basis, Debye-Ang):
   XX=            -98.4188   YY=           -112.9660   ZZ=            -82.8537
   XY=             -0.0000   XZ=             -0.0248   YZ=              0.0023

 Summary of Natural Population Analysis:

                                       Natural Population
                Natural  -----------------------------------------------
    Atom  No    Charge         Core      Valence    Rydberg      Total
 -----------------------------------------------------------------------
      C    1   -0.28003      0.99964     2.27494    0.00545     3.28003
      C    2   -0.08096      0.99956     2.06770    0.01370     3.08096
      C    3   -0.11765      0.99923     2.10274    0.01568     3.11765
      C    4    0.24376      0.99931     1.74086    0.01606     2.75624
      N    5   -0.21693      0.99960     2.70665    0.01068     3.71693
      C    6    0.24380      0.99932     1.74083    0.01606     2.75620
      C    7   -0.11769      0.99923     2.10277    0.01568     3.11769
      O    8   -0.34350      0.99988     3.33711    0.00652     4.34350
      C    9   -0.17744      0.99964     2.17039    0.00741     3.17744
      O   10   -0.34351      0.99988     3.33712    0.00652     4.34351
      H   11    0.10141      0.00000     0.39656    0.00203     0.39859
      H   12    0.09554      0.00000     0.40286    0.00160     0.40446
      H   13    0.09554      0.00000     0.40286    0.00160     0.40446
      H   14    0.09788      0.00000     0.39988    0.00224     0.40212
      H   15    0.24577      0.00000     0.23784    0.01639     0.25423
      H   16    0.09398      0.00000     0.40440    0.00162     0.40602
      H   17    0.10712      0.00000     0.39107    0.00181     0.39288
      H   18    0.10713      0.00000     0.39106    0.00181     0.39287
      H   19    0.24577      0.00000     0.23783    0.01640     0.25423
 =======================================================================
   * Total *    0.00000      9.99528    26.84549    0.15924    37.00000

 Normal termination of Gaussian 16 at Tue Dec  8 10:42:26 2020.
