 Gaussian 16, Revision A.03,

 -----------------------------------------------------------
 # opt freq B3LYP/6-31G(d) empiricaldispersion=gd3bj scf=xqc
 -----------------------------------------------------------

 ------------------------------
 CID_89493080_JID_1401_neutraal
 ------------------------------
 Symbolic Z-matrix:
 Charge =  0 Multiplicity = 1

 SCF Done:  E(RB3LYP) =  -1197.09474600     A.U. after   14 cycles
 SCF Done:  E(RB3LYP) =  -1197.10270088     A.U. after   13 cycles
 SCF Done:  E(RB3LYP) =  -1197.10450094     A.U. after   12 cycles
 SCF Done:  E(RB3LYP) =  -1197.10564792     A.U. after   12 cycles
 SCF Done:  E(RB3LYP) =  -1197.10599089     A.U. after   12 cycles
 SCF Done:  E(RB3LYP) =  -1197.10608211     A.U. after   12 cycles
 SCF Done:  E(RB3LYP) =  -1197.10640002     A.U. after   12 cycles
 SCF Done:  E(RB3LYP) =  -1197.10656686     A.U. after   11 cycles
 SCF Done:  E(RB3LYP) =  -1197.10676625     A.U. after   12 cycles
 SCF Done:  E(RB3LYP) =  -1197.10691607     A.U. after   12 cycles
 SCF Done:  E(RB3LYP) =  -1197.10782209     A.U. after   12 cycles
 SCF Done:  E(RB3LYP) =  -1197.10792849     A.U. after   12 cycles
 SCF Done:  E(RB3LYP) =  -1197.10792805     A.U. after   10 cycles
 SCF Done:  E(RB3LYP) =  -1197.10793330     A.U. after   10 cycles
 SCF Done:  E(RB3LYP) =  -1197.10793361     A.U. after    9 cycles
 SCF Done:  E(RB3LYP) =  -1197.10793367     A.U. after    7 cycles
 Optimization completed.
    -- Stationary point found.
 Normal termination of Gaussian 16 at Tue Dec  8 19:58:57 2020.

 --------------------------------------------------------------------
 #N Geom=AllCheck Guess=TCheck SCRF=Check GenChk RB3LYP/6-31G(d) Freq
 --------------------------------------------------------------------

 Structure from the checkpoint file:  "JID_1401.chk"
 ------------------------------
 CID_89493080_JID_1401_neutraal
 ------------------------------
 Charge =  0 Multiplicity = 1

 SCF Done:  E(RB3LYP) =  -1197.10793367     A.U. after    1 cycles

  Exact polarizability: 153.515  -3.156 124.356  -6.663  -6.182  89.504
 Approx polarizability: 208.289   2.530 200.896 -14.114 -14.730 136.059

                      1                      2                      3
                      A                      A                      A
 Frequencies --     24.8280                32.9201                49.5842
 Red. masses --      6.1325                 4.3221                 6.5060
 Frc consts  --      0.0022                 0.0028                 0.0094
 IR Inten    --      0.4106                 0.1770                 0.6393

                      4                      5                      6
                      A                      A                      A
 Frequencies --     67.2656                91.9159               125.0555
 Red. masses --      5.2418                 3.0509                 2.6849
 Frc consts  --      0.0140                 0.0152                 0.0247
 IR Inten    --      2.1650                 0.4760                 4.9043

                      7                      8                      9
                      A                      A                      A
 Frequencies --    162.5816               203.8549               249.8683
 Red. masses --      1.2032                 4.0663                 2.6237
 Frc consts  --      0.0187                 0.0996                 0.0965
 IR Inten    --     26.4308                 2.1764                 3.6347

                     10                     11                     12
                      A                      A                      A
 Frequencies --    260.7977               296.4214               319.6473
 Red. masses --      3.3394                 3.1549                 1.5140
 Frc consts  --      0.1338                 0.1633                 0.0911
 IR Inten    --      0.9002                 8.5957                 8.3018

                     13                     14                     15
                      A                      A                      A
 Frequencies --    342.4686               369.0704               458.1803
 Red. masses --      3.0425                 2.4093                 3.4314
 Frc consts  --      0.2102                 0.1934                 0.4244
 IR Inten    --      1.6644                 4.6132                 5.4323

                     16                     17                     18
                      A                      A                      A
 Frequencies --    510.8171               524.9265               550.0878
 Red. masses --      2.7756                 2.9087                 3.9360
 Frc consts  --      0.4267                 0.4722                 0.7017
 IR Inten    --      9.8400                14.8059                17.4213

                     19                     20                     21
                      A                      A                      A
 Frequencies --    581.6646               607.2067               685.7084
 Red. masses --      3.0063                 1.7687                 1.8330
 Frc consts  --      0.5993                 0.3842                 0.5078
 IR Inten    --     27.3395                58.7184                65.2352

                     22                     23                     24
                      A                      A                      A
 Frequencies --    703.9064               772.9988               789.1784
 Red. masses --      1.5586                 1.3911                 1.3766
 Frc consts  --      0.4550                 0.4897                 0.5051
 IR Inten    --     83.0426                44.6648                21.4105

                     25                     26                     27
                      A                      A                      A
 Frequencies --    859.1396               892.9412               910.3894
 Red. masses --      2.0225                 1.4712                 1.3559
 Frc consts  --      0.8795                 0.6911                 0.6621
 IR Inten    --     13.5597               106.2335                76.1808

                     28                     29                     30
                      A                      A                      A
 Frequencies --    928.3903               961.9625              1006.0420
 Red. masses --      1.2691                 1.8634                 2.8936
 Frc consts  --      0.6445                 1.0160                 1.7255
 IR Inten    --     31.4647                38.9122                34.1373

                     31                     32                     33
                      A                      A                      A
 Frequencies --   1016.1416              1070.5739              1083.6121
 Red. masses --      2.5283                 2.4377                 3.5333
 Frc consts  --      1.5381                 1.6461                 2.4444
 IR Inten    --     33.6419                23.0069                30.0328

                     34                     35                     36
                      A                      A                      A
 Frequencies --   1090.2994              1173.9295              1197.9142
 Red. masses --      2.6322                 1.8391                 2.1932
 Frc consts  --      1.8435                 1.4933                 1.8543
 IR Inten    --      6.6460                36.7929                93.4122

                     37                     38                     39
                      A                      A                      A
 Frequencies --   1225.2639              1259.7710              1286.2505
 Red. masses --      1.4158                 1.3142                 1.2846
 Frc consts  --      1.2523                 1.2288                 1.2522
 IR Inten    --     28.0833                20.2778                 2.6053

                     40                     41                     42
                      A                      A                      A
 Frequencies --   1326.6658              1352.2763              1357.6997
 Red. masses --      1.4577                 1.1750                 1.5824
 Frc consts  --      1.5117                 1.2659                 1.7186
 IR Inten    --     56.2980                32.6985                86.6903

                     43                     44                     45
                      A                      A                      A
 Frequencies --   1380.8662              1397.5528              1424.4391
 Red. masses --      1.3589                 1.2767                 1.3633
 Frc consts  --      1.5266                 1.4692                 1.6297
 IR Inten    --     72.0166                 1.3920                 8.4532

                     46                     47                     48
                      A                      A                      A
 Frequencies --   1437.5953              1505.4027              1516.4132
 Red. masses --      1.3658                 1.1791                 1.1013
 Frc consts  --      1.6630                 1.5743                 1.4921
 IR Inten    --      5.8017                40.5045                 2.7020

                     49                     50                     51
                      A                      A                      A
 Frequencies --   1521.9963              1530.7943              1560.6667
 Red. masses --      1.3329                 1.1750                 1.9706
 Frc consts  --      1.8191                 1.6223                 2.8280
 IR Inten    --     52.6630                44.0445               315.9293

                     52                     53                     54
                      A                      A                      A
 Frequencies --   1676.4485              1756.7746              2727.4956
 Red. masses --      1.2459                 3.1876                 1.0381
 Frc consts  --      2.0631                 5.7962                 4.5501
 IR Inten    --      9.3543                87.2571                 0.1594

                     55                     56                     57
                      A                      A                      A
 Frequencies --   3042.9443              3047.7831              3069.4326
 Red. masses --      1.0624                 1.0610                 1.0670
 Frc consts  --      5.7959                 5.8067                 5.9231
 IR Inten    --      9.0038                39.3830                13.0408

                     58                     59                     60
                      A                      A                      A
 Frequencies --   3085.2125              3092.5130              3136.1928
 Red. masses --      1.0998                 1.1047                 1.1006
 Frc consts  --      6.1677                 6.2247                 6.3779
 IR Inten    --     27.2190                35.9699                11.7377

                     61                     62                     63
                      A                      A                      A
 Frequencies --   3149.3969              3190.9139              3451.1775
 Red. masses --      1.0867                 1.0946                 1.0535
 Frc consts  --      6.3505                 6.5665                 7.3933
 IR Inten    --     20.4625                22.5865                 2.0918

                     64                     65                     66
                      A                      A                      A
 Frequencies --   3511.4341              3542.7832              3590.9964
 Red. masses --      1.0738                 1.0880                 1.0765
 Frc consts  --      7.8008                 8.0457                 8.1792
 IR Inten    --     11.4798                 1.7156                36.4713

 - Thermochemistry -
 -------------------
 Temperature   298.150 Kelvin.  Pressure   1.00000 Atm.
 Atom     1 has atomic number  6 and mass  12.00000

 Molecular mass:   191.05509 amu.
 Principal axes and moments of inertia in atomic units:
                           1         2         3
     Eigenvalues --  1162.047345913.850466501.64886
           X            0.99993  -0.01147  -0.00075
           Y            0.01148   0.99958   0.02660
           Z            0.00044  -0.02660   0.99965
 This molecule is an asymmetric top.
 Rotational symmetry number  1.
 Warning -- assumption of classical behavior for rotation
           may cause significant error
 Rotational temperatures (Kelvin)      0.07454     0.01465     0.01332
 Rotational constants (GHZ):           1.55307     0.30517     0.27758
 Zero-point vibrational energy     521137.8 (Joules/Mol)
                                  124.55493 (Kcal/Mol)
 Warning -- explicit consideration of  20 degrees of freedom as
           vibrations may cause significant error
 Vibrational temperatures:     35.72    47.36    71.34    96.78   132.25
          (Kelvin)            179.93   233.92   293.30   359.50   375.23
                              426.48   459.90   492.74   531.01   659.22
                              734.95   755.25   791.45   836.89   873.64
                              986.58  1012.76  1112.17  1135.45  1236.11
                             1284.74  1309.85  1335.75  1384.05  1447.47
                             1462.00  1540.32  1559.08  1568.70  1689.02
                             1723.53  1762.88  1812.53  1850.63  1908.78
                             1945.62  1953.43  1986.76  2010.77  2049.45
                             2068.38  2165.94  2181.78  2189.81  2202.47
                             2245.45  2412.04  2527.61  3924.26  4378.12
                             4385.08  4416.23  4438.93  4449.44  4512.28
                             4531.28  4591.01  4965.47  5052.17  5097.27
                             5166.64

 Zero-point correction=                           0.198491 (Hartree/Particle)
 Thermal correction to Energy=                    0.211986
 Thermal correction to Enthalpy=                  0.212930
 Thermal correction to Gibbs Free Energy=         0.155730
 Sum of electronic and zero-point Energies=          -1196.909443
 Sum of electronic and thermal Energies=             -1196.895947
 Sum of electronic and thermal Enthalpies=           -1196.895003
 Sum of electronic and thermal Free Energies=        -1196.952204

                     E (Thermal)             CV                S
                      KCal/Mol        Cal/Mol-Kelvin    Cal/Mol-Kelvin
 Total                  133.023             47.670            120.389
 Electronic               0.000              0.000              0.000
 Translational            0.889              2.981             41.648
 Rotational               0.889              2.981             32.169
 Vibrational            131.246             41.708             46.573
 Vibration     1          0.593              1.985              6.205
 Vibration     2          0.594              1.983              5.645
 Vibration     3          0.595              1.978              4.834
 Vibration     4          0.598              1.970              4.232
 Vibration     5          0.602              1.955              3.619
 Vibration     6          0.610              1.928              3.021
 Vibration     7          0.623              1.888              2.520
 Vibration     8          0.640              1.834              2.098
 Vibration     9          0.663              1.763              1.732
 Vibration    10          0.669              1.744              1.656
 Vibration    11          0.690              1.680              1.437
 Vibration    12          0.706              1.636              1.312
 Vibration    13          0.722              1.591              1.201
 Vibration    14          0.741              1.536              1.084
 Vibration    15          0.816              1.343              0.771
 Vibration    16          0.866              1.226              0.632
 Vibration    17          0.880              1.195              0.599
 Vibration    18          0.905              1.139              0.544
 Vibration    19          0.938              1.071              0.482
 Vibration    20          0.966              1.017              0.437

 Optimization completed.
    -- Stationary point found.
 Normal termination of Gaussian 16 at Tue Dec  8 20:03:59 2020.

 ----------------------------------------------------------------------
 # B3LYP/6-311++G(d,p) empiricaldispersion=gd3bj scf=xqc pop=npa geom=c
 heck
 ----------------------------------------------------------------------

 --------------------------------------
 CID_89493080_JID_1401_Energie_neutraal
 --------------------------------------
 Structure from the checkpoint file:  "JID_1401.chk"
 Charge =  0 Multiplicity = 1

 SCF Done:  E(RB3LYP) =  -1197.29400988     A.U. after   14 cycles
 Normal termination of Gaussian 16 at Tue Dec  8 20:06:19 2020.

 ----------------------------------------------------------------------
 # B3LYP/6-311++G(d,p) empiricaldispersion=gd3bj scf=xqc pop=npa geom=c
 heck
 ----------------------------------------------------------------------

 ------------------------------------
 CID_89493080_JID_1401_Energie_kation
 ------------------------------------
 Structure from the checkpoint file:  "JID_1401.chk"
 Charge =  1 Multiplicity = 2

 SCF Done:  E(UB3LYP) =  -1197.02384286     A.U. after   27 cycles
 Normal termination of Gaussian 16 at Tue Dec  8 20:12:36 2020.
 Gaussian 16:  ES64L-G16RevA.03 25-Dec-2016

 ----------------------------------------------------------------------
 # B3LYP/6-311++G(d,p) empiricaldispersion=gd3bj scf=xqc pop=npa geom=c
 heck
 ----------------------------------------------------------------------

 -----------------------------------
 CID_89493080_JID_1401_Energie_anion
 -----------------------------------
 Structure from the checkpoint file:  "JID_1401.chk"
 Charge = -1 Multiplicity = 2

                         Standard orientation:
 ---------------------------------------------------------------------
 Center     Atomic      Atomic             Coordinates (Angstroms)
 Number     Number       Type             X           Y           Z
 ---------------------------------------------------------------------
      1          6           0        0.461585    0.799471    1.037427
      2          6           0        1.729616    1.636366    0.798348
      3          7           0        2.943507    0.873026    0.543205
      4          6           0        3.178458    0.352361   -0.722287
      5          6           0        3.824800   -0.803384   -0.953677
      6          7           0        4.265251   -1.596712    0.159722
      7          6           0        0.044427   -0.028777   -0.185093
      8          7           0       -1.177420   -0.797502    0.039293
      9          6           0       -2.451937   -0.378692   -0.065594
     10         16           0       -3.760435   -1.325124    0.341757
     11         16           0       -2.608279    1.294960   -0.703110
     12          1           0       -0.361975    1.467282    1.318727
     13          1           0        0.626367    0.123887    1.887297
     14          1           0        1.575312    2.311598   -0.053031
     15          1           0        1.899570    2.272928    1.674606
     16          1           0        3.163885    0.183679    1.259290
     17          1           0        2.854065    0.980957   -1.548623
     18          1           0        4.049625   -1.107209   -1.975072
     19          1           0        4.227587   -2.588947   -0.061037
     20          1           0        5.235961   -1.391756    0.398471
     21          1           0       -0.104468    0.618805   -1.056836
     22          1           0        0.829915   -0.737898   -0.456375
     23          1           0       -1.085228   -1.728226    0.428566
     24          1           0       -3.952241    1.261765   -0.684616
 ---------------------------------------------------------------------

 SCF Done:  E(UB3LYP) =  -1197.28815678     A.U. after   32 cycles

 The electronic state is 2-A.
 Alpha  occ. eigenvalues --  -88.75726 -88.67709 -14.23889 -14.21767 -14.19711
 Alpha  occ. eigenvalues --  -10.14784 -10.11271 -10.11141 -10.09557 -10.07654
 Alpha  occ. eigenvalues --  -10.07584  -7.84439  -7.76454  -5.80800  -5.80412
 Alpha  occ. eigenvalues --   -5.79887  -5.72849  -5.72282  -5.72027  -0.85473
 Alpha  occ. eigenvalues --   -0.83415  -0.77878  -0.69984  -0.67023  -0.63122
 Alpha  occ. eigenvalues --   -0.59857  -0.56247  -0.51277  -0.48864  -0.48004
 Alpha  occ. eigenvalues --   -0.40575  -0.40146  -0.38803  -0.37060  -0.36340
 Alpha  occ. eigenvalues --   -0.33500  -0.33189  -0.31986  -0.31557  -0.29639
 Alpha  occ. eigenvalues --   -0.29021  -0.27774  -0.26196  -0.24884  -0.23433
 Alpha  occ. eigenvalues --   -0.21718  -0.16274  -0.15943  -0.11245  -0.10157
 Alpha  occ. eigenvalues --   -0.09725   0.04294
 Alpha virt. eigenvalues --    0.05838   0.07260   0.07782   0.08341   0.09205
 Alpha virt. eigenvalues --    0.09723   0.10094   0.10298   0.11729   0.11896
 Alpha virt. eigenvalues --    0.12216   0.12562   0.12760   0.13550   0.14555

  Beta  occ. eigenvalues --  -88.75726 -88.67699 -14.23787 -14.21755 -14.19640
  Beta  occ. eigenvalues --  -10.14313 -10.11274 -10.11129 -10.09555 -10.07640
  Beta  occ. eigenvalues --  -10.07552  -7.84437  -7.76445  -5.80810  -5.80419
  Beta  occ. eigenvalues --   -5.79871  -5.72860  -5.72229  -5.72022  -0.85131
  Beta  occ. eigenvalues --   -0.83378  -0.77773  -0.69739  -0.66859  -0.63052
  Beta  occ. eigenvalues --   -0.59718  -0.56159  -0.51199  -0.48647  -0.47913
  Beta  occ. eigenvalues --   -0.40505  -0.40052  -0.38727  -0.36964  -0.36207
  Beta  occ. eigenvalues --   -0.33249  -0.32998  -0.31847  -0.31508  -0.29491
  Beta  occ. eigenvalues --   -0.28901  -0.27445  -0.25946  -0.24320  -0.23179
  Beta  occ. eigenvalues --   -0.21604  -0.16196  -0.15661  -0.10729  -0.10119
  Beta  occ. eigenvalues --   -0.09689
  Beta virt. eigenvalues --    0.06777   0.07598   0.07921   0.08376   0.08965
  Beta virt. eigenvalues --    0.09711   0.09935   0.10258   0.10816   0.11772
  Beta virt. eigenvalues --    0.11986   0.12274   0.12651   0.12824   0.13573

 Mulliken charges and spin densities:
               1          2
     1  C    0.194618  -0.267773
     2  C   -0.415694  -0.169207
     3  N    0.071734  -0.095920
     4  C   -0.408143   0.504581
     5  C    0.631977  -1.200669
     6  N   -0.386837  -0.041527
     7  C   -0.272125  -0.171774
     8  N   -0.035899   0.096606
     9  C    0.124483   0.212082
    10  S   -0.757437   0.102946
    11  S   -0.013646  -0.021683
    12  H    0.033670   0.059907
    13  H   -0.116556   0.306770
    14  H    0.042278   0.103994
    15  H    0.001268   0.175776
    16  H    0.281620  -0.032390
    17  H    0.016456   0.109584
    18  H   -0.044642   0.167104
    19  H   -0.313158   0.562262
    20  H   -0.258964   0.512648
    21  H    0.061315   0.033839
    22  H    0.339778  -0.053873
    23  H    0.181425   0.083623
    24  H    0.042480   0.023092
 Sum of Mulliken charges =  -1.00000   1.00000

 Dipole moment (field-independent basis, Debye):
    X=             -2.2322    Y=              5.7491    Z=             -1.7800  Tot=              6.4190
 Quadrupole moment (field-independent basis, Debye-Ang):
   XX=           -184.6262   YY=           -115.6726   ZZ=           -102.7510
   XY=              7.2384   XZ=              1.0091   YZ=              1.0605

 Summary of Natural Population Analysis:

                                       Natural Population
                Natural  -----------------------------------------------
    Atom  No    Charge         Core      Valence    Rydberg      Total
 -----------------------------------------------------------------------
      C    1   -0.20225      0.99962     2.19444    0.00819     3.20225
      C    2   -0.08208      0.99962     2.07242    0.01004     3.08208
      N    3   -0.32742      0.99971     2.81545    0.01226     3.82742
      C    4   -0.00795      0.99952     1.99484    0.01359     3.00795
      C    5   -0.05711      0.99952     2.04288    0.01471     3.05711
      N    6   -0.43697      0.99976     2.92352    0.01369     3.93697
      C    7   -0.09872      0.99961     2.08802    0.01109     3.09872
      N    8   -0.29716      0.99962     2.78349    0.01405     3.79716
      C    9    0.04806      0.99967     1.93301    0.01926     2.95194
      S   10   -0.12972      4.99950     3.11494    0.01528     8.12972
      S   11   -0.01103      4.99949     2.99565    0.01588     8.01103
      H   12    0.10370      0.00000     0.39502    0.00129     0.39630
      H   13    0.09779      0.00000     0.40048    0.00173     0.40221
      H   14    0.09061      0.00000     0.40824    0.00116     0.40939
      H   15    0.09381      0.00000     0.40521    0.00098     0.40619
      H   16    0.19134      0.00000     0.30513    0.00354     0.30866
      H   17    0.09115      0.00000     0.40783    0.00102     0.40885
      H   18    0.08452      0.00000     0.41420    0.00127     0.41548
      H   19    0.18462      0.00000     0.30989    0.00550     0.31538
      H   20    0.18189      0.00000     0.31329    0.00483     0.31811
      H   21    0.09754      0.00000     0.40100    0.00146     0.40246
      H   22    0.11093      0.00000     0.38780    0.00127     0.38907
      H   23    0.19908      0.00000     0.29906    0.00186     0.30092
      H   24    0.07537      0.00000     0.42172    0.00291     0.42463
 =======================================================================
   * Total *   -0.00000     18.99563    31.82754    0.17683    51.00000

 Normal termination of Gaussian 16 at Tue Dec  8 20:21:50 2020.
