 Gaussian 16, Revision A.03,

 -----------------------------------------------------------
 # opt freq B3LYP/6-31G(d) empiricaldispersion=gd3bj scf=xqc
 -----------------------------------------------------------

 ------------------------------
 CID_58148506_JID_6027_neutraal
 ------------------------------
 Symbolic Z-matrix:
 Charge =  0 Multiplicity = 1

 SCF Done:  E(RB3LYP) =  -1012.79124862     A.U. after   15 cycles
 SCF Done:  E(RB3LYP) =  -1012.79590469     A.U. after   13 cycles
 SCF Done:  E(RB3LYP) =  -1012.79716628     A.U. after   13 cycles
 SCF Done:  E(RB3LYP) =  -1012.79774415     A.U. after   12 cycles
 SCF Done:  E(RB3LYP) =  -1012.79806279     A.U. after   12 cycles
 SCF Done:  E(RB3LYP) =  -1012.79815444     A.U. after   12 cycles
 SCF Done:  E(RB3LYP) =  -1012.79821184     A.U. after   11 cycles
 SCF Done:  E(RB3LYP) =  -1012.79822216     A.U. after    9 cycles
 SCF Done:  E(RB3LYP) =  -1012.79822410     A.U. after    9 cycles
 SCF Done:  E(RB3LYP) =  -1012.79822457     A.U. after    8 cycles
 SCF Done:  E(RB3LYP) =  -1012.79822470     A.U. after    7 cycles
 Optimization completed.
    -- Stationary point found.
 Normal termination of Gaussian 16 at Thu Dec 10 21:07:36 2020.

 --------------------------------------------------------------------
 #N Geom=AllCheck Guess=TCheck SCRF=Check GenChk RB3LYP/6-31G(d) Freq
 --------------------------------------------------------------------

 Structure from the checkpoint file:  "JID_6027.chk"
 ------------------------------
 CID_58148506_JID_6027_neutraal
 ------------------------------
 Charge =  0 Multiplicity = 1

 SCF Done:  E(RB3LYP) =  -1012.79822470     A.U. after    1 cycles

  Exact polarizability: 274.107  -3.720 171.807  -0.273  -0.019  84.623
 Approx polarizability: 380.039  -4.629 324.010  -0.351  -0.117 129.607

                      1                      2                      3
                      A                      A                      A
 Frequencies --     26.2041                43.1123                59.0611
 Red. masses --      3.2706                 4.4973                 6.7636
 Frc consts  --      0.0013                 0.0049                 0.0139
 IR Inten    --      0.1416                 0.4228                 0.7762

                      4                      5                      6
                      A                      A                      A
 Frequencies --    105.4705               124.1015               198.2988
 Red. masses --      4.3469                 3.9861                 3.5071
 Frc consts  --      0.0285                 0.0362                 0.0813
 IR Inten    --      0.7611                 1.6466                 0.3861

                      7                      8                      9
                      A                      A                      A
 Frequencies --    217.7726               239.5220               241.6506
 Red. masses --      3.9367                 3.7415                 1.1616
 Frc consts  --      0.1100                 0.1265                 0.0400
 IR Inten    --      2.7352                 0.2182                 0.9087

                     10                     11                     12
                      A                      A                      A
 Frequencies --    269.2475               285.9502               309.4644
 Red. masses --      2.9404                 1.0879                 1.0545
 Frc consts  --      0.1256                 0.0524                 0.0595
 IR Inten    --      6.4854                 0.4228                 0.1220

                     13                     14                     15
                      A                      A                      A
 Frequencies --    318.8342               340.6161               355.0366
 Red. masses --      2.9214                 2.0246                 2.6437
 Frc consts  --      0.1750                 0.1384                 0.1963
 IR Inten    --     12.3219                89.1825                 1.1024

                     16                     17                     18
                      A                      A                      A
 Frequencies --    367.0496               398.2278               417.2404
 Red. masses --      1.9118                 3.8385                 3.3657
 Frc consts  --      0.1518                 0.3587                 0.3452
 IR Inten    --    115.8692                 4.2665                 0.1640

                     19                     20                     21
                      A                      A                      A
 Frequencies --    449.1517               482.4221               483.6510
 Red. masses --      3.1079                 3.1012                 3.4986
 Frc consts  --      0.3694                 0.4252                 0.4822
 IR Inten    --      1.8101                 8.6348                 1.3947

                     22                     23                     24
                      A                      A                      A
 Frequencies --    542.5906               547.7394               583.9778
 Red. masses --      3.8745                 4.0809                 4.4619
 Frc consts  --      0.6721                 0.7214                 0.8965
 IR Inten    --      2.2022                 0.4696                 1.7388

                     25                     26                     27
                      A                      A                      A
 Frequencies --    604.6323               609.9861               649.5244
 Red. masses --      1.6054                 2.6277                 3.5902
 Frc consts  --      0.3458                 0.5761                 0.8924
 IR Inten    --     48.6573                 3.3526                30.3336

                     28                     29                     30
                      A                      A                      A
 Frequencies --    666.1970               692.4298               743.6916
 Red. masses --      6.5387                 7.9091                 3.1895
 Frc consts  --      1.7098                 2.2342                 1.0393
 IR Inten    --      1.8906                23.3763                15.2211

                     31                     32                     33
                      A                      A                      A
 Frequencies --    757.1925               760.9217               831.4108
 Red. masses --      1.4580                 5.8773                 2.9559
 Frc consts  --      0.4925                 2.0050                 1.2039
 IR Inten    --     31.8353                 3.6367                 5.7674

                     34                     35                     36
                      A                      A                      A
 Frequencies --    847.4707               852.0087               868.6827
 Red. masses --      1.9529                 3.0364                 1.3834
 Frc consts  --      0.8264                 1.2987                 0.6151
 IR Inten    --      2.7032                 4.7733                 8.7580

                     37                     38                     39
                      A                      A                      A
 Frequencies --    921.2167               941.4867               952.8534
 Red. masses --      1.3324                 1.7823                 1.7190
 Frc consts  --      0.6662                 0.9308                 0.9196
 IR Inten    --      0.6574                 0.6181                 0.7463

                     40                     41                     42
                      A                      A                      A
 Frequencies --    963.0669               978.3496               978.7377
 Red. masses --      1.2506                 1.1984                 7.3863
 Frc consts  --      0.6834                 0.6758                 4.1688
 IR Inten    --      0.0957                 0.0251                29.5966

                     43                     44                     45
                      A                      A                      A
 Frequencies --   1050.8988              1063.8863              1070.1042
 Red. masses --      1.7264                 1.3837                 2.1581
 Frc consts  --      1.1233                 0.9228                 1.4561
 IR Inten    --      1.2046                 0.0924                12.3716

                     46                     47                     48
                      A                      A                      A
 Frequencies --   1086.2232              1106.9657              1179.4782
 Red. masses --      2.4548                 1.6966                 1.8651
 Frc consts  --      1.7065                 1.2249                 1.5287
 IR Inten    --      4.9307                11.3289                55.1031

                     49                     50                     51
                      A                      A                      A
 Frequencies --   1199.4894              1200.8976              1242.2154
 Red. masses --      1.1041                 1.4904                 2.4290
 Frc consts  --      0.9360                 1.2664                 2.2084
 IR Inten    --     30.8797                 8.0441                 7.6113

                     52                     53                     54
                      A                      A                      A
 Frequencies --   1242.7519              1292.3657              1296.0339
 Red. masses --      2.6532                 4.7175                 3.0228
 Frc consts  --      2.4143                 4.6423                 2.9915
 IR Inten    --      4.0983                12.0024                79.3186

                     55                     56                     57
                      A                      A                      A
 Frequencies --   1315.2041              1339.7125              1370.1813
 Red. masses --      2.1691                 2.2959                 1.7775
 Frc consts  --      2.2107                 2.4279                 1.9661
 IR Inten    --      2.6595                 1.2946                30.4547

                     58                     59                     60
                      A                      A                      A
 Frequencies --   1386.7517              1426.1502              1426.6988
 Red. masses --      4.8103                 1.2316                 1.2124
 Frc consts  --      5.4503                 1.4758                 1.4540
 IR Inten    --     27.1885                 7.9692                 5.1442

                     61                     62                     63
                      A                      A                      A
 Frequencies --   1457.1348              1485.2418              1509.9950
 Red. masses --      1.2248                 3.6886                 1.0485
 Frc consts  --      1.5322                 4.7940                 1.4085
 IR Inten    --      1.9982                39.2257                 0.0091

                     64                     65                     66
                      A                      A                      A
 Frequencies --   1515.3467              1520.0061              1532.3048
 Red. masses --      1.0455                 1.0476                 1.0929
 Frc consts  --      1.4145                 1.4261                 1.5119
 IR Inten    --      0.0503                 1.3380                 2.6503

                     67                     68                     69
                      A                      A                      A
 Frequencies --   1533.9962              1534.4355              1543.3314
 Red. masses --      1.0574                 3.4118                 2.3640
 Frc consts  --      1.4660                 4.7329                 3.3176
 IR Inten    --      6.5215                60.4916                42.6349

                     70                     71                     72
                      A                      A                      A
 Frequencies --   1549.8897              1584.4989              1617.5954
 Red. masses --      1.1494                 5.0615                 4.3007
 Frc consts  --      1.6267                 7.4871                 6.6302
 IR Inten    --      9.5790                43.7546                13.8997

                     73                     74                     75
                      A                      A                      A
 Frequencies --   1662.1880              1684.1651              3046.4786
 Red. masses --      1.9624                 2.3403                 1.0345
 Frc consts  --      3.1945                 3.9110                 5.6567
 IR Inten    --     76.3959               194.6476                20.8718

                     76                     77                     78
                      A                      A                      A
 Frequencies --   3048.5279              3055.4263              3115.0238
 Red. masses --      1.0343                 1.0354                 1.1026
 Frc consts  --      5.6633                 5.6953                 6.3035
 IR Inten    --     23.5877                27.5884                 0.5494

                     79                     80                     81
                      A                      A                      A
 Frequencies --   3118.3194              3122.9593              3124.6840
 Red. masses --      1.1028                 1.1038                 1.1018
 Frc consts  --      6.3179                 6.3425                 6.3383
 IR Inten    --     20.0479                 2.3775                81.8741

                     82                     83                     84
                      A                      A                      A
 Frequencies --   3126.8704              3128.1531              3173.8593
 Red. masses --      1.1026                 1.1027                 1.0868
 Frc consts  --      6.3518                 6.3572                 6.4505
 IR Inten    --     41.3736                37.5058                14.8659

                     85                     86                     87
                      A                      A                      A
 Frequencies --   3185.2243              3195.7318              3216.0558
 Red. masses --      1.0873                 1.0923                 1.0964
 Frc consts  --      6.4994                 6.5726                 6.6816
 IR Inten    --      2.9019                31.7310                23.1092

                     88                     89                     90
                      A                      A                      A
 Frequencies --   3242.1533              3487.5160              3672.9018
 Red. masses --      1.0927                 1.0554                 1.0941
 Frc consts  --      6.7676                 7.5629                 8.6964
 IR Inten    --     17.0025               114.9659                57.1856

 - Thermochemistry -
 -------------------
 Temperature   298.150 Kelvin.  Pressure   1.00000 Atm.
 Atom     1 has atomic number  6 and mass  12.00000

 Molecular mass:   232.10342 amu.
 Principal axes and moments of inertia in atomic units:
                           1         2         3
     Eigenvalues --  1405.779037358.822228362.49511
           X            1.00000   0.00081  -0.00038
           Y           -0.00081   1.00000  -0.00137
           Z            0.00038   0.00137   1.00000
 This molecule is an asymmetric top.
 Rotational symmetry number  1.
 Warning -- assumption of classical behavior for rotation
           may cause significant error
 Rotational temperatures (Kelvin)      0.06161     0.01177     0.01036
 Rotational constants (GHZ):           1.28380     0.24525     0.21581
 Zero-point vibrational energy     700487.0 (Joules/Mol)
                                  167.42040 (Kcal/Mol)
 Warning -- explicit consideration of  26 degrees of freedom as
           vibrations may cause significant error
 Vibrational temperatures:     37.70    62.03    84.98   151.75   178.55
          (Kelvin)            285.31   313.33   344.62   347.68   387.39
                              411.42   445.25   458.73   490.07   510.82
                              528.10   572.96   600.32   646.23   694.10
                              695.87   780.67   788.07   840.21   869.93
                              877.63   934.52   958.51   996.25  1070.01
                             1089.43  1094.80  1196.21  1219.32  1225.85
                             1249.84  1325.43  1354.59  1370.94  1385.64
                             1407.63  1408.19  1512.01  1530.70  1539.64
                             1562.83  1592.68  1697.01  1725.80  1727.82
                             1787.27  1788.04  1859.43  1864.70  1892.29
                             1927.55  1971.39  1995.23  2051.91  2052.70
                             2096.49  2136.93  2172.55  2180.25  2186.95
                             2204.64  2207.08  2207.71  2220.51  2229.95
                             2279.74  2327.36  2391.52  2423.14  4383.20
                             4386.15  4396.08  4481.82  4486.57  4493.24
                             4495.72  4498.87  4500.71  4566.48  4582.83
                             4597.95  4627.19  4664.74  5017.76  5284.49

 Zero-point correction=                           0.266801 (Hartree/Particle)
 Thermal correction to Energy=                    0.282205
 Thermal correction to Enthalpy=                  0.283149
 Thermal correction to Gibbs Free Energy=         0.223943
 Sum of electronic and zero-point Energies=          -1012.531423
 Sum of electronic and thermal Energies=             -1012.516020
 Sum of electronic and thermal Enthalpies=           -1012.515076
 Sum of electronic and thermal Free Energies=        -1012.574281

                     E (Thermal)             CV                S
                      KCal/Mol        Cal/Mol-Kelvin    Cal/Mol-Kelvin
 Total                  177.086             60.752            124.609
 Electronic               0.000              0.000              0.000
 Translational            0.889              2.981             42.228
 Rotational               0.889              2.981             32.825
 Vibrational            175.309             54.790             49.556
 Vibration     1          0.593              1.985              6.098
 Vibration     2          0.595              1.980              5.111
 Vibration     3          0.596              1.974              4.488
 Vibration     4          0.605              1.945              3.351
 Vibration     5          0.610              1.929              3.035
 Vibration     6          0.637              1.842              2.149
 Vibration     7          0.646              1.814              1.978
 Vibration     8          0.657              1.780              1.806
 Vibration     9          0.658              1.777              1.791
 Vibration    10          0.674              1.730              1.601
 Vibration    11          0.684              1.700              1.498
 Vibration    12          0.699              1.656              1.365
 Vibration    13          0.705              1.638              1.316
 Vibration    14          0.720              1.594              1.209
 Vibration    15          0.731              1.565              1.144
 Vibration    16          0.740              1.540              1.092
 Vibration    17          0.765              1.474              0.969
 Vibration    18          0.780              1.433              0.901
 Vibration    19          0.808              1.363              0.798
 Vibration    20          0.839              1.289              0.704
 Vibration    21          0.840              1.286              0.700
 Vibration    22          0.898              1.156              0.560
 Vibration    23          0.903              1.145              0.549
 Vibration    24          0.941              1.066              0.478
 Vibration    25          0.963              1.022              0.442
 Vibration    26          0.969              1.011              0.433

                           ! Non-Optimized Parameters !
 Normal termination of Gaussian 16 at Thu Dec 10 21:16:52 2020.

 ----------------------------------------------------------------------
 # B3LYP/6-311++G(d,p) empiricaldispersion=gd3bj scf=xqc pop=npa geom=c
 heck
 ----------------------------------------------------------------------

 --------------------------------------
 CID_58148506_JID_6027_Energie_neutraal
 --------------------------------------
 Structure from the checkpoint file:  "JID_6027.chk"
 Charge =  0 Multiplicity = 1

 SCF Done:  E(RB3LYP) =  -1012.99096039     A.U. after   16 cycles
 Normal termination of Gaussian 16 at Thu Dec 10 21:21:12 2020.

 ----------------------------------------------------------------------
 # B3LYP/6-311++G(d,p) empiricaldispersion=gd3bj scf=xqc pop=npa geom=c
 heck
 ----------------------------------------------------------------------

 ------------------------------------
 CID_58148506_JID_6027_Energie_kation
 ------------------------------------
 Structure from the checkpoint file:  "JID_6027.chk"
 Charge =  1 Multiplicity = 2

 SCF Done:  E(UB3LYP) =  -1012.73022564     A.U. after   23 cycles
 Normal termination of Gaussian 16 at Thu Dec 10 21:30:40 2020.
 Gaussian 16:  ES64L-G16RevA.03 25-Dec-2016

 ----------------------------------------------------------------------
 # B3LYP/6-311++G(d,p) empiricaldispersion=gd3bj scf=xqc pop=npa geom=c
 heck
 ----------------------------------------------------------------------

 -----------------------------------
 CID_58148506_JID_6027_Energie_anion
 -----------------------------------
 Structure from the checkpoint file:  "JID_6027.chk"
 Charge = -1 Multiplicity = 2

                         Standard orientation:
 ---------------------------------------------------------------------
 Center     Atomic      Atomic             Coordinates (Angstroms)
 Number     Number       Type             X           Y           Z
 ---------------------------------------------------------------------
      1          6           0       -4.276138    1.181375   -0.067147
      2          6           0       -3.446379   -0.112481   -0.000720
      3          6           0       -3.798536   -0.870104    1.297508
      4          6           0       -3.791878   -0.995197   -1.219294
      5          6           0       -1.971100    0.226011   -0.014119
      6          6           0       -1.352416    1.442030   -0.077029
      7          7           0        0.021682    1.443001   -0.071490
      8          6           0        0.521969    0.229447   -0.007001
      9         16           0       -0.737184   -1.018706    0.059384
     10          6           0        1.940796   -0.106966    0.003425
     11          6           0        2.350759   -1.453822   -0.026370
     12          6           0        3.685701   -1.822240   -0.040072
     13          6           0        4.664062   -0.819044   -0.026427
     14          6           0        4.298805    0.515568    0.006949
     15          6           0        2.943109    0.910356    0.029351
     16          7           0        2.623738    2.239106    0.112413
     17          1           0       -5.343498    0.936478   -0.056978
     18          1           0       -4.067197    1.742292   -0.984298
     19          1           0       -4.070493    1.831144    0.790116
     20          1           0       -4.869708   -1.101540    1.322610
     21          1           0       -3.246795   -1.813411    1.369996
     22          1           0       -3.553660   -0.267592    2.178403
     23          1           0       -3.542902   -0.482534   -2.154284
     24          1           0       -3.239321   -1.940491   -1.195298
     25          1           0       -4.862845   -1.228812   -1.226631
     26          1           0       -1.867483    2.392970   -0.129007
     27          1           0        1.591018   -2.230298   -0.050614
     28          1           0        3.965210   -2.870301   -0.066102
     29          1           0        5.717787   -1.083902   -0.042252
     30          1           0        5.060935    1.291106    0.025583
     31          1           0        1.652958    2.489868   -0.052557
     32          1           0        3.340487    2.909978   -0.119628
 ---------------------------------------------------------------------

 SCF Done:  E(UB3LYP) =  -1012.99135873     A.U. after   33 cycles
 SCF Done:  E(UB3LYP) =  -1012.99135892     a.u. after    2 cycles

 The electronic state is 2-A.
 Alpha  occ. eigenvalues --  -88.71203 -14.17011 -14.14323 -10.08566 -10.06842
 Alpha  occ. eigenvalues --  -10.06241 -10.06194 -10.05634 -10.05618 -10.04927
 Alpha  occ. eigenvalues --  -10.04218 -10.02539 -10.01925 -10.01810 -10.01744
 Alpha  occ. eigenvalues --  -10.01602  -7.79904  -5.76194  -5.75853  -5.75494
 Alpha  occ. eigenvalues --   -0.80403  -0.77623  -0.71982  -0.69172  -0.63006
 Alpha  occ. eigenvalues --   -0.62303  -0.59009  -0.58411  -0.58284  -0.56242
 Alpha  occ. eigenvalues --   -0.49110  -0.46539  -0.46013  -0.41285  -0.40097
 Alpha  occ. eigenvalues --   -0.38182  -0.36752  -0.35863  -0.34017  -0.33879
 Alpha  occ. eigenvalues --   -0.32411  -0.29706  -0.29482  -0.29447  -0.28383
 Alpha  occ. eigenvalues --   -0.28117  -0.26766  -0.26586  -0.26494  -0.24179
 Alpha  occ. eigenvalues --   -0.23899  -0.22792  -0.22753  -0.21659  -0.20504
 Alpha  occ. eigenvalues --   -0.19193  -0.17437  -0.13694  -0.12873  -0.12088
 Alpha  occ. eigenvalues --   -0.08604  -0.05657   0.05382
 Alpha virt. eigenvalues --    0.06925   0.08921   0.09108   0.09613   0.09950
 Alpha virt. eigenvalues --    0.10020   0.11350   0.11847   0.11997   0.12161
 Alpha virt. eigenvalues --    0.13515   0.13585   0.13866   0.14077   0.14821

  Beta  occ. eigenvalues --  -88.71156 -14.16967 -14.14090 -10.08589 -10.06762
  Beta  occ. eigenvalues --  -10.06193 -10.05878 -10.05614 -10.05594 -10.05004
  Beta  occ. eigenvalues --  -10.03889 -10.02514 -10.02024 -10.01730 -10.01520
  Beta  occ. eigenvalues --  -10.01362  -7.79862  -5.76180  -5.75838  -5.75325
  Beta  occ. eigenvalues --   -0.79978  -0.77458  -0.71833  -0.68892  -0.62631
  Beta  occ. eigenvalues --   -0.61843  -0.58951  -0.58360  -0.58055  -0.55988
  Beta  occ. eigenvalues --   -0.48713  -0.46313  -0.45859  -0.40968  -0.39886
  Beta  occ. eigenvalues --   -0.38072  -0.36659  -0.35673  -0.33929  -0.33810
  Beta  occ. eigenvalues --   -0.32341  -0.29565  -0.29354  -0.29329  -0.28285
  Beta  occ. eigenvalues --   -0.27979  -0.26720  -0.26408  -0.25523  -0.24070
  Beta  occ. eigenvalues --   -0.23573  -0.22570  -0.22237  -0.21504  -0.20334
  Beta  occ. eigenvalues --   -0.18987  -0.16789  -0.12276  -0.11795  -0.11723
  Beta  occ. eigenvalues --   -0.07465  -0.04824
  Beta virt. eigenvalues --    0.06869   0.08890   0.09046   0.09532   0.09910
  Beta virt. eigenvalues --    0.09963   0.10790   0.11293   0.11865   0.11942
  Beta virt. eigenvalues --    0.12081   0.13540   0.13641   0.13898   0.14434

 Mulliken charges and spin densities:
               1          2
     1  C   -0.580476  -0.009166
     2  C    0.243526   0.039210
     3  C   -0.613959   0.009688
     4  C   -0.607142  -0.041188
     5  C   -0.239980   0.145865
     6  C    0.907205  -0.023509
     7  N    0.003884   0.110931
     8  C    0.222083   0.176793
     9  S   -0.770143   0.112776
    10  C    0.843234  -0.034047
    11  C   -0.924106   0.224240
    12  C   -0.589328  -0.076718
    13  C   -0.294189   0.222415
    14  C   -0.511656   0.015742
    15  C    0.130129   0.085313
    16  N   -0.363711   0.019616
    17  H    0.119718   0.011454
    18  H    0.118452   0.003266
    19  H    0.121667   0.000282
    20  H    0.117479   0.000132
    21  H    0.123905   0.011079
    22  H    0.147942   0.003043
    23  H    0.150202   0.001445
    24  H    0.140264  -0.006079
    25  H    0.088753   0.031088
    26  H    0.151029   0.003005
    27  H    0.059600  -0.019675
    28  H    0.107517   0.006209
    29  H    0.092921  -0.017113
    30  H    0.073028  -0.003379
    31  H    0.321584  -0.001913
    32  H    0.210566  -0.000806
 Sum of Mulliken charges =  -1.00000   1.00000

 Dipole moment (field-independent basis, Debye):
    X=             -5.0738    Y=              1.0764    Z=             -0.4173  Tot=              5.2034
 Quadrupole moment (field-independent basis, Debye-Ang):
   XX=           -148.8611   YY=           -115.2403   ZZ=           -118.4144
   XY=              4.6896   XZ=             -1.8637   YZ=             -1.5730

 Summary of Natural Population Analysis:

                                       Natural Population
                Natural  -----------------------------------------------
    Atom  No    Charge         Core      Valence    Rydberg      Total
 -----------------------------------------------------------------------
      C    1   -0.28051      0.99964     2.27517    0.00570     3.28051
      C    2   -0.06075      0.99954     2.05310    0.00811     3.06075
      C    3   -0.27649      0.99964     2.27104    0.00581     3.27649
      C    4   -0.27654      0.99964     2.27109    0.00581     3.27654
      C    5   -0.05969      0.99945     2.04648    0.01377     3.05969
      C    6   -0.04252      0.99946     2.02980    0.01326     3.04252
      N    7   -0.25352      0.99963     2.73953    0.01437     3.75352
      C    8    0.10728      0.99956     1.87715    0.01601     2.89272
      S    9    0.16771      4.99943     2.81447    0.01839     7.83229
      C   10   -0.07486      0.99937     2.06552    0.00998     3.07486
      C   11   -0.03035      0.99946     2.02296    0.00793     3.03035
      C   12   -0.16186      0.99959     2.15138    0.01088     3.16186
      C   13   -0.04807      0.99958     2.03877    0.00972     3.04807
      C   14   -0.13737      0.99954     2.12838    0.00944     3.13737
      C   15    0.11987      0.99950     1.86994    0.01069     2.88013
      N   16   -0.39954      0.99970     2.89070    0.00914     3.89954
      H   17    0.09255      0.00000     0.40663    0.00081     0.40745
      H   18    0.10005      0.00000     0.39889    0.00106     0.39995
      H   19    0.10009      0.00000     0.39884    0.00107     0.39991
      H   20    0.08846      0.00000     0.41064    0.00091     0.41154
      H   21    0.10266      0.00000     0.39659    0.00076     0.39734
      H   22    0.10070      0.00000     0.39853    0.00078     0.39930
      H   23    0.10069      0.00000     0.39854    0.00078     0.39931
      H   24    0.10254      0.00000     0.39669    0.00077     0.39746
      H   25    0.08881      0.00000     0.41024    0.00094     0.41119
      H   26    0.08969      0.00000     0.40914    0.00117     0.41031
      H   27    0.09308      0.00000     0.40523    0.00169     0.40692
      H   28    0.09042      0.00000     0.40840    0.00118     0.40958
      H   29    0.08488      0.00000     0.41399    0.00113     0.41512
      H   30    0.08497      0.00000     0.41318    0.00185     0.41503
      H   31    0.21218      0.00000     0.28617    0.00164     0.28782
      H   32    0.17545      0.00000     0.32315    0.00140     0.32455
 =======================================================================
   * Total *    0.00000     19.99273    41.82031    0.18696    62.00000

 Normal termination of Gaussian 16 at Thu Dec 10 21:53:38 2020.
