 Gaussian 16, Revision A.03,

 -----------------------------------------------------------
 # opt freq B3LYP/6-31G(d) empiricaldispersion=gd3bj scf=xqc
 -----------------------------------------------------------

 -------------------------------
 CID_143128508_JID_8363_neutraal
 -------------------------------
 Symbolic Z-matrix:
 Charge =  0 Multiplicity = 1

 SCF Done:  E(RB3LYP) =  -1128.70894251     A.U. after   15 cycles
 SCF Done:  E(RB3LYP) =  -1128.71232845     A.U. after   14 cycles
 SCF Done:  E(RB3LYP) =  -1128.71326815     A.U. after   14 cycles
 SCF Done:  E(RB3LYP) =  -1128.71328466     A.U. after   14 cycles
 SCF Done:  E(RB3LYP) =  -1128.71435389     A.U. after   12 cycles
 SCF Done:  E(RB3LYP) =  -1128.71462274     A.U. after   13 cycles
 SCF Done:  E(RB3LYP) =  -1128.71480268     A.U. after   13 cycles
 SCF Done:  E(RB3LYP) =  -1128.71496775     A.U. after   13 cycles
 SCF Done:  E(RB3LYP) =  -1128.71511992     A.U. after   12 cycles
 SCF Done:  E(RB3LYP) =  -1128.71523061     A.U. after   13 cycles
 SCF Done:  E(RB3LYP) =  -1128.71559027     A.U. after   11 cycles
 SCF Done:  E(RB3LYP) =  -1128.71559060     A.U. after    8 cycles
 SCF Done:  E(RB3LYP) =  -1128.71559088     A.U. after    9 cycles
 SCF Done:  E(RB3LYP) =  -1128.71559091     A.U. after    7 cycles
 SCF Done:  E(RB3LYP) =  -1128.71559093     A.U. after    7 cycles
 Optimization completed.
    -- Stationary point found.
 Normal termination of Gaussian 16 at Fri Dec 11 20:21:33 2020.

 --------------------------------------------------------------------
 #N Geom=AllCheck Guess=TCheck SCRF=Check GenChk RB3LYP/6-31G(d) Freq
 --------------------------------------------------------------------

 Structure from the checkpoint file:  "JID_8363.chk"
 -------------------------------
 CID_143128508_JID_8363_neutraal
 -------------------------------
 Charge =  0 Multiplicity = 1

 SCF Done:  E(RB3LYP) =  -1128.71559093     A.U. after    1 cycles

  Exact polarizability: 239.472  21.657 179.556 -16.661   2.970 118.943
 Approx polarizability: 335.472  25.572 300.115 -40.748   5.493 209.166

                      1                      2                      3
                      A                      A                      A
 Frequencies --     11.9043                28.7893                37.0676
 Red. masses --      4.9206                 4.3443                 4.6161
 Frc consts  --      0.0004                 0.0021                 0.0037
 IR Inten    --      0.7621                 0.1670                 2.3989

                      4                      5                      6
                      A                      A                      A
 Frequencies --     48.5146                84.7841               117.8245
 Red. masses --      4.4435                 4.2936                 3.6574
 Frc consts  --      0.0062                 0.0182                 0.0299
 IR Inten    --      1.8930                 0.0949                 1.1441

                      7                      8                      9
                      A                      A                      A
 Frequencies --    146.3538               157.1046               157.7616
 Red. masses --      5.2338                 1.1171                 3.1512
 Frc consts  --      0.0661                 0.0162                 0.0462
 IR Inten    --      0.6094                 0.0231                 4.0462

                     10                     11                     12
                      A                      A                      A
 Frequencies --    177.4908               207.0982               235.8408
 Red. masses --      1.0862                 3.8914                 4.5822
 Frc consts  --      0.0202                 0.0983                 0.1502
 IR Inten    --      0.5418                 3.9818                 0.9496

                     13                     14                     15
                      A                      A                      A
 Frequencies --    264.2411               280.3473               337.5922
 Red. masses --      6.2172                 5.9913                 4.8968
 Frc consts  --      0.2558                 0.2774                 0.3288
 IR Inten    --      0.4249                 3.3592                 3.9264

                     16                     17                     18
                      A                      A                      A
 Frequencies --    360.8574               391.4817               414.1016
 Red. masses --      5.2679                 8.4427                 3.0751
 Frc consts  --      0.4042                 0.7623                 0.3107
 IR Inten    --      1.3287                 4.1916                 0.9258

                     19                     20                     21
                      A                      A                      A
 Frequencies --    429.2877               435.5377               444.6436
 Red. masses --      4.6655                 6.3286                 5.4086
 Frc consts  --      0.5066                 0.7073                 0.6300
 IR Inten    --      0.6097                 1.5678                 5.5868

                     22                     23                     24
                      A                      A                      A
 Frequencies --    499.0427               523.4122               559.6346
 Red. masses --      3.7855                 4.1250                 3.0401
 Frc consts  --      0.5555                 0.6658                 0.5610
 IR Inten    --      4.6713                18.9826                14.3001

                     25                     26                     27
                      A                      A                      A
 Frequencies --    616.6014               631.7353               632.1719
 Red. masses --      3.3095                 4.7511                 5.5818
 Frc consts  --      0.7414                 1.1172                 1.3143
 IR Inten    --      6.3135                 4.4406                 1.3705

                     28                     29                     30
                      A                      A                      A
 Frequencies --    661.2569               705.8628               714.6665
 Red. masses --      6.4502                 2.3986                 5.8552
 Frc consts  --      1.6617                 0.7041                 1.7620
 IR Inten    --     10.0142                18.1964                12.2824

                     31                     32                     33
                      A                      A                      A
 Frequencies --    737.2552               761.0748               767.3851
 Red. masses --      4.8845                 1.5709                 3.4397
 Frc consts  --      1.5643                 0.5361                 1.1934
 IR Inten    --      2.3283                33.5990                 7.5768

                     34                     35                     36
                      A                      A                      A
 Frequencies --    855.4249               856.0461               866.5264
 Red. masses --      2.0431                 1.3335                 2.9265
 Frc consts  --      0.8809                 0.5757                 1.2947
 IR Inten    --      8.0636                 0.7394                15.4000

                     37                     38                     39
                      A                      A                      A
 Frequencies --    910.0232               925.4476               967.4669
 Red. masses --      1.3704                 1.3474                 1.3255
 Frc consts  --      0.6686                 0.6799                 0.7310
 IR Inten    --      6.1948                 2.1061                 0.5399

                     40                     41                     42
                      A                      A                      A
 Frequencies --    971.0546               972.2657               998.3513
 Red. masses --      2.3203                 1.3641                 1.2558
 Frc consts  --      1.2891                 0.7597                 0.7374
 IR Inten    --     30.0400                 0.3832                 0.3003

                     43                     44                     45
                      A                      A                      A
 Frequencies --   1020.0763              1046.6913              1051.2111
 Red. masses --      6.3528                 5.5424                 2.0464
 Frc consts  --      3.8947                 3.5776                 1.3323
 IR Inten    --      4.6301                68.6959                14.0873

                     46                     47                     48
                      A                      A                      A
 Frequencies --   1054.1246              1096.1981              1108.9805
 Red. masses --      2.9405                 2.4825                 1.6830
 Frc consts  --      1.9251                 1.7576                 1.2195
 IR Inten    --      6.7457                36.3186                 5.5545

                     49                     50                     51
                      A                      A                      A
 Frequencies --   1113.0324              1132.0896              1168.7995
 Red. masses --      2.4630                 2.3199                 1.4511
 Frc consts  --      1.7978                 1.7518                 1.1679
 IR Inten    --      3.2996                 6.7945                14.3726

                     52                     53                     54
                      A                      A                      A
 Frequencies --   1180.7027              1194.8217              1214.1257
 Red. masses --      1.2477                 1.0977                 1.1410
 Frc consts  --      1.0248                 0.9233                 0.9910
 IR Inten    --      1.6873                 0.0214                 1.7732

                     55                     56                     57
                      A                      A                      A
 Frequencies --   1219.7448              1266.3546              1287.7944
 Red. masses --      1.3762                 3.7564                 3.7459
 Frc consts  --      1.2064                 3.5492                 3.6602
 IR Inten    --      3.1096               109.9877               194.1846

                     58                     59                     60
                      A                      A                      A
 Frequencies --   1311.6352              1329.8448              1342.4963
 Red. masses --      1.4606                 3.6396                 4.0871
 Frc consts  --      1.4805                 3.7923                 4.3400
 IR Inten    --     63.5700                 9.7678                 6.8440

                     61                     62                     63
                      A                      A                      A
 Frequencies --   1361.9850              1411.0426              1433.7541
 Red. masses --      2.0326                 1.2966                 3.1498
 Frc consts  --      2.2215                 1.5210                 3.8149
 IR Inten    --      1.0105                18.1063                20.6948

                     64                     65                     66
                      A                      A                      A
 Frequencies --   1484.9684              1489.4794              1500.3844
 Red. masses --      1.3537                 2.1173                 1.0572
 Frc consts  --      1.7588                 2.7676                 1.4022
 IR Inten    --     17.0654                 7.4773                14.8899

                     67                     68                     69
                      A                      A                      A
 Frequencies --   1508.3357              1512.8416              1528.7947
 Red. masses --      1.0524                 1.0551                 2.0535
 Frc consts  --      1.4107                 1.4228                 2.8278
 IR Inten    --     10.0284                 2.3190                25.9333

                     70                     71                     72
                      A                      A                      A
 Frequencies --   1533.6776              1536.7085              1605.6177
 Red. masses --      2.1160                 1.0557                 6.4313
 Frc consts  --      2.9325                 1.4688                 9.7686
 IR Inten    --     88.7539                 6.2551                38.2494

                     73                     74                     75
                      A                      A                      A
 Frequencies --   1637.3553              1646.5015              1649.0955
 Red. masses --      5.5183                 5.4246                 5.7176
 Frc consts  --      8.7165                 8.6644                 9.1613
 IR Inten    --      2.3766                12.2194                 8.7868

                     76                     77                     78
                      A                      A                      A
 Frequencies --   1783.1738              3035.0277              3055.1550
 Red. masses --     10.9642                 1.0419                 1.0399
 Frc consts  --     20.5407                 5.6546                 5.7190
 IR Inten    --    235.4697                77.0951                 2.0705

                     79                     80                     81
                      A                      A                      A
 Frequencies --   3118.9835              3129.0404              3167.6580
 Red. masses --      1.0968                 1.0913                 1.1071
 Frc consts  --      6.2862                 6.2956                 6.5448
 IR Inten    --      8.1392                30.5477                21.8263

                     82                     83                     84
                      A                      A                      A
 Frequencies --   3170.7974              3187.6687              3195.8668
 Red. masses --      1.1028                 1.0852                 1.0885
 Frc consts  --      6.5324                 6.4968                 6.5501
 IR Inten    --     11.2817                 0.7526                 7.7517

                     85                     86                     87
                      A                      A                      A
 Frequencies --   3199.8309              3207.1551              3213.8050
 Red. masses --      1.0882                 1.0919                 1.0941
 Frc consts  --      6.5645                 6.6171                 6.6580
 IR Inten    --      3.8362                16.4283                18.6839

                     88                     89                     90
                      A                      A                      A
 Frequencies --   3216.5187              3218.3493              3233.5945
 Red. masses --      1.0945                 1.0973                 1.0890
 Frc consts  --      6.6719                 6.6965                 6.7090
 IR Inten    --     10.5934                 8.6651                 0.8602

 - Thermochemistry -
 -------------------
 Temperature   298.150 Kelvin.  Pressure   1.00000 Atm.
 Atom     1 has atomic number  6 and mass  12.00000

 Molecular mass:   258.07145 amu.
 Principal axes and moments of inertia in atomic units:
                           1         2         3
     Eigenvalues --  2574.987407876.450819583.40571
           X            0.99984   0.01764   0.00276
           Y           -0.01762   0.99983  -0.00548
           Z           -0.00285   0.00543   0.99998
 This molecule is an asymmetric top.
 Rotational symmetry number  1.
 Warning -- assumption of classical behavior for rotation
           may cause significant error
 Rotational temperatures (Kelvin)      0.03364     0.01100     0.00904
 Rotational constants (GHZ):           0.70087     0.22913     0.18832
 Zero-point vibrational energy     664006.5 (Joules/Mol)
                                  158.70137 (Kcal/Mol)
 Warning -- explicit consideration of  25 degrees of freedom as
           vibrations may cause significant error
 Vibrational temperatures:     17.13    41.42    53.33    69.80   121.99
          (Kelvin)            169.52   210.57   226.04   226.98   255.37
                              297.97   339.32   380.18   403.36   485.72
                              519.19   563.25   595.80   617.65   626.64
                              639.74   718.01   753.07   805.19   887.15
                              908.93   909.55   951.40  1015.58  1028.25
                             1060.75  1095.02  1104.10  1230.77  1231.66
                             1246.74  1309.32  1331.51  1391.97  1397.13
                             1398.87  1436.40  1467.66  1505.96  1512.46
                             1516.65  1577.18  1595.58  1601.41  1628.82
                             1681.64  1698.77  1719.08  1746.86  1754.94
                             1822.00  1852.85  1887.15  1913.35  1931.55
                             1959.59  2030.18  2062.85  2136.54  2143.03
                             2158.72  2170.16  2176.64  2199.59  2206.62
                             2210.98  2310.13  2355.79  2368.95  2372.68
                             2565.59  4366.73  4395.69  4487.52  4501.99
                             4557.55  4562.07  4586.34  4598.14  4603.84
                             4614.38  4623.95  4627.85  4630.49  4652.42

 Zero-point correction=                           0.252907 (Hartree/Particle)
 Thermal correction to Energy=                    0.269904
 Thermal correction to Enthalpy=                  0.270848
 Thermal correction to Gibbs Free Energy=         0.205309
 Sum of electronic and zero-point Energies=          -1128.462684
 Sum of electronic and thermal Energies=             -1128.445687
 Sum of electronic and thermal Enthalpies=           -1128.444743
 Sum of electronic and thermal Free Energies=        -1128.510282

                     E (Thermal)             CV                S
                      KCal/Mol        Cal/Mol-Kelvin    Cal/Mol-Kelvin
 Total                  169.367             63.391            137.938
 Electronic               0.000              0.000              0.000
 Translational            0.889              2.981             42.544
 Rotational               0.889              2.981             33.630
 Vibrational            167.590             57.429             61.765
 Vibration     1          0.593              1.987              7.665
 Vibration     2          0.593              1.984              5.911
 Vibration     3          0.594              1.982              5.410
 Vibration     4          0.595              1.978              4.877
 Vibration     5          0.601              1.960              3.777
 Vibration     6          0.608              1.935              3.136
 Vibration     7          0.617              1.907              2.719
 Vibration     8          0.621              1.895              2.584
 Vibration     9          0.621              1.894              2.576
 Vibration    10          0.628              1.870              2.355
 Vibration    11          0.641              1.830              2.069
 Vibration    12          0.655              1.786              1.834
 Vibration    13          0.671              1.738              1.634
 Vibration    14          0.680              1.710              1.532
 Vibration    15          0.718              1.600              1.224
 Vibration    16          0.735              1.553              1.118
 Vibration    17          0.759              1.488              0.994
 Vibration    18          0.778              1.440              0.912
 Vibration    19          0.791              1.406              0.861
 Vibration    20          0.796              1.393              0.841
 Vibration    21          0.804              1.373              0.812
 Vibration    22          0.854              1.252              0.661
 Vibration    23          0.878              1.198              0.602
 Vibration    24          0.915              1.119              0.525
 Vibration    25          0.976              0.997              0.422

                           ! Non-Optimized Parameters !
 Normal termination of Gaussian 16 at Fri Dec 11 20:33:20 2020.

 ----------------------------------------------------------------------
 # B3LYP/6-311++G(d,p) empiricaldispersion=gd3bj scf=xqc pop=npa geom=c
 heck
 ----------------------------------------------------------------------

 ---------------------------------------
 CID_143128508_JID_8363_Energie_neutraal
 ---------------------------------------
 Structure from the checkpoint file:  "JID_8363.chk"
 Charge =  0 Multiplicity = 1

 SCF Done:  E(RB3LYP) =  -1128.93632960     A.U. after   16 cycles
 Normal termination of Gaussian 16 at Fri Dec 11 20:38:21 2020.

 ----------------------------------------------------------------------
 # B3LYP/6-311++G(d,p) empiricaldispersion=gd3bj scf=xqc pop=npa geom=c
 heck
 ----------------------------------------------------------------------

 -------------------------------------
 CID_143128508_JID_8363_Energie_kation
 -------------------------------------
 Structure from the checkpoint file:  "JID_8363.chk"
 Charge =  1 Multiplicity = 2

 SCF Done:  E(UB3LYP) =  -1128.65368492     A.U. after   24 cycles
 Normal termination of Gaussian 16 at Fri Dec 11 20:48:46 2020.
 Gaussian 16:  ES64L-G16RevA.03 25-Dec-2016

 ----------------------------------------------------------------------
 # B3LYP/6-311++G(d,p) empiricaldispersion=gd3bj scf=xqc pop=npa geom=c
 heck
 ----------------------------------------------------------------------

 ------------------------------------
 CID_143128508_JID_8363_Energie_anion
 ------------------------------------
 Structure from the checkpoint file:  "JID_8363.chk"
 Charge = -1 Multiplicity = 2

                         Standard orientation:
 ---------------------------------------------------------------------
 Center     Atomic      Atomic             Coordinates (Angstroms)
 Number     Number       Type             X           Y           Z
 ---------------------------------------------------------------------
      1          6           0       -0.772969    2.825295   -0.275351
      2          6           0       -1.952619    1.862415   -0.292510
      3          8           0       -3.084370    2.286087   -0.462352
      4          6           0       -1.661035    0.405657   -0.100530
      5          6           0       -2.634487   -0.504617    0.373830
      6          6           0       -2.289121   -1.844740    0.566042
      7          6           0       -1.001930   -2.302655    0.302057
      8          6           0       -0.032760   -1.415229   -0.178286
      9          6           0       -0.373066   -0.076507   -0.372299
     10         16           0        1.599100   -2.044169   -0.560999
     11          6           0        2.633235   -0.653338   -0.108244
     12          6           0        3.563930   -0.173094   -1.034399
     13          6           0        4.410187    0.882495   -0.687910
     14          6           0        4.314679    1.474626    0.570559
     15          6           0        3.377630    0.998895    1.492503
     16          6           0        2.547554   -0.069523    1.163111
     17          8           0       -3.889090   -0.110235    0.747406
     18          6           0       -4.865439   -0.117604   -0.299049
     19          1           0       -1.161795    3.842200   -0.201864
     20          1           0       -0.196168    2.741677   -1.204964
     21          1           0       -0.087420    2.620603    0.553284
     22          1           0       -3.046618   -2.514088    0.961473
     23          1           0       -0.744448   -3.341970    0.483022
     24          1           0        0.384941    0.605468   -0.737055
     25          1           0        3.616811   -0.619939   -2.022260
     26          1           0        5.132777    1.250108   -1.410900
     27          1           0        4.965512    2.303055    0.834365
     28          1           0        3.303067    1.452612    2.476809
     29          1           0        1.826174   -0.447714    1.880232
     30          1           0       -4.603288    0.607978   -1.072457
     31          1           0       -4.961674   -1.122963   -0.730542
     32          1           0       -5.808526    0.170406    0.169259
 ---------------------------------------------------------------------

 SCF Done:  E(UB3LYP) =  -1128.95040364     A.U. after   33 cycles
 SCF Done:  E(UB3LYP) =  -1128.95040364     a.u. after    1 cycles

 The electronic state is 2-A.
 Alpha  occ. eigenvalues --  -88.73686 -19.00294 -18.93224 -10.10342 -10.08957
 Alpha  occ. eigenvalues --  -10.08695 -10.08243 -10.08169 -10.07915 -10.07801
 Alpha  occ. eigenvalues --  -10.07788 -10.07502 -10.07156 -10.03598 -10.03467
 Alpha  occ. eigenvalues --  -10.03448 -10.03185 -10.02758  -7.82297  -5.78697
 Alpha  occ. eigenvalues --   -5.78303  -5.77694  -0.92128  -0.87321  -0.76588
 Alpha  occ. eigenvalues --   -0.72819  -0.68243  -0.65264  -0.63535  -0.62757
 Alpha  occ. eigenvalues --   -0.59017  -0.58527  -0.54722  -0.51223  -0.49553
 Alpha  occ. eigenvalues --   -0.48978  -0.45626  -0.42148  -0.40074  -0.38111
 Alpha  occ. eigenvalues --   -0.36141  -0.35896  -0.35010  -0.33501  -0.33303
 Alpha  occ. eigenvalues --   -0.32858  -0.31569  -0.30747  -0.30572  -0.29728
 Alpha  occ. eigenvalues --   -0.29202  -0.27721  -0.26466  -0.25569  -0.25259
 Alpha  occ. eigenvalues --   -0.24676  -0.24232  -0.23246  -0.21782  -0.21347
 Alpha  occ. eigenvalues --   -0.20705  -0.17300  -0.16317  -0.14395  -0.14123
 Alpha  occ. eigenvalues --   -0.12659  -0.09134  -0.08960   0.04009
 Alpha virt. eigenvalues --    0.06842   0.07224   0.07820   0.08518   0.08858
 Alpha virt. eigenvalues --    0.09515   0.10057   0.10361   0.10835   0.11333
 Alpha virt. eigenvalues --    0.12074   0.12198   0.12862   0.12970   0.13862

  Beta  occ. eigenvalues --  -88.73686 -19.00292 -18.92747 -10.10353 -10.08936
  Beta  occ. eigenvalues --  -10.08581 -10.08193 -10.07978 -10.07840 -10.07755
  Beta  occ. eigenvalues --  -10.07736 -10.07466 -10.07230 -10.03596 -10.03302
  Beta  occ. eigenvalues --  -10.03208 -10.03147 -10.02593  -7.82297  -5.78696
  Beta  occ. eigenvalues --   -5.78299  -5.77698  -0.92066  -0.86469  -0.76509
  Beta  occ. eigenvalues --   -0.72561  -0.68136  -0.65126  -0.63248  -0.62388
  Beta  occ. eigenvalues --   -0.58864  -0.58367  -0.54599  -0.51065  -0.49284
  Beta  occ. eigenvalues --   -0.48525  -0.45467  -0.42058  -0.39897  -0.37754
  Beta  occ. eigenvalues --   -0.36058  -0.35818  -0.34841  -0.33398  -0.33132
  Beta  occ. eigenvalues --   -0.32812  -0.31382  -0.30553  -0.30477  -0.29170
  Beta  occ. eigenvalues --   -0.29135  -0.27480  -0.26171  -0.25499  -0.25150
  Beta  occ. eigenvalues --   -0.24196  -0.24013  -0.23023  -0.21435  -0.21085
  Beta  occ. eigenvalues --   -0.19093  -0.17087  -0.15878  -0.14285  -0.13844
  Beta  occ. eigenvalues --   -0.11085  -0.08714  -0.08335
  Beta virt. eigenvalues --    0.06792   0.07356   0.08037   0.08466   0.08755
  Beta virt. eigenvalues --    0.09468   0.09939   0.10324   0.10411   0.10918
  Beta virt. eigenvalues --    0.11355   0.12034   0.12257   0.12876   0.13014

 Mulliken charges and spin densities:
               1          2
     1  C   -0.574546  -0.033223
     2  C    0.020563   0.153275
     3  O   -0.371291   0.166395
     4  C    0.806871   0.157663
     5  C   -0.800749   0.038986
     6  C   -0.021686   0.003461
     7  C   -0.187078   0.208037
     8  C    0.677919  -0.178887
     9  C   -0.836640   0.268681
    10  S   -0.590640   0.040342
    11  C    0.723213   0.001249
    12  C   -0.259146   0.021448
    13  C   -0.288821   0.017343
    14  C   -0.319502  -0.030052
    15  C   -0.166256   0.039191
    16  C   -0.397380   0.065055
    17  O   -0.124088  -0.000355
    18  C   -0.240193  -0.042347
    19  H    0.152849  -0.003020
    20  H    0.089996   0.054681
    21  H    0.113776   0.001936
    22  H    0.135877   0.006255
    23  H    0.137577  -0.016608
    24  H    0.186698   0.002911
    25  H    0.162324   0.001405
    26  H    0.132540   0.006376
    27  H    0.123680   0.003765
    28  H    0.161922  -0.003530
    29  H    0.195822   0.009116
    30  H    0.160115   0.022516
    31  H    0.083545   0.011124
    32  H    0.112729   0.006809
 Sum of Mulliken charges =  -1.00000   1.00000

 Dipole moment (field-independent basis, Debye):
    X=              5.0556    Y=             -1.1657    Z=              0.2353  Tot=              5.1936
 Quadrupole moment (field-independent basis, Debye-Ang):
   XX=           -159.4522   YY=           -139.2601   ZZ=           -122.2562
   XY=             17.5278   XZ=              0.4900   YZ=              2.4334

 Summary of Natural Population Analysis:

                                       Natural Population
                Natural  -----------------------------------------------
    Atom  No    Charge         Core      Valence    Rydberg      Total
 -----------------------------------------------------------------------
      C    1   -0.33350      0.99964     2.32816    0.00569     3.33350
      C    2    0.30436      0.99966     1.67475    0.02124     2.69564
      O    3   -0.25555      0.99987     3.24886    0.00681     4.25555
      C    4   -0.05242      0.99942     2.04289    0.01010     3.05242
      C    5    0.19032      0.99934     1.79747    0.01287     2.80968
      C    6   -0.12688      0.99952     2.11858    0.00878     3.12688
      C    7   -0.05042      0.99951     2.04098    0.00993     3.05042
      C    8   -0.11371      0.99938     2.10277    0.01155     3.11371
      C    9   -0.06494      0.99948     2.05723    0.00824     3.06494
      S   10    0.12497      4.99947     2.85465    0.02092     7.87503
      C   11   -0.08682      0.99940     2.07361    0.01380     3.08682
      C   12   -0.10512      0.99950     2.09549    0.01014     3.10512
      C   13   -0.09000      0.99957     2.08139    0.00905     3.09000
      C   14   -0.11508      0.99958     2.10621    0.00930     3.11508
      C   15   -0.09031      0.99957     2.08167    0.00908     3.09031
      C   16   -0.09459      0.99949     2.08587    0.00922     3.09459
      O   17   -0.29121      0.99985     3.28059    0.01076     4.29121
      C   18   -0.09448      0.99959     2.08683    0.00805     3.09448
      H   19    0.10248      0.00000     0.39637    0.00116     0.39752
      H   20    0.10294      0.00000     0.39537    0.00169     0.39706
      H   21    0.10237      0.00000     0.39632    0.00131     0.39763
      H   22    0.09565      0.00000     0.40270    0.00165     0.40435
      H   23    0.09199      0.00000     0.40659    0.00142     0.40801
      H   24    0.10125      0.00000     0.39676    0.00199     0.39875
      H   25    0.10271      0.00000     0.39618    0.00111     0.39729
      H   26    0.09495      0.00000     0.40406    0.00100     0.40505
      H   27    0.09569      0.00000     0.40335    0.00097     0.40431
      H   28    0.09657      0.00000     0.40242    0.00101     0.40343
      H   29    0.10930      0.00000     0.38943    0.00126     0.39070
      H   30    0.09754      0.00000     0.40046    0.00200     0.40246
      H   31    0.07095      0.00000     0.42674    0.00231     0.42905
      H   32    0.08098      0.00000     0.41769    0.00133     0.41902
 =======================================================================
   * Total *    0.00000     21.99185    45.79241    0.21574    68.00000

 Normal termination of Gaussian 16 at Fri Dec 11 21:02:57 2020.
