 Gaussian 16, Revision A.03,

 -----------------------------------------------------------
 # opt freq B3LYP/6-31G(d) empiricaldispersion=gd3bj scf=xqc
 -----------------------------------------------------------

 -------------------------------
 CID_145935195_JID_8135_neutraal
 -------------------------------
 Symbolic Z-matrix:
 Charge =  0 Multiplicity = 1

 SCF Done:  E(RB3LYP) =  -822.788000881     A.U. after   14 cycles
 SCF Done:  E(RB3LYP) =  -822.795983123     A.U. after   13 cycles
 SCF Done:  E(RB3LYP) =  -822.796487044     A.U. after   13 cycles
 SCF Done:  E(RB3LYP) =  -822.798019948     A.U. after   13 cycles
 SCF Done:  E(RB3LYP) =  -822.799003030     A.U. after   12 cycles
 SCF Done:  E(RB3LYP) =  -822.800163918     A.U. after   14 cycles
 SCF Done:  E(RB3LYP) =  -822.800864555     A.U. after   12 cycles
 SCF Done:  E(RB3LYP) =  -822.801005203     A.U. after   12 cycles
 SCF Done:  E(RB3LYP) =  -822.801112043     A.U. after   12 cycles
 SCF Done:  E(RB3LYP) =  -822.801164283     A.U. after   10 cycles
 SCF Done:  E(RB3LYP) =  -822.801205659     A.U. after    9 cycles
 SCF Done:  E(RB3LYP) =  -822.801207609     A.U. after    8 cycles
 SCF Done:  E(RB3LYP) =  -822.801208709     A.U. after    8 cycles
 SCF Done:  E(RB3LYP) =  -822.801208930     A.U. after    7 cycles
 SCF Done:  E(RB3LYP) =  -822.801208980     A.U. after    7 cycles
 Optimization completed.
    -- Stationary point found.
 Normal termination of Gaussian 16 at Fri Dec 11 19:00:53 2020.

 --------------------------------------------------------------------
 #N Geom=AllCheck Guess=TCheck SCRF=Check GenChk RB3LYP/6-31G(d) Freq
 --------------------------------------------------------------------

 Structure from the checkpoint file:  "JID_8135.chk"
 -------------------------------
 CID_145935195_JID_8135_neutraal
 -------------------------------
 Charge =  0 Multiplicity = 1

 SCF Done:  E(RB3LYP) =  -822.801208980     A.U. after    1 cycles

  Exact polarizability: 177.829  -4.477 151.470 -11.521  -7.686 127.071
 Approx polarizability: 228.958  -2.938 240.292 -17.065 -27.200 196.156

                      1                      2                      3
                      A                      A                      A
 Frequencies --     21.8814                40.1138                60.6507
 Red. masses --      4.8798                 4.2509                 4.8974
 Frc consts  --      0.0014                 0.0040                 0.0106
 IR Inten    --      2.9357                 2.7434                 0.8197

                      4                      5                      6
                      A                      A                      A
 Frequencies --     76.3097                79.7898                96.5051
 Red. masses --      2.7861                 3.2875                 4.7165
 Frc consts  --      0.0096                 0.0123                 0.0259
 IR Inten    --      0.6922                 2.2407                 0.1013

                      7                      8                      9
                      A                      A                      A
 Frequencies --    102.8003               144.4043               157.2901
 Red. masses --      4.4590                 4.5387                 4.0505
 Frc consts  --      0.0278                 0.0558                 0.0590
 IR Inten    --      0.4201                 2.4069                 0.8095

                     10                     11                     12
                      A                      A                      A
 Frequencies --    194.3810               219.3166               236.6953
 Red. masses --      3.6829                 1.9116                 1.4326
 Frc consts  --      0.0820                 0.0542                 0.0473
 IR Inten    --      3.4786                 2.9524                 3.0340

                     13                     14                     15
                      A                      A                      A
 Frequencies --    237.4263               258.4048               264.5159
 Red. masses --      2.5512                 1.4960                 1.9252
 Frc consts  --      0.0847                 0.0589                 0.0794
 IR Inten    --      2.9265                 1.9199                 1.6115

                     16                     17                     18
                      A                      A                      A
 Frequencies --    309.1484               339.9099               353.2376
 Red. masses --      2.4976                 3.2715                 2.5109
 Frc consts  --      0.1406                 0.2227                 0.1846
 IR Inten    --      0.2725                 4.3944                 3.0010

                     19                     20                     21
                      A                      A                      A
 Frequencies --    404.7722               406.0117               432.6046
 Red. masses --      2.5366                 2.1858                 3.0857
 Frc consts  --      0.2449                 0.2123                 0.3402
 IR Inten    --      2.9755                 1.8645                 4.4909

                     22                     23                     24
                      A                      A                      A
 Frequencies --    485.8878               508.0099               531.5492
 Red. masses --      4.0305                 4.6592                 3.3387
 Frc consts  --      0.5606                 0.7084                 0.5558
 IR Inten    --     33.0661                 1.6048                 5.7766

                     25                     26                     27
                      A                      A                      A
 Frequencies --    537.5970               546.3565               576.2533
 Red. masses --      4.0167                 2.4823                 2.0486
 Frc consts  --      0.6840                 0.4366                 0.4008
 IR Inten    --     10.3629                 4.4611                44.6593

                     28                     29                     30
                      A                      A                      A
 Frequencies --    643.4458               683.8872               685.7061
 Red. masses --      2.2081                 3.0648                 1.1118
 Frc consts  --      0.5386                 0.8445                 0.3080
 IR Inten    --     30.1715                10.1754                30.2247

                     31                     32                     33
                      A                      A                      A
 Frequencies --    704.8995               748.0471               763.7459
 Red. masses --      3.5451                 4.1824                 2.7661
 Frc consts  --      1.0378                 1.3789                 0.9506
 IR Inten    --      9.9814                20.2946                 2.3971

                     34                     35                     36
                      A                      A                      A
 Frequencies --    811.7260               830.4402               866.6533
 Red. masses --      6.1551                 4.1127                 2.8052
 Frc consts  --      2.3895                 1.6711                 1.2414
 IR Inten    --      1.8294                 2.1295                 3.3384

                     37                     38                     39
                      A                      A                      A
 Frequencies --    880.5882               925.9749               935.2784
 Red. masses --      2.4525                 2.4604                 1.3190
 Frc consts  --      1.1205                 1.2430                 0.6798
 IR Inten    --      2.3465                 9.7464                 0.6249

                     40                     41                     42
                      A                      A                      A
 Frequencies --    949.2946               953.8632               959.2141
 Red. masses --      1.4347                 2.7840                 1.2022
 Frc consts  --      0.7617                 1.4924                 0.6517
 IR Inten    --      0.9175                 1.9755                 0.2731

                     43                     44                     45
                      A                      A                      A
 Frequencies --    962.5795              1002.8097              1019.0450
 Red. masses --      1.8639                 2.8518                 2.4515
 Frc consts  --      1.0175                 1.6897                 1.4999
 IR Inten    --      7.9036                 1.0743                 8.7631

                     46                     47                     48
                      A                      A                      A
 Frequencies --   1029.5211              1031.9587              1046.9591
 Red. masses --      1.6686                 2.3678                 1.7428
 Frc consts  --      1.0420                 1.4857                 1.1255
 IR Inten    --     22.1192                12.5820                 0.2316

                     49                     50                     51
                      A                      A                      A
 Frequencies --   1062.0015              1075.5865              1114.9463
 Red. masses --      2.4834                 3.0517                 2.1602
 Frc consts  --      1.6503                 2.0801                 1.5821
 IR Inten    --     37.3100                10.6244                14.0966

                     52                     53                     54
                      A                      A                      A
 Frequencies --   1121.4914              1139.7151              1145.7113
 Red. masses --      1.9012                 1.1115                 2.0548
 Frc consts  --      1.4088                 0.8506                 1.5891
 IR Inten    --     15.6400                 0.3659                12.9974

                     55                     56                     57
                      A                      A                      A
 Frequencies --   1168.7842              1200.3310              1207.8579
 Red. masses --      1.9452                 1.1948                 1.3093
 Frc consts  --      1.5656                 1.0142                 1.1254
 IR Inten    --      5.5013                 2.9610                10.6740

                     58                     59                     60
                      A                      A                      A
 Frequencies --   1209.9817              1230.2256              1239.4140
 Red. masses --      1.8344                 1.1460                 6.1829
 Frc consts  --      1.5823                 1.0219                 5.5960
 IR Inten    --     44.6288                18.8064                14.4094

                     61                     62                     63
                      A                      A                      A
 Frequencies --   1258.7210              1270.1960              1275.0020
 Red. masses --      1.5704                 1.4536                 1.3915
 Frc consts  --      1.4660                 1.3818                 1.3328
 IR Inten    --     39.1176                26.3731                 8.2842

                     64                     65                     66
                      A                      A                      A
 Frequencies --   1317.3966              1343.7961              1353.4999
 Red. masses --      1.5069                 1.3230                 1.3980
 Frc consts  --      1.5408                 1.4076                 1.5089
 IR Inten    --     35.9176                 3.3432                23.8727

                     67                     68                     69
                      A                      A                      A
 Frequencies --   1357.8197              1362.2634              1389.8175
 Red. masses --      1.8229                 1.3622                 1.6860
 Frc consts  --      1.9802                 1.4894                 1.9187
 IR Inten    --     87.2579                 4.6501                16.1443

                     70                     71                     72
                      A                      A                      A
 Frequencies --   1400.8257              1408.6699              1420.4056
 Red. masses --      1.9594                 1.3674                 1.4272
 Frc consts  --      2.2653                 1.5986                 1.6965
 IR Inten    --      7.6455                 0.8138                63.6321

                     73                     74                     75
                      A                      A                      A
 Frequencies --   1424.0501              1428.1653              1436.5331
 Red. masses --      1.4907                 1.2888                 1.6316
 Frc consts  --      1.7811                 1.5488                 1.9838
 IR Inten    --     51.5192                24.3925                62.3304

                     76                     77                     78
                      A                      A                      A
 Frequencies --   1449.1193              1456.4001              1500.6924
 Red. masses --      1.6078                 1.8662                 1.5137
 Frc consts  --      1.9893                 2.3322                 2.0085
 IR Inten    --     37.4363               134.9100                14.2146

                     79                     80                     81
                      A                      A                      A
 Frequencies --   1508.3889              1513.5649              1515.2577
 Red. masses --      1.3311                 1.1278                 1.0694
 Frc consts  --      1.7844                 1.5223                 1.4466
 IR Inten    --     23.3298                29.1268                 4.2432

                     82                     83                     84
                      A                      A                      A
 Frequencies --   1522.3409              1533.2798              1536.8902
 Red. masses --      1.0700                 1.0701                 1.0752
 Frc consts  --      1.4610                 1.4823                 1.4963
 IR Inten    --      0.2994                13.6671                 3.6231

                     85                     86                     87
                      A                      A                      A
 Frequencies --   1540.4676              1547.4017              1555.3986
 Red. masses --      1.0605                 1.0956                 1.1279
 Frc consts  --      1.4827                 1.5457                 1.6077
 IR Inten    --      9.6325                 8.5188                14.5097

                     88                     89                     90
                      A                      A                      A
 Frequencies --   1710.6868              1760.4436              1777.0978
 Red. masses --      6.2752                10.0680                 7.9646
 Frc consts  --     10.8198                18.3839                14.8197
 IR Inten    --      6.2006               239.0459               306.3342

                     91                     92                     93
                      A                      A                      A
 Frequencies --   3000.1483              3026.4781              3029.6764
 Red. masses --      1.0719                 1.0629                 1.0668
 Frc consts  --      5.6847                 5.7360                 5.7695
 IR Inten    --     43.2692                38.6838                38.5281

                     94                     95                     96
                      A                      A                      A
 Frequencies --   3034.9401              3042.8001              3048.4369
 Red. masses --      1.0625                 1.0823                 1.0403
 Frc consts  --      5.7660                 5.9038                 5.6958
 IR Inten    --     40.0827                12.6084                19.3083

                     97                     98                     99
                      A                      A                      A
 Frequencies --   3051.6131              3054.2050              3057.8920
 Red. masses --      1.0979                 1.0396                 1.0909
 Frc consts  --      6.0237                 5.7135                 6.0100
 IR Inten    --     19.5087                19.3266                17.1172

                    100                    101                    102
                      A                      A                      A
 Frequencies --   3068.2631              3094.7328              3106.0409
 Red. masses --      1.1026                 1.0597                 1.1001
 Frc consts  --      6.1160                 5.9796                 6.2534
 IR Inten    --     70.2942                 7.7479                 7.7688

                    103                    104                    105
                      A                      A                      A
 Frequencies --   3109.0863              3113.8244              3120.2183
 Red. masses --      1.0975                 1.0940                 1.0904
 Frc consts  --      6.2506                 6.2497                 6.2547
 IR Inten    --     15.7145                59.2538                37.6651

                    106                    107                    108
                      A                      A                      A
 Frequencies --   3132.1024              3152.8396              3158.1006
 Red. masses --      1.1003                 1.1042                 1.1010
 Frc consts  --      6.3594                 6.4671                 6.4696
 IR Inten    --     37.3270                15.3934                 8.3577

                    109                    110                    111
                      A                      A                      A
 Frequencies --   3220.1953              3242.0390              3586.4178
 Red. masses --      1.0864                 1.1043                 1.0760
 Frc consts  --      6.6373                 6.8390                 8.1542
 IR Inten    --      3.6931                19.7308                21.2335

 - Thermochemistry -
 -------------------
 Temperature   298.150 Kelvin.  Pressure   1.00000 Atm.
 Atom     1 has atomic number  6 and mass  12.00000

 Molecular mass:   251.16338 amu.
 Principal axes and moments of inertia in atomic units:
                           1         2         3
     Eigenvalues --  2642.108796115.800856830.36278
           X            0.99992   0.01218  -0.00413
           Y           -0.01188   0.99774   0.06613
           Z            0.00492  -0.06607   0.99780
 This molecule is an asymmetric top.
 Rotational symmetry number  1.
 Warning -- assumption of classical behavior for rotation
           may cause significant error
 Rotational temperatures (Kelvin)      0.03278     0.01416     0.01268
 Rotational constants (GHZ):           0.68307     0.29509     0.26422
 Zero-point vibrational energy     893001.2 (Joules/Mol)
                                  213.43242 (Kcal/Mol)
 Warning -- explicit consideration of  27 degrees of freedom as
           vibrations may cause significant error
 Vibrational temperatures:     31.48    57.71    87.26   109.79   114.80
          (Kelvin)            138.85   147.91   207.77   226.31   279.67
                              315.55   340.55   341.60   371.79   380.58
                              444.80   489.05   508.23   582.38   584.16
                              622.42   699.08   730.91   764.78   773.48
                              786.09   829.10   925.77   983.96   986.58
                             1014.19  1076.27  1098.86  1167.89  1194.82
                             1246.92  1266.97  1332.27  1345.66  1365.82
                             1372.40  1380.10  1384.94  1442.82  1466.18
                             1481.25  1484.76  1506.34  1527.98  1547.53
                             1604.16  1613.58  1639.80  1648.42  1681.62
                             1727.01  1737.84  1740.89  1770.02  1783.24
                             1811.02  1827.53  1834.44  1895.44  1933.42
                             1947.38  1953.60  1959.99  1999.64  2015.48
                             2026.76  2043.65  2048.89  2054.81  2066.85
                             2084.96  2095.43  2159.16  2170.24  2177.68
                             2180.12  2190.31  2206.05  2211.24  2216.39
                             2226.37  2237.87  2461.30  2532.89  2556.85
                             4316.54  4354.43  4359.03  4366.60  4377.91
                             4386.02  4390.59  4394.32  4399.62  4414.55
                             4452.63  4468.90  4473.28  4480.10  4489.30
                             4506.40  4536.23  4543.80  4633.14  4664.57
                             5160.06

 Zero-point correction=                           0.340126 (Hartree/Particle)
 Thermal correction to Energy=                    0.357937
 Thermal correction to Enthalpy=                  0.358881
 Thermal correction to Gibbs Free Energy=         0.293498
 Sum of electronic and zero-point Energies=           -822.461083
 Sum of electronic and thermal Energies=              -822.443272
 Sum of electronic and thermal Enthalpies=            -822.442328
 Sum of electronic and thermal Free Energies=         -822.507711

                     E (Thermal)             CV                S
                      KCal/Mol        Cal/Mol-Kelvin    Cal/Mol-Kelvin
 Total                  224.609             67.705            137.612
 Electronic               0.000              0.000              0.000
 Translational            0.889              2.981             42.463
 Rotational               0.889              2.981             33.067
 Vibrational            222.832             61.744             62.081
 Vibration     1          0.593              1.985              6.456
 Vibration     2          0.594              1.981              5.253
 Vibration     3          0.597              1.973              4.436
 Vibration     4          0.599              1.965              3.984
 Vibration     5          0.600              1.963              3.896
 Vibration     6          0.603              1.952              3.524
 Vibration     7          0.605              1.947              3.401
 Vibration     8          0.616              1.909              2.745
 Vibration     9          0.621              1.894              2.582
 Vibration    10          0.635              1.848              2.186
 Vibration    11          0.647              1.812              1.965
 Vibration    12          0.656              1.785              1.828
 Vibration    13          0.656              1.783              1.822
 Vibration    14          0.667              1.749              1.673
 Vibration    15          0.671              1.738              1.632
 Vibration    16          0.699              1.656              1.367
 Vibration    17          0.720              1.596              1.213
 Vibration    18          0.729              1.569              1.152
 Vibration    19          0.770              1.460              0.945
 Vibration    20          0.771              1.457              0.941
 Vibration    21          0.793              1.399              0.850
 Vibration    22          0.842              1.281              0.694
 Vibration    23          0.863              1.232              0.638
 Vibration    24          0.887              1.180              0.584
 Vibration    25          0.893              1.167              0.570
 Vibration    26          0.902              1.148              0.552
 Vibration    27          0.933              1.083              0.492

 Optimization completed.
    -- Stationary point found.
 Normal termination of Gaussian 16 at Fri Dec 11 19:21:16 2020.

 ----------------------------------------------------------------------
 # B3LYP/6-311++G(d,p) empiricaldispersion=gd3bj scf=xqc pop=npa geom=c
 heck
 ----------------------------------------------------------------------

 ---------------------------------------
 CID_145935195_JID_8135_Energie_neutraal
 ---------------------------------------
 Structure from the checkpoint file:  "JID_8135.chk"
 Charge =  0 Multiplicity = 1

 SCF Done:  E(RB3LYP) =  -823.035319876     A.U. after   15 cycles
 Normal termination of Gaussian 16 at Fri Dec 11 19:29:14 2020.

 ----------------------------------------------------------------------
 # B3LYP/6-311++G(d,p) empiricaldispersion=gd3bj scf=xqc pop=npa geom=c
 heck
 ----------------------------------------------------------------------

 -------------------------------------
 CID_145935195_JID_8135_Energie_kation
 -------------------------------------
 Structure from the checkpoint file:  "JID_8135.chk"
 Charge =  1 Multiplicity = 2

 SCF Done:  E(UB3LYP) =  -822.761183513     A.U. after   24 cycles
 Normal termination of Gaussian 16 at Fri Dec 11 19:46:41 2020.
 Gaussian 16:  ES64L-G16RevA.03 25-Dec-2016

 ----------------------------------------------------------------------
 # B3LYP/6-311++G(d,p) empiricaldispersion=gd3bj scf=xqc pop=npa geom=c
 heck
 ----------------------------------------------------------------------

 ------------------------------------
 CID_145935195_JID_8135_Energie_anion
 ------------------------------------
 Structure from the checkpoint file:  "JID_8135.chk"
 Charge = -1 Multiplicity = 2

                         Standard orientation:
 ---------------------------------------------------------------------
 Center     Atomic      Atomic             Coordinates (Angstroms)
 Number     Number       Type             X           Y           Z
 ---------------------------------------------------------------------
      1          6           0        0.178013    2.494544    0.780242
      2          6           0        1.562179    1.840844    0.667810
      3          6           0        2.052613    1.358843    2.047100
      4          7           0        1.548027    0.820281   -0.389652
      5          6           0        2.780183    0.541485   -1.096708
      6          6           0        3.701393   -0.449787   -0.374218
      7          7           0        2.914801   -1.586013    0.092657
      8          6           0        1.564184   -1.627063    0.258602
      9          8           0        0.987111   -2.621644    0.692172
     10          6           0        0.766556   -0.380233   -0.141824
     11          6           0       -0.158934   -0.721324   -1.345344
     12          6           0       -1.364202    0.202850   -1.330282
     13          8           0       -1.435973    1.220251   -2.015192
     14          7           0       -2.338351   -0.120198   -0.430481
     15          6           0       -3.483010    0.774031   -0.232852
     16          6           0       -4.263166    0.056975    0.833673
     17          6           0       -3.700958   -1.108468    1.153458
     18          6           0       -2.457215   -1.363972    0.345393
     19          1           0       -0.558202    1.802553    1.207487
     20          1           0       -0.180596    2.793805   -0.207144
     21          1           0        0.222212    3.369617    1.438146
     22          1           0        2.259856    2.608835    0.310293
     23          1           0        1.407071    0.565745    2.442329
     24          1           0        3.075442    0.972518    2.008488
     25          1           0        2.033809    2.184529    2.767590
     26          1           0        2.526952    0.121906   -2.080048
     27          1           0        3.315536    1.478771   -1.276314
     28          1           0        4.477454   -0.810346   -1.061251
     29          1           0        4.210093    0.035061    0.469635
     30          1           0        3.395328   -2.418679    0.412317
     31          1           0        0.123851   -0.196876    0.721234
     32          1           0        0.376758   -0.558541   -2.282371
     33          1           0       -0.454801   -1.772010   -1.282609
     34          1           0       -3.141460    1.773400    0.068605
     35          1           0       -4.050226    0.907219   -1.165506
     36          1           0       -5.172636    0.465129    1.260624
     37          1           0       -4.068265   -1.821293    1.883442
     38          1           0       -2.573626   -2.240795   -0.311297
     39          1           0       -1.570801   -1.560233    0.962543
 ---------------------------------------------------------------------

 SCF Done:  E(UB3LYP) =  -823.025584669     A.U. after   33 cycles
 SCF Done:  E(UB3LYP) =  -823.025584669     a.u. after    1 cycles

 The electronic state is 2-A.
 Alpha  occ. eigenvalues --  -18.99636 -18.99481 -14.25441 -14.24926 -14.21340
 Alpha  occ. eigenvalues --  -10.18119 -10.17869 -10.13095 -10.12747 -10.12546
 Alpha  occ. eigenvalues --  -10.11559 -10.11485 -10.11137 -10.09963 -10.09836
 Alpha  occ. eigenvalues --  -10.09020 -10.06868 -10.06427  -0.94884  -0.94654
 Alpha  occ. eigenvalues --   -0.86276  -0.85896  -0.82092  -0.72523  -0.69988
 Alpha  occ. eigenvalues --   -0.68718  -0.66067  -0.63616  -0.59754  -0.58649
 Alpha  occ. eigenvalues --   -0.55622  -0.55546  -0.50115  -0.48278  -0.48024
 Alpha  occ. eigenvalues --   -0.46300  -0.43198  -0.41221  -0.40681  -0.39875
 Alpha  occ. eigenvalues --   -0.38824  -0.37281  -0.36360  -0.36115  -0.35684
 Alpha  occ. eigenvalues --   -0.33590  -0.33422  -0.33367  -0.32458  -0.32330
 Alpha  occ. eigenvalues --   -0.31579  -0.30865  -0.30228  -0.30054  -0.29458
 Alpha  occ. eigenvalues --   -0.29310  -0.28128  -0.27805  -0.26399  -0.25938
 Alpha  occ. eigenvalues --   -0.24844  -0.24105  -0.18836  -0.18241  -0.16694
 Alpha  occ. eigenvalues --   -0.16537  -0.15366  -0.11628   0.03772
 Alpha virt. eigenvalues --    0.04996   0.06530   0.07217   0.07545   0.07676
 Alpha virt. eigenvalues --    0.07994   0.08363   0.08907   0.09389   0.09665
 Alpha virt. eigenvalues --    0.09854   0.10288   0.10815   0.11404   0.12129

  Beta  occ. eigenvalues --  -18.99633 -18.99480 -14.25440 -14.24903 -14.21341
  Beta  occ. eigenvalues --  -10.18120 -10.17868 -10.13088 -10.12739 -10.12539
  Beta  occ. eigenvalues --  -10.11511 -10.11475 -10.11121 -10.09952 -10.09820
  Beta  occ. eigenvalues --  -10.09017 -10.06844 -10.06415  -0.94878  -0.94650
  Beta  occ. eigenvalues --   -0.86270  -0.85877  -0.82059  -0.72509  -0.69971
  Beta  occ. eigenvalues --   -0.68686  -0.66046  -0.63577  -0.59715  -0.58618
  Beta  occ. eigenvalues --   -0.55573  -0.55523  -0.50075  -0.48241  -0.48002
  Beta  occ. eigenvalues --   -0.46247  -0.43169  -0.41191  -0.40648  -0.39846
  Beta  occ. eigenvalues --   -0.38785  -0.37254  -0.36336  -0.36090  -0.35660
  Beta  occ. eigenvalues --   -0.33577  -0.33392  -0.33347  -0.32433  -0.32309
  Beta  occ. eigenvalues --   -0.31556  -0.30827  -0.30201  -0.30030  -0.29443
  Beta  occ. eigenvalues --   -0.29288  -0.28108  -0.27789  -0.26376  -0.25922
  Beta  occ. eigenvalues --   -0.24822  -0.24076  -0.18825  -0.18229  -0.16668
  Beta  occ. eigenvalues --   -0.16530  -0.15358  -0.11612
  Beta virt. eigenvalues --    0.05687   0.06439   0.07169   0.07660   0.07791
  Beta virt. eigenvalues --    0.08048   0.08302   0.08735   0.09046   0.09593
  Beta virt. eigenvalues --    0.09949   0.10377   0.10493   0.11118   0.11481

 Mulliken charges and spin densities:
               1          2
     1  C    0.168227  -0.731394
     2  C   -0.892074   0.681642
     3  C    0.330422  -0.739973
     4  N    0.446516  -0.022921
     5  C   -0.878955   0.898578
     6  C    2.059193  -2.480212
     7  N   -0.504319   0.216709
     8  C   -0.671667   0.621966
     9  O   -0.292466   0.000333
    10  C    0.698596  -1.132226
    11  C   -0.674211   0.417468
    12  C   -0.101594  -0.227605
    13  O   -0.269438   0.003768
    14  N    0.153546   0.029227
    15  C    0.356408  -0.733696
    16  C   -0.017695   0.107087
    17  C    0.962898  -1.269617
    18  C   -0.766739   0.459282
    19  H    0.054189   0.100313
    20  H    0.201404  -0.009518
    21  H   -0.055315   0.203857
    22  H   -0.198878   0.368419
    23  H   -0.155417   0.316615
    24  H    0.018391   0.104013
    25  H   -0.048398   0.203482
    26  H    0.210783  -0.061345
    27  H   -0.295854   0.471792
    28  H   -0.901595   1.092254
    29  H   -0.218851   0.388616
    30  H   -0.149180   0.495943
    31  H    0.631375  -0.474351
    32  H    0.075056   0.129044
    33  H    0.191105   0.032175
    34  H    0.189895  -0.023999
    35  H    0.082432   0.091896
    36  H   -0.688285   0.884793
    37  H   -0.220908   0.405834
    38  H    0.020218   0.143656
    39  H    0.151185   0.038097
 Sum of Mulliken charges =  -1.00000   1.00000

 Dipole moment (field-independent basis, Debye):
    X=             -4.1106    Y=              0.3878    Z=             -0.7691  Tot=              4.1999
 Quadrupole moment (field-independent basis, Debye-Ang):
   XX=           -214.9054   YY=           -155.8300   ZZ=           -149.0356
   XY=              7.4197   XZ=              6.9156   YZ=              5.2109

 Summary of Natural Population Analysis:

                                       Natural Population
                Natural  -----------------------------------------------
    Atom  No    Charge         Core      Valence    Rydberg      Total
 -----------------------------------------------------------------------
      C    1   -0.29238      0.99964     2.28628    0.00646     3.29238
      C    2   -0.00167      0.99960     1.99017    0.01191     3.00167
      C    3   -0.29634      0.99964     2.29093    0.00577     3.29634
      N    4   -0.28490      0.99969     2.77010    0.01511     3.78490
      C    5   -0.08506      0.99961     2.07344    0.01201     3.08506
      C    6   -0.09072      0.99961     2.08018    0.01093     3.09072
      N    7   -0.31100      0.99966     2.80023    0.01111     3.81100
      C    8    0.33889      0.99962     1.63800    0.02349     2.66111
      O    9   -0.33495      0.99988     3.32933    0.00574     4.33495
      C   10   -0.04311      0.99953     2.03058    0.01299     3.04311
      C   11   -0.22992      0.99957     2.22227    0.00807     3.22992
      C   12    0.35007      0.99963     1.62766    0.02264     2.64993
      O   13   -0.32312      0.99988     3.31815    0.00509     4.32312
      N   14   -0.25814      0.99964     2.74899    0.00951     3.75814
      C   15   -0.09611      0.99962     2.08515    0.01134     3.09611
      C   16   -0.09510      0.99952     2.08643    0.00915     3.09510
      C   17   -0.09655      0.99952     2.08767    0.00936     3.09655
      C   18   -0.09921      0.99961     2.09047    0.00914     3.09921
      H   19    0.09451      0.00000     0.40438    0.00111     0.40549
      H   20    0.11325      0.00000     0.38559    0.00116     0.38675
      H   21    0.09800      0.00000     0.40133    0.00067     0.40200
      H   22    0.09512      0.00000     0.40362    0.00126     0.40488
      H   23    0.09694      0.00000     0.40205    0.00100     0.40306
      H   24    0.10124      0.00000     0.39743    0.00134     0.39876
      H   25    0.10040      0.00000     0.39876    0.00084     0.39960
      H   26    0.09335      0.00000     0.40529    0.00136     0.40665
      H   27    0.10419      0.00000     0.39449    0.00132     0.39581
      H   28    0.10109      0.00000     0.39448    0.00443     0.39891
      H   29    0.09224      0.00000     0.40496    0.00279     0.40776
      H   30    0.19858      0.00000     0.29811    0.00330     0.30142
      H   31    0.11293      0.00000     0.38472    0.00234     0.38707
      H   32    0.11263      0.00000     0.38632    0.00105     0.38737
      H   33    0.11209      0.00000     0.38661    0.00130     0.38791
      H   34    0.10444      0.00000     0.39427    0.00129     0.39556
      H   35    0.10125      0.00000     0.39760    0.00115     0.39875
      H   36    0.10509      0.00000     0.39337    0.00155     0.39491
      H   37    0.10475      0.00000     0.39431    0.00093     0.39525
      H   38    0.09740      0.00000     0.40152    0.00109     0.40260
      H   39    0.10982      0.00000     0.38854    0.00164     0.39018
 =======================================================================
   * Total *   -0.00000     17.99346    49.77378    0.23276    68.00000

 Normal termination of Gaussian 16 at Fri Dec 11 20:10:49 2020.
