 Gaussian 16, Revision A.03,

 -----------------------------------------------------------
 # opt freq B3LYP/6-31G(d) empiricaldispersion=gd3bj scf=xqc
 -----------------------------------------------------------

 -------------------------------
 CID_147972484_JID_5942_neutraal
 -------------------------------
 Symbolic Z-matrix:
 Charge =  0 Multiplicity = 1

 SCF Done:  E(RB3LYP) =  -615.689173821     A.U. after   14 cycles
 SCF Done:  E(RB3LYP) =  -615.691275142     A.U. after   13 cycles
 SCF Done:  E(RB3LYP) =  -615.691614932     A.U. after   14 cycles
 SCF Done:  E(RB3LYP) =  -615.693126777     A.U. after   12 cycles
 SCF Done:  E(RB3LYP) =  -615.694679987     A.U. after   12 cycles
 SCF Done:  E(RB3LYP) =  -615.695531222     A.U. after   12 cycles
 SCF Done:  E(RB3LYP) =  -615.696216339     A.U. after   12 cycles
 SCF Done:  E(RB3LYP) =  -615.696989663     A.U. after   13 cycles
 SCF Done:  E(RB3LYP) =  -615.697054329     A.U. after   12 cycles
 SCF Done:  E(RB3LYP) =  -615.697425185     A.U. after   12 cycles
 SCF Done:  E(RB3LYP) =  -615.703305596     A.U. after    9 cycles
 SCF Done:  E(RB3LYP) =  -615.703306525     A.U. after    8 cycles
 SCF Done:  E(RB3LYP) =  -615.703306796     A.U. after    8 cycles
 SCF Done:  E(RB3LYP) =  -615.703306857     A.U. after    7 cycles
 SCF Done:  E(RB3LYP) =  -615.703306875     A.U. after    6 cycles
 SCF Done:  E(RB3LYP) =  -615.703306889     A.U. after    6 cycles
 Optimization completed.
    -- Stationary point found.
 Normal termination of Gaussian 16 at Thu Dec 10 17:57:02 2020.

 --------------------------------------------------------------------
 #N Geom=AllCheck Guess=TCheck SCRF=Check GenChk RB3LYP/6-31G(d) Freq
 --------------------------------------------------------------------

 Structure from the checkpoint file:  "JID_5942.chk"
 -------------------------------
 CID_147972484_JID_5942_neutraal
 -------------------------------
 Charge =  0 Multiplicity = 1

 SCF Done:  E(RB3LYP) =  -615.703306889     A.U. after    1 cycles

  Exact polarizability: 175.508   7.786 199.685  -2.460 -12.006 116.449
 Approx polarizability: 232.359  10.609 358.943  -1.456 -29.619 186.215

                      1                      2                      3
                      A                      A                      A
 Frequencies --     32.5430                36.4443                48.0291
 Red. masses --      3.8824                 3.5734                 3.7306
 Frc consts  --      0.0024                 0.0028                 0.0051
 IR Inten    --      0.4446                 0.4274                 0.4935

                      4                      5                      6
                      A                      A                      A
 Frequencies --    108.6976               122.1097               128.2986
 Red. masses --      4.0426                 4.0809                 2.8114
 Frc consts  --      0.0281                 0.0359                 0.0273
 IR Inten    --      0.4326                 2.3158                 5.8561

                      7                      8                      9
                      A                      A                      A
 Frequencies --    165.6033               187.3896               239.2738
 Red. masses --      2.1565                 3.9706                 2.8834
 Frc consts  --      0.0348                 0.0821                 0.0973
 IR Inten    --      0.3232                 3.4008                 2.3228

                     10                     11                     12
                      A                      A                      A
 Frequencies --    245.8934               308.3805               321.7530
 Red. masses --      2.9280                 3.3094                 1.7560
 Frc consts  --      0.1043                 0.1854                 0.1071
 IR Inten    --      1.0642                 1.1849                18.1399

                     13                     14                     15
                      A                      A                      A
 Frequencies --    342.1973               380.6089               383.6990
 Red. masses --      1.8860                 1.9636                 1.5076
 Frc consts  --      0.1301                 0.1676                 0.1308
 IR Inten    --     16.8758                 3.7423                38.6038

                     16                     17                     18
                      A                      A                      A
 Frequencies --    399.9150               415.3046               431.0384
 Red. masses --      1.8626                 2.1971                 2.3933
 Frc consts  --      0.1755                 0.2233                 0.2620
 IR Inten    --      6.4854                27.2089                 3.7427

                     19                     20                     21
                      A                      A                      A
 Frequencies --    445.4021               477.8914               519.6419
 Red. masses --      3.7408                 1.7302                 2.3006
 Frc consts  --      0.4372                 0.2328                 0.3660
 IR Inten    --      6.7816                 6.6408                 2.6600

                     22                     23                     24
                      A                      A                      A
 Frequencies --    538.2512               558.1994               605.7525
 Red. masses --      2.3695                 3.0303                 3.5465
 Frc consts  --      0.4045                 0.5563                 0.7667
 IR Inten    --     13.6793                26.7917                22.5365

                     25                     26                     27
                      A                      A                      A
 Frequencies --    639.3686               652.9784               694.5507
 Red. masses --      2.0746                 1.8189                 1.1774
 Frc consts  --      0.4997                 0.4569                 0.3346
 IR Inten    --    373.1237               112.2924                11.7756

                     28                     29                     30
                      A                      A                      A
 Frequencies --    724.9157               754.1942               766.0168
 Red. masses --      1.4500                 2.3643                 2.2512
 Frc consts  --      0.4489                 0.7923                 0.7783
 IR Inten    --    152.5485                 5.7209                81.4381

                     31                     32                     33
                      A                      A                      A
 Frequencies --    799.1236               818.3081               826.2204
 Red. masses --      2.7458                 2.6630                 2.9310
 Frc consts  --      1.0331                 1.0506                 1.1788
 IR Inten    --      3.4102                 3.6936                12.7091

                     34                     35                     36
                      A                      A                      A
 Frequencies --    828.2512               870.2949               892.0768
 Red. masses --      1.3881                 1.3720                 1.5717
 Frc consts  --      0.5610                 0.6123                 0.7369
 IR Inten    --     40.9789                 1.5971                29.0143

                     37                     38                     39
                      A                      A                      A
 Frequencies --    896.0849               917.4581               939.2782
 Red. masses --      1.4937                 2.8285                 1.3764
 Frc consts  --      0.7067                 1.4027                 0.7155
 IR Inten    --     30.4319                 4.6996                33.6736

                     40                     41                     42
                      A                      A                      A
 Frequencies --    979.2894               983.6394              1007.8080
 Red. masses --      1.9362                 1.9126                 1.9929
 Frc consts  --      1.0940                 1.0903                 1.1926
 IR Inten    --      4.9608                 0.7905                 2.7425

                     43                     44                     45
                      A                      A                      A
 Frequencies --   1030.0615              1056.0983              1068.8558
 Red. masses --      1.7350                 1.9388                 1.1086
 Frc consts  --      1.0846                 1.2740                 0.7462
 IR Inten    --      3.6950                 3.8098                 6.3246

                     46                     47                     48
                      A                      A                      A
 Frequencies --   1077.9767              1089.5733              1152.5999
 Red. masses --      1.5903                 1.7878                 1.3395
 Frc consts  --      1.0888                 1.2505                 1.0484
 IR Inten    --      6.2864                 5.0106                 3.9947

                     49                     50                     51
                      A                      A                      A
 Frequencies --   1167.7253              1181.2650              1197.7306
 Red. masses --      2.0840                 1.2902                 1.1580
 Frc consts  --      1.6743                 1.0607                 0.9787
 IR Inten    --      1.9056                 0.5336                 3.8913

                     52                     53                     54
                      A                      A                      A
 Frequencies --   1236.3949              1266.2389              1290.8212
 Red. masses --      1.2110                 1.4423                 2.3545
 Frc consts  --      1.0907                 1.3625                 2.3114
 IR Inten    --      9.0724                30.4811                60.5592

                     55                     56                     57
                      A                      A                      A
 Frequencies --   1308.2521              1327.8191              1348.4760
 Red. masses --      2.2093                 1.4632                 1.2976
 Frc consts  --      2.2279                 1.5199                 1.3902
 IR Inten    --     31.0717                 3.5974                13.1793

                     58                     59                     60
                      A                      A                      A
 Frequencies --   1357.2752              1376.6907              1384.8368
 Red. masses --      1.5279                 1.5027                 2.0646
 Frc consts  --      1.6583                 1.6780                 2.3329
 IR Inten    --     17.2241                 2.8360                 7.4838

                     61                     62                     63
                      A                      A                      A
 Frequencies --   1417.8014              1424.4331              1446.8797
 Red. masses --      1.5008                 1.9869                 2.3030
 Frc consts  --      1.7775                 2.3752                 2.8406
 IR Inten    --      7.7199                 2.6868                29.1398

                     64                     65                     66
                      A                      A                      A
 Frequencies --   1458.6083              1496.8249              1497.9838
 Red. masses --      1.3216                 1.3916                 1.1080
 Frc consts  --      1.6567                 1.8370                 1.4648
 IR Inten    --      6.0407                 6.0639                 1.8420

                     67                     68                     69
                      A                      A                      A
 Frequencies --   1509.2070              1522.5196              1643.8954
 Red. masses --      1.1055                 1.1198                 3.1900
 Frc consts  --      1.4835                 1.5293                 5.0791
 IR Inten    --      1.4705                 4.4763                14.9642

                     70                     71                     72
                      A                      A                      A
 Frequencies --   1668.4065              1674.3623              1681.1595
 Red. masses --      2.1982                 1.4553                 4.2064
 Frc consts  --      3.6052                 2.4038                 7.0045
 IR Inten    --     42.3380                47.4559                79.6462

                     73                     74                     75
                      A                      A                      A
 Frequencies --   1692.8909              1714.3741              1732.1219
 Red. masses --      1.8100                 3.0931                 5.2649
 Frc consts  --      3.0562                 5.3562                 9.3067
 IR Inten    --    124.1119                37.7485                95.0240

                     76                     77                     78
                      A                      A                      A
 Frequencies --   2983.1460              2994.0028              3007.4624
 Red. masses --      1.0730                 1.0681                 1.0665
 Frc consts  --      5.6259                 5.6410                 5.6835
 IR Inten    --     13.5609                50.2894                49.7758

                     79                     80                     81
                      A                      A                      A
 Frequencies --   3041.8940              3070.4031              3076.0185
 Red. masses --      1.0939                 1.0901                 1.0908
 Frc consts  --      5.9637                 6.0548                 6.0808
 IR Inten    --     17.6472                34.8293                38.8455

                     82                     83                     84
                      A                      A                      A
 Frequencies --   3124.8613              3162.0039              3168.7109
 Red. masses --      1.0863                 1.0590                 1.0885
 Frc consts  --      6.2499                 6.2385                 6.4393
 IR Inten    --     31.8926                13.0073                40.6722

                     85                     86                     87
                      A                      A                      A
 Frequencies --   3169.7949              3195.9237              3213.4385
 Red. masses --      1.0583                 1.0906                 1.0921
 Frc consts  --      6.2651                 6.5631                 6.6445
 IR Inten    --      5.5053                11.2650                20.5677

                     88                     89                     90
                      A                      A                      A
 Frequencies --   3242.1889              3252.2055              3517.6674
 Red. masses --      1.1159                 1.1152                 1.0479
 Frc consts  --      6.9112                 6.9493                 7.6401
 IR Inten    --     18.1530                 8.2116                 2.0196

                     91                     92                     93
                      A                      A                      A
 Frequencies --   3526.4801              3622.6062              3628.7446
 Red. masses --      1.0472                 1.0969                 1.0982
 Frc consts  --      7.6730                 8.4810                 8.5199
 IR Inten    --      6.7234                 2.8385                 4.9438

 - Thermochemistry -
 -------------------
 Temperature   298.150 Kelvin.  Pressure   1.00000 Atm.
 Atom     1 has atomic number  6 and mass  12.00000

 Molecular mass:   202.14700 amu.
 Principal axes and moments of inertia in atomic units:
                           1         2         3
     Eigenvalues --  2044.262165054.465146010.40853
           X            0.99995   0.00753  -0.00632
           Y           -0.00759   0.99993  -0.00953
           Z            0.00625   0.00958   0.99993
 This molecule is an asymmetric top.
 Rotational symmetry number  1.
 Warning -- assumption of classical behavior for rotation
           may cause significant error
 Rotational temperatures (Kelvin)      0.04237     0.01714     0.01441
 Rotational constants (GHZ):           0.88283     0.35706     0.30027
 Zero-point vibrational energy     753228.0 (Joules/Mol)
                                  180.02581 (Kcal/Mol)
 Warning -- explicit consideration of  24 degrees of freedom as
           vibrations may cause significant error
 Vibrational temperatures:     46.82    52.44    69.10   156.39   175.69
          (Kelvin)            184.59   238.27   269.61   344.26   353.79
                              443.69   462.93   492.35   547.61   552.06
                              575.39   597.53   620.17   640.83   687.58
                              747.65   774.42   803.12   871.54   919.91
                              939.49   999.30  1042.99  1085.12  1102.13
                             1149.76  1177.36  1188.75  1191.67  1252.16
                             1283.50  1289.27  1320.02  1351.41  1408.98
                             1415.24  1450.01  1482.03  1519.49  1537.85
                             1550.97  1567.65  1658.33  1680.10  1699.58
                             1723.27  1778.90  1821.84  1857.20  1882.28
                             1910.44  1940.16  1952.82  1980.75  1992.47
                             2039.90  2049.44  2081.74  2098.61  2153.60
                             2155.26  2171.41  2190.57  2365.20  2400.46
                             2409.03  2418.81  2435.69  2466.60  2492.14
                             4292.08  4307.70  4327.07  4376.61  4417.63
                             4425.70  4495.98  4549.42  4559.07  4560.63
                             4598.22  4623.42  4664.79  4679.20  5061.14
                             5073.82  5212.12  5220.95

 Zero-point correction=                           0.286889 (Hartree/Particle)
 Thermal correction to Energy=                    0.302272
 Thermal correction to Enthalpy=                  0.303216
 Thermal correction to Gibbs Free Energy=         0.243920
 Sum of electronic and zero-point Energies=           -615.416417
 Sum of electronic and thermal Energies=              -615.401035
 Sum of electronic and thermal Enthalpies=            -615.400091
 Sum of electronic and thermal Free Energies=         -615.459387

                     E (Thermal)             CV                S
                      KCal/Mol        Cal/Mol-Kelvin    Cal/Mol-Kelvin
 Total                  189.678             60.094            124.798
 Electronic               0.000              0.000              0.000
 Translational            0.889              2.981             41.816
 Rotational               0.889              2.981             32.496
 Vibrational            187.901             54.132             50.486
 Vibration     1          0.594              1.983              5.668
 Vibration     2          0.594              1.982              5.444
 Vibration     3          0.595              1.978              4.897
 Vibration     4          0.606              1.942              3.292
 Vibration     5          0.610              1.931              3.067
 Vibration     6          0.611              1.925              2.971
 Vibration     7          0.624              1.885              2.485
 Vibration     8          0.632              1.857              2.253
 Vibration     9          0.657              1.780              1.808
 Vibration    10          0.660              1.770              1.760
 Vibration    11          0.698              1.658              1.371
 Vibration    12          0.707              1.632              1.301
 Vibration    13          0.721              1.591              1.202
 Vibration    14          0.750              1.512              1.037
 Vibration    15          0.753              1.505              1.025
 Vibration    16          0.766              1.470              0.963
 Vibration    17          0.779              1.437              0.908
 Vibration    18          0.792              1.403              0.855
 Vibration    19          0.805              1.371              0.810
 Vibration    20          0.834              1.299              0.716
 Vibration    21          0.875              1.206              0.611
 Vibration    22          0.893              1.165              0.569
 Vibration    23          0.914              1.122              0.527
 Vibration    24          0.964              1.020              0.440

                           ! Non-Optimized Parameters !
 Normal termination of Gaussian 16 at Thu Dec 10 18:06:54 2020.

 ----------------------------------------------------------------------
 # B3LYP/6-311++G(d,p) empiricaldispersion=gd3bj scf=xqc pop=npa geom=c
 heck
 ----------------------------------------------------------------------

 ---------------------------------------
 CID_147972484_JID_5942_Energie_neutraal
 ---------------------------------------
 Structure from the checkpoint file:  "JID_5942.chk"
 Charge =  0 Multiplicity = 1

 SCF Done:  E(RB3LYP) =  -615.885741833     A.U. after   15 cycles
 Normal termination of Gaussian 16 at Thu Dec 10 18:10:59 2020.

 ----------------------------------------------------------------------
 # B3LYP/6-311++G(d,p) empiricaldispersion=gd3bj scf=xqc pop=npa geom=c
 heck
 ----------------------------------------------------------------------

 -------------------------------------
 CID_147972484_JID_5942_Energie_kation
 -------------------------------------
 Structure from the checkpoint file:  "JID_5942.chk"
 Charge =  1 Multiplicity = 2

 SCF Done:  E(UB3LYP) =  -615.647793112     A.U. after   23 cycles
 Normal termination of Gaussian 16 at Thu Dec 10 18:19:07 2020.
 Gaussian 16:  ES64L-G16RevA.03 25-Dec-2016

 ----------------------------------------------------------------------
 # B3LYP/6-311++G(d,p) empiricaldispersion=gd3bj scf=xqc pop=npa geom=c
 heck
 ----------------------------------------------------------------------

 ------------------------------------
 CID_147972484_JID_5942_Energie_anion
 ------------------------------------
 Structure from the checkpoint file:  "JID_5942.chk"
 Charge = -1 Multiplicity = 2

                         Standard orientation:
 ---------------------------------------------------------------------
 Center     Atomic      Atomic             Coordinates (Angstroms)
 Number     Number       Type             X           Y           Z
 ---------------------------------------------------------------------
      1          6           0        1.868666   -2.808515    0.605965
      2          6           0        1.630110   -1.552794    0.200572
      3          6           0        2.647914   -0.658403   -0.362197
      4          6           0        2.568444    0.700971   -0.426239
      5          6           0        1.649140    1.646778    0.194256
      6          6           0        1.768982    2.960100   -0.091755
      7          6           0        0.580761    1.210624    1.178129
      8          6           0       -0.723728    0.748675    0.570306
      9          6           0       -1.059751    0.891129   -0.726676
     10          6           0       -2.356333    0.478236   -1.247257
     11          6           0       -3.179646   -0.301629   -0.510169
     12          6           0       -2.711744   -0.796758    0.840464
     13          6           0       -1.767819    0.201946    1.522515
     14          7           0       -4.452516   -0.707837   -0.904097
     15          7           0        3.791795   -1.318991   -0.842082
     16          1           0        2.869838   -3.229271    0.620599
     17          1           0        1.063159   -3.441062    0.967313
     18          1           0        0.617532   -1.165377    0.219928
     19          1           0        3.368468    1.188081   -0.985958
     20          1           0        1.119628    3.700316    0.365707
     21          1           0        2.515818    3.328608   -0.790347
     22          1           0        0.979076    0.415106    1.822875
     23          1           0        0.368327    2.051632    1.855790
     24          1           0       -0.353341    1.342226   -1.417878
     25          1           0       -2.640093    0.784764   -2.251732
     26          1           0       -2.187106   -1.755363    0.689987
     27          1           0       -3.571560   -1.005001    1.488084
     28          1           0       -2.358487    1.044009    1.921163
     29          1           0       -1.294006   -0.276332    2.388231
     30          1           0       -4.635757   -0.631018   -1.898380
     31          1           0       -4.742896   -1.609087   -0.541589
     32          1           0        3.583075   -2.159283   -1.371643
     33          1           0        4.433402   -0.717318   -1.346372
 ---------------------------------------------------------------------

 SCF Done:  E(UB3LYP) =  -615.881562298     A.U. after   32 cycles

 The electronic state is 2-A.
 Alpha  occ. eigenvalues --  -14.21331 -14.19711 -10.09946 -10.07384 -10.07257
 Alpha  occ. eigenvalues --  -10.06745 -10.05501 -10.05305 -10.05288 -10.04479
 Alpha  occ. eigenvalues --  -10.04095 -10.03641 -10.02850 -10.02682 -10.02143
 Alpha  occ. eigenvalues --   -0.81191  -0.79491  -0.72625  -0.68662  -0.64414
 Alpha  occ. eigenvalues --   -0.63404  -0.62813  -0.58586  -0.55503  -0.52081
 Alpha  occ. eigenvalues --   -0.48929  -0.46661  -0.43915  -0.41471  -0.40920
 Alpha  occ. eigenvalues --   -0.40239  -0.38530  -0.36126  -0.35080  -0.34209
 Alpha  occ. eigenvalues --   -0.32804  -0.32192  -0.31760  -0.30440  -0.29060
 Alpha  occ. eigenvalues --   -0.28091  -0.27713  -0.26079  -0.24875  -0.24567
 Alpha  occ. eigenvalues --   -0.22964  -0.22778  -0.22275  -0.21888  -0.20342
 Alpha  occ. eigenvalues --   -0.16787  -0.16170  -0.14646  -0.07684  -0.06907
 Alpha  occ. eigenvalues --    0.04379
 Alpha virt. eigenvalues --    0.05696   0.07781   0.08127   0.08451   0.09134
 Alpha virt. eigenvalues --    0.09459   0.10263   0.10478   0.11080   0.11781
 Alpha virt. eigenvalues --    0.12166   0.12598   0.12736   0.13486   0.14074

  Beta  occ. eigenvalues --  -14.21272 -14.19690 -10.09924 -10.07247 -10.07227
  Beta  occ. eigenvalues --  -10.06743 -10.05501 -10.05291 -10.05289 -10.04472
  Beta  occ. eigenvalues --  -10.04092 -10.03582 -10.02616 -10.02592 -10.01961
  Beta  occ. eigenvalues --   -0.81115  -0.79345  -0.72596  -0.68505  -0.64085
  Beta  occ. eigenvalues --   -0.63377  -0.62684  -0.58340  -0.55357  -0.52058
  Beta  occ. eigenvalues --   -0.48387  -0.46578  -0.43660  -0.41345  -0.40854
  Beta  occ. eigenvalues --   -0.40179  -0.38467  -0.36040  -0.34969  -0.34174
  Beta  occ. eigenvalues --   -0.32694  -0.32132  -0.31664  -0.30355  -0.28978
  Beta  occ. eigenvalues --   -0.28014  -0.27661  -0.25984  -0.24766  -0.24363
  Beta  occ. eigenvalues --   -0.22875  -0.22436  -0.22188  -0.21706  -0.20267
  Beta  occ. eigenvalues --   -0.16727  -0.15525  -0.13727  -0.07331  -0.06134
  Beta virt. eigenvalues --    0.06985   0.07645   0.08174   0.08458   0.08634
  Beta virt. eigenvalues --    0.09265   0.09667   0.10377   0.10426   0.11217
  Beta virt. eigenvalues --    0.11784   0.12200   0.12702   0.12842   0.13755

 Mulliken charges and spin densities:
               1          2
     1  C   -0.503530   0.275455
     2  C    0.391555   0.007033
     3  C   -0.602722   0.077046
     4  C   -0.645368  -0.002394
     5  C    0.976808   0.070051
     6  C   -0.900222   0.182223
     7  C   -0.274942   0.002500
     8  C    0.884479  -0.346033
     9  C   -0.476400  -0.005113
    10  C   -0.027653  -0.215767
    11  C    0.053594  -0.358456
    12  C    0.077906  -0.302135
    13  C   -0.647888   0.129640
    14  N   -0.291659  -0.022526
    15  N   -0.324721   0.017942
    16  H    0.131456  -0.003130
    17  H    0.089681  -0.003899
    18  H    0.192995  -0.067207
    19  H    0.102645   0.000339
    20  H    0.094884  -0.005242
    21  H    0.085970   0.002158
    22  H    0.139228   0.002221
    23  H    0.158417   0.023241
    24  H    0.195817   0.010390
    25  H   -0.056478   0.203486
    26  H    0.003718   0.144591
    27  H    0.014416   0.156550
    28  H    0.115953   0.009321
    29  H    0.129834   0.018991
    30  H   -0.207605   0.453458
    31  H   -0.289543   0.529626
    32  H    0.193003   0.015618
    33  H    0.216371   0.000021
 Sum of Mulliken charges =  -1.00000   1.00000

 Dipole moment (field-independent basis, Debye):
    X=              3.0917    Y=              1.4680    Z=              1.0401  Tot=              3.5771
 Quadrupole moment (field-independent basis, Debye-Ang):
   XX=           -164.2510   YY=           -127.1140   ZZ=           -109.2380
   XY=             -9.0963   XZ=            -17.3486   YZ=             -0.5685

 Summary of Natural Population Analysis:

                                       Natural Population
                Natural  -----------------------------------------------
    Atom  No    Charge         Core      Valence    Rydberg      Total
 -----------------------------------------------------------------------
      C    1   -0.14990      0.99959     2.14322    0.00709     3.14990
      C    2   -0.11377      0.99953     2.10326    0.01097     3.11377
      C    3    0.10196      0.99948     1.88638    0.01218     2.89804
      C    4   -0.12415      0.99947     2.11657    0.00812     3.12415
      C    5   -0.01503      0.99951     2.00569    0.00983     3.01503
      C    6   -0.17205      0.99953     2.16558    0.00694     3.17205
      C    7   -0.21208      0.99955     2.20296    0.00956     3.21208
      C    8   -0.01497      0.99950     2.00533    0.01014     3.01497
      C    9   -0.10639      0.99945     2.09828    0.00866     3.10639
      C   10   -0.16514      0.99948     2.15524    0.01042     3.16514
      C   11    0.10949      0.99948     1.87893    0.01210     2.89051
      C   12   -0.20514      0.99959     2.19588    0.00967     3.20514
      C   13   -0.19786      0.99959     2.18926    0.00901     3.19786
      N   14   -0.39618      0.99971     2.88509    0.01138     3.89618
      N   15   -0.40287      0.99973     2.89322    0.00992     3.90287
      H   16    0.08652      0.00000     0.41231    0.00117     0.41348
      H   17    0.08513      0.00000     0.41378    0.00109     0.41487
      H   18    0.10339      0.00000     0.39442    0.00219     0.39661
      H   19    0.08308      0.00000     0.41527    0.00165     0.41692
      H   20    0.08484      0.00000     0.41423    0.00093     0.41516
      H   21    0.08331      0.00000     0.41560    0.00109     0.41669
      H   22    0.10771      0.00000     0.39103    0.00125     0.39229
      H   23    0.10024      0.00000     0.39832    0.00144     0.39976
      H   24    0.10611      0.00000     0.39232    0.00157     0.39389
      H   25    0.09501      0.00000     0.40372    0.00127     0.40499
      H   26    0.10355      0.00000     0.39474    0.00171     0.39645
      H   27    0.10065      0.00000     0.39817    0.00118     0.39935
      H   28    0.09670      0.00000     0.40202    0.00129     0.40330
      H   29    0.09994      0.00000     0.39905    0.00101     0.40006
      H   30    0.18586      0.00000     0.31075    0.00339     0.31414
      H   31    0.18589      0.00000     0.30888    0.00523     0.31411
      H   32    0.17962      0.00000     0.31802    0.00235     0.32038
      H   33    0.17654      0.00000     0.32217    0.00130     0.32346
 =======================================================================
   * Total *   -0.00000     14.99321    39.82971    0.17709    55.00000

 Normal termination of Gaussian 16 at Thu Dec 10 18:30:37 2020.
