 Gaussian 16, Revision A.03,

 -----------------------------------------------------------
 # opt freq B3LYP/6-31G(d) empiricaldispersion=gd3bj scf=xqc
 -----------------------------------------------------------

 ------------------------------
 CID_79811951_JID_4927_neutraal
 ------------------------------
 Symbolic Z-matrix:
 Charge =  0 Multiplicity = 1

 SCF Done:  E(RB3LYP) =  -582.501134941     A.U. after   12 cycles
 SCF Done:  E(RB3LYP) =  -582.505143831     A.U. after   10 cycles
 SCF Done:  E(RB3LYP) =  -582.505852967     A.U. after   10 cycles
 SCF Done:  E(RB3LYP) =  -582.505992958     A.U. after   10 cycles
 SCF Done:  E(RB3LYP) =  -582.506069403     A.U. after    9 cycles
 SCF Done:  E(RB3LYP) =  -582.506102799     A.U. after    9 cycles
 SCF Done:  E(RB3LYP) =  -582.506109339     A.U. after    9 cycles
 SCF Done:  E(RB3LYP) =  -582.506110931     A.U. after    7 cycles
 SCF Done:  E(RB3LYP) =  -582.506111483     A.U. after    7 cycles
 SCF Done:  E(RB3LYP) =  -582.506111596     A.U. after    6 cycles
 Optimization completed.
    -- Stationary point found.
 Normal termination of Gaussian 16 at Thu Dec 10 10:56:47 2020.

 --------------------------------------------------------------------
 #N Geom=AllCheck Guess=TCheck SCRF=Check GenChk RB3LYP/6-31G(d) Freq
 --------------------------------------------------------------------

 Structure from the checkpoint file:  "JID_4927.chk"
 ------------------------------
 CID_79811951_JID_4927_neutraal
 ------------------------------
 Charge =  0 Multiplicity = 1

 SCF Done:  E(RB3LYP) =  -582.506111595     A.U. after    1 cycles

  Exact polarizability: 162.388  -0.594 132.806  -3.330   0.573 122.388
 Approx polarizability: 191.383   0.246 187.482  -0.310   0.947 188.131

                      1                      2                      3
                      A                      A                      A
 Frequencies --     22.1041                44.1491                68.0666
 Red. masses --      3.3432                 3.1765                 3.1292
 Frc consts  --      0.0010                 0.0036                 0.0085
 IR Inten    --      0.1700                 0.0864                 0.6346

                      4                      5                      6
                      A                      A                      A
 Frequencies --     91.6104               126.3416               152.1259
 Red. masses --      2.5874                 2.0523                 2.9285
 Frc consts  --      0.0128                 0.0193                 0.0399
 IR Inten    --      0.2689                 0.1207                 0.0874

                      7                      8                      9
                      A                      A                      A
 Frequencies --    187.9521               216.4940               223.8396
 Red. masses --      2.3370                 1.0824                 2.6067
 Frc consts  --      0.0486                 0.0299                 0.0770
 IR Inten    --      0.1451                 0.3083                 1.2432

                     10                     11                     12
                      A                      A                      A
 Frequencies --    241.5100               251.9585               288.9425
 Red. masses --      2.0924                 1.8228                 1.6189
 Frc consts  --      0.0719                 0.0682                 0.0796
 IR Inten    --      0.8893                 1.7051                 0.0725

                     13                     14                     15
                      A                      A                      A
 Frequencies --    313.9862               318.8063               328.1840
 Red. masses --      2.7277                 1.5697                 1.9582
 Frc consts  --      0.1584                 0.0940                 0.1243
 IR Inten    --      0.4792                 9.2474                 8.4057

                     16                     17                     18
                      A                      A                      A
 Frequencies --    334.8236               367.9259               384.9912
 Red. masses --      1.4527                 2.3754                 2.3965
 Frc consts  --      0.0960                 0.1895                 0.2093
 IR Inten    --     20.2346                 3.4722                 0.7218

                     19                     20                     21
                      A                      A                      A
 Frequencies --    413.7493               434.0384               462.0020
 Red. masses --      2.1386                 2.1284                 2.6837
 Frc consts  --      0.2157                 0.2362                 0.3375
 IR Inten    --      0.6930                 0.4834                10.7050

                     22                     23                     24
                      A                      A                      A
 Frequencies --    501.6216               511.0405               590.3695
 Red. masses --      2.1378                 1.6966                 2.4082
 Frc consts  --      0.3169                 0.2611                 0.4945
 IR Inten    --      1.4316                 2.6631                 5.0763

                     25                     26                     27
                      A                      A                      A
 Frequencies --    601.7864               732.8567               756.9936
 Red. masses --      2.7338                 2.7421                 2.9486
 Frc consts  --      0.5833                 0.8677                 0.9955
 IR Inten    --      2.6027                 2.3615                 0.1572

                     28                     29                     30
                      A                      A                      A
 Frequencies --    796.0326               805.5307               823.8275
 Red. masses --      1.3798                 1.2939                 2.0725
 Frc consts  --      0.5151                 0.4947                 0.8287
 IR Inten    --     28.0675                 3.5950                 6.4512

                     31                     32                     33
                      A                      A                      A
 Frequencies --    840.2578               856.3427               871.1210
 Red. masses --      1.7862                 1.8570                 1.4428
 Frc consts  --      0.7430                 0.8023                 0.6451
 IR Inten    --      2.6640                 1.7773                 1.9449

                     34                     35                     36
                      A                      A                      A
 Frequencies --    900.8563               933.2584               949.8136
 Red. masses --      2.3323                 1.7376                 2.0429
 Frc consts  --      1.1152                 0.8917                 1.0859
 IR Inten    --     56.5728                25.8940                 0.6009

                     37                     38                     39
                      A                      A                      A
 Frequencies --    967.4995               977.9309               993.1507
 Red. masses --      1.7702                 1.6561                 1.9023
 Frc consts  --      0.9763                 0.9331                 1.1055
 IR Inten    --     35.5395                42.4384                 9.1700

                     40                     41                     42
                      A                      A                      A
 Frequencies --   1007.4153              1021.3918              1030.2964
 Red. masses --      1.7512                 1.4567                 1.7642
 Frc consts  --      1.0471                 0.8954                 1.1034
 IR Inten    --      2.1656                 8.8505                 1.6603

                     43                     44                     45
                      A                      A                      A
 Frequencies --   1039.5949              1058.9882              1063.7112
 Red. masses --      1.9296                 1.7915                 2.0559
 Frc consts  --      1.2287                 1.1837                 1.3706
 IR Inten    --      4.8401                 9.2830                12.0133

                     46                     47                     48
                      A                      A                      A
 Frequencies --   1084.7629              1103.6962              1126.1948
 Red. masses --      1.6324                 1.7574                 2.0063
 Frc consts  --      1.1317                 1.2613                 1.4993
 IR Inten    --     22.2794                 3.1566                 5.0580

                     49                     50                     51
                      A                      A                      A
 Frequencies --   1134.7042              1144.7559              1176.7608
 Red. masses --      1.8411                 2.8199                 2.0966
 Frc consts  --      1.3966                 2.1772                 1.7106
 IR Inten    --      1.9957                46.8222                 3.9771

                     52                     53                     54
                      A                      A                      A
 Frequencies --   1195.3753              1225.7446              1236.7173
 Red. masses --      1.4537                 2.3048                 1.7802
 Frc consts  --      1.2239                 2.0402                 1.6042
 IR Inten    --      4.2310                52.4818                28.5976

                     55                     56                     57
                      A                      A                      A
 Frequencies --   1237.6833              1254.5891              1270.1425
 Red. masses --      1.2230                 1.3359                 1.1970
 Frc consts  --      1.1038                 1.2389                 1.1378
 IR Inten    --      1.1795                 0.9331                 1.9029

                     58                     59                     60
                      A                      A                      A
 Frequencies --   1293.2797              1315.1009              1327.9581
 Red. masses --      1.2665                 1.2082                 1.1501
 Frc consts  --      1.2481                 1.2311                 1.1950
 IR Inten    --      2.6385                 3.2549                 1.1525

                     61                     62                     63
                      A                      A                      A
 Frequencies --   1344.6570              1351.7839              1372.8497
 Red. masses --      1.3740                 1.2919                 1.3512
 Frc consts  --      1.4637                 1.3909                 1.5005
 IR Inten    --     21.4547                 2.6796                 1.7174

                     64                     65                     66
                      A                      A                      A
 Frequencies --   1378.8676              1392.9891              1394.3671
 Red. masses --      1.3073                 1.4830                 1.4988
 Frc consts  --      1.4644                 1.6955                 1.7170
 IR Inten    --      1.4990                 2.2687                 4.6430

                     67                     68                     69
                      A                      A                      A
 Frequencies --   1398.2801              1411.4665              1413.7822
 Red. masses --      1.4142                 1.4875                 1.4225
 Frc consts  --      1.6291                 1.7460                 1.6752
 IR Inten    --      3.6264                 6.3961                 2.2903

                     70                     71                     72
                      A                      A                      A
 Frequencies --   1417.8355              1425.4343              1427.9928
 Red. masses --      1.4316                 1.4813                 1.3631
 Frc consts  --      1.6956                 1.7734                 1.6377
 IR Inten    --      1.2348                19.5947                 0.8392

                     73                     74                     75
                      A                      A                      A
 Frequencies --   1434.0935              1439.3670              1506.2411
 Red. masses --      1.3029                 1.3749                 1.1556
 Frc consts  --      1.5788                 1.6783                 1.5447
 IR Inten    --      3.4322                10.3968                11.6320

                     76                     77                     78
                      A                      A                      A
 Frequencies --   1513.0970              1515.3136              1517.6102
 Red. masses --      1.0810                 1.0775                 1.0856
 Frc consts  --      1.4582                 1.4577                 1.4732
 IR Inten    --      1.9544                 4.1209                 1.6133

                     79                     80                     81
                      A                      A                      A
 Frequencies --   1519.3611              1521.0426              1523.5315
 Red. masses --      1.0726                 1.0853                 1.0826
 Frc consts  --      1.4588                 1.4795                 1.4806
 IR Inten    --      2.5336                 4.3528                 4.8608

                     82                     83                     84
                      A                      A                      A
 Frequencies --   1529.7239              1533.2852              1537.9356
 Red. masses --      1.0768                 1.0796                 1.0835
 Frc consts  --      1.4845                 1.4954                 1.5099
 IR Inten    --      8.6880                 7.9482                 7.1611

                     85                     86                     87
                      A                      A                      A
 Frequencies --   1538.9709              1547.3261              1550.0991
 Red. masses --      1.0528                 1.0722                 1.1187
 Frc consts  --      1.4691                 1.5125                 1.5838
 IR Inten    --      6.5994                 1.8998                 6.6554

                     88                     89                     90
                      A                      A                      A
 Frequencies --   1703.8671              2916.7263              2938.2767
 Red. masses --      1.0879                 1.0824                 1.0731
 Frc consts  --      1.8609                 5.4255                 5.4586
 IR Inten    --     18.7736                58.8774                90.0208

                     91                     92                     93
                      A                      A                      A
 Frequencies --   3016.5564              3020.2478              3023.5980
 Red. masses --      1.0667                 1.0637                 1.0608
 Frc consts  --      5.7189                 5.7169                 5.7140
 IR Inten    --     23.0301                24.1378                21.4863

                     94                     95                     96
                      A                      A                      A
 Frequencies --   3024.1475              3031.2859              3036.5104
 Red. masses --      1.0656                 1.0640                 1.0639
 Frc consts  --      5.7420                 5.7601                 5.7797
 IR Inten    --     40.5582                20.7045                14.5915

                     97                     98                     99
                      A                      A                      A
 Frequencies --   3044.2441              3044.5155              3054.9441
 Red. masses --      1.0409                 1.0657                 1.0403
 Frc consts  --      5.6837                 5.8199                 5.7203
 IR Inten    --     20.9985                28.9940                29.1536

                    100                    101                    102
                      A                      A                      A
 Frequencies --   3060.1852              3060.5908              3063.9527
 Red. masses --      1.0907                 1.0973                 1.1015
 Frc consts  --      6.0177                 6.0563                 6.0923
 IR Inten    --    102.7921                14.3224                22.1800

                    103                    104                    105
                      A                      A                      A
 Frequencies --   3065.2827              3073.5011              3077.9390
 Red. masses --      1.0978                 1.0998                 1.0998
 Frc consts  --      6.0772                 6.1214                 6.1389
 IR Inten    --     63.6788                37.2106                33.9535

                    106                    107                    108
                      A                      A                      A
 Frequencies --   3085.6431              3093.2732              3105.9810
 Red. masses --      1.1000                 1.0879                 1.0980
 Frc consts  --      6.1708                 6.1331                 6.2412
 IR Inten    --     89.3655                23.4523                49.5859

                    109                    110                    111
                      A                      A                      A
 Frequencies --   3113.4105              3141.4704              3143.5077
 Red. masses --      1.1018                 1.1007                 1.1007
 Frc consts  --      6.2928                 6.4000                 6.4085
 IR Inten    --     41.6734                26.5648                15.9888

                    112                    113                    114
                      A                      A                      A
 Frequencies --   3432.7948              3493.5601              3516.6757
 Red. masses --      1.0494                 1.0733                 1.0910
 Frc consts  --      7.2859                 7.7179                 7.9497
 IR Inten    --      5.3921                 0.9355                 6.1983

 - Thermochemistry -
 -------------------
 Temperature   298.150 Kelvin.  Pressure   1.00000 Atm.
 Atom     1 has atomic number  6 and mass  12.00000

 Molecular mass:   198.20960 amu.
 Principal axes and moments of inertia in atomic units:
                           1         2         3
     Eigenvalues --  1324.246056067.090936448.75054
           X            1.00000  -0.00067  -0.00285
           Y            0.00067   1.00000   0.00181
           Z            0.00285  -0.00181   0.99999
 This molecule is an asymmetric top.
 Rotational symmetry number  1.
 Warning -- assumption of classical behavior for rotation
           may cause significant error
 Rotational temperatures (Kelvin)      0.06541     0.01428     0.01343
 Rotational constants (GHZ):           1.36284     0.29746     0.27986
 Zero-point vibrational energy     992139.4 (Joules/Mol)
                                  237.12700 (Kcal/Mol)
 Warning -- explicit consideration of  25 degrees of freedom as
           vibrations may cause significant error
 Vibrational temperatures:     31.80    63.52    97.93   131.81   181.78
          (Kelvin)            218.88   270.42   311.49   322.06   347.48
                              362.51   415.72   451.76   458.69   472.18
                              481.74   529.36   553.92   595.29   624.48
                              664.72   721.72   735.27   849.41   865.84
                             1054.42  1089.14  1145.31  1158.98  1185.30
                             1208.94  1232.09  1253.35  1296.13  1342.75
                             1366.57  1392.02  1407.02  1428.92  1449.45
                             1469.56  1482.37  1495.75  1523.65  1530.44
                             1560.73  1587.97  1620.34  1632.59  1647.05
                             1693.10  1719.88  1763.57  1779.36  1780.75
                             1805.07  1827.45  1860.74  1892.14  1910.64
                             1934.66  1944.92  1975.22  1983.88  2004.20
                             2006.18  2011.81  2030.79  2034.12  2039.95
                             2050.88  2054.56  2063.34  2070.93  2167.15
                             2177.01  2180.20  2183.50  2186.02  2188.44
                             2192.02  2200.93  2206.06  2212.75  2214.24
                             2226.26  2230.25  2451.48  4196.52  4227.52
                             4340.15  4345.46  4350.28  4351.07  4361.34
                             4368.86  4379.99  4380.38  4395.38  4402.92
                             4403.51  4408.34  4410.26  4422.08  4428.47
                             4439.55  4450.53  4468.81  4479.50  4519.88
                             4522.81  4939.03  5026.45  5059.71

 Zero-point correction=                           0.377886 (Hartree/Particle)
 Thermal correction to Energy=                    0.393698
 Thermal correction to Enthalpy=                  0.394643
 Thermal correction to Gibbs Free Energy=         0.334777
 Sum of electronic and zero-point Energies=           -582.128226
 Sum of electronic and thermal Energies=              -582.112413
 Sum of electronic and thermal Enthalpies=            -582.111469
 Sum of electronic and thermal Free Energies=         -582.171335

                     E (Thermal)             CV                S
                      KCal/Mol        Cal/Mol-Kelvin    Cal/Mol-Kelvin
 Total                  247.050             61.857            125.999
 Electronic               0.000              0.000              0.000
 Translational            0.889              2.981             41.757
 Rotational               0.889              2.981             32.316
 Vibrational            245.272             55.895             51.925
 Vibration     1          0.593              1.985              6.436
 Vibration     2          0.595              1.980              5.064
 Vibration     3          0.598              1.969              4.208
 Vibration     4          0.602              1.955              3.625
 Vibration     5          0.611              1.927              3.001
 Vibration     6          0.619              1.900              2.645
 Vibration     7          0.633              1.856              2.248
 Vibration     8          0.645              1.816              1.988
 Vibration     9          0.649              1.805              1.928
 Vibration    10          0.658              1.777              1.792
 Vibration    11          0.664              1.759              1.717
 Vibration    12          0.686              1.694              1.480
 Vibration    13          0.702              1.647              1.341
 Vibration    14          0.705              1.638              1.316
 Vibration    15          0.711              1.619              1.269
 Vibration    16          0.716              1.606              1.237
 Vibration    17          0.741              1.538              1.088
 Vibration    18          0.754              1.502              1.019
 Vibration    19          0.777              1.440              0.913
 Vibration    20          0.795              1.396              0.846
 Vibration    21          0.820              1.334              0.760
 Vibration    22          0.857              1.246              0.654
 Vibration    23          0.866              1.226              0.631
 Vibration    24          0.948              1.052              0.467
 Vibration    25          0.960              1.028              0.447

 Optimization completed.
    -- Stationary point found.
 Normal termination of Gaussian 16 at Thu Dec 10 11:10:00 2020.

 ----------------------------------------------------------------------
 # B3LYP/6-311++G(d,p) empiricaldispersion=gd3bj scf=xqc pop=npa geom=c
 heck
 ----------------------------------------------------------------------

 --------------------------------------
 CID_79811951_JID_4927_Energie_neutraal
 --------------------------------------
 Structure from the checkpoint file:  "JID_4927.chk"
 Charge =  0 Multiplicity = 1

 SCF Done:  E(RB3LYP) =  -582.676991484     A.U. after   14 cycles
 Normal termination of Gaussian 16 at Thu Dec 10 11:16:12 2020.

 ----------------------------------------------------------------------
 # B3LYP/6-311++G(d,p) empiricaldispersion=gd3bj scf=xqc pop=npa geom=c
 heck
 ----------------------------------------------------------------------

 ------------------------------------
 CID_79811951_JID_4927_Energie_kation
 ------------------------------------
 Structure from the checkpoint file:  "JID_4927.chk"
 Charge =  1 Multiplicity = 2

 SCF Done:  E(UB3LYP) =  -582.375991618     A.U. after   21 cycles
 Normal termination of Gaussian 16 at Thu Dec 10 11:28:09 2020.
 Gaussian 16:  ES64L-G16RevA.03 25-Dec-2016

 ----------------------------------------------------------------------
 # B3LYP/6-311++G(d,p) empiricaldispersion=gd3bj scf=xqc pop=npa geom=c
 heck
 ----------------------------------------------------------------------

 -----------------------------------
 CID_79811951_JID_4927_Energie_anion
 -----------------------------------
 Structure from the checkpoint file:  "JID_4927.chk"
 Charge = -1 Multiplicity = 2

                         Standard orientation:
 ---------------------------------------------------------------------
 Center     Atomic      Atomic             Coordinates (Angstroms)
 Number     Number       Type             X           Y           Z
 ---------------------------------------------------------------------
      1          6           0        4.433706   -1.355829    0.345906
      2          6           0        3.128357   -0.953170   -0.342987
      3          6           0        2.530646    0.391284    0.134467
      4          6           0        3.546782    1.528752   -0.006736
      5          6           0        1.283007    0.738536   -0.715885
      6          7           0        0.231662   -0.264580   -0.556959
      7          6           0       -1.094330    0.114190   -1.072963
      8          6           0       -1.981081   -1.141376   -1.076478
      9          6           0       -2.484898   -1.607315    0.299759
     10          6           0       -3.826358   -0.974365    0.695097
     11          6           0       -3.790681    0.532714    0.974706
     12          6           0       -3.178285    1.410823   -0.129466
     13          6           0       -1.648656    1.292931   -0.240695
     14          7           0        2.178118    0.248409    1.558450
     15          1           0        5.263370   -0.699635    0.061470
     16          1           0        4.716418   -2.379053    0.074154
     17          1           0        4.312870   -1.302901    1.431535
     18          1           0        3.274633   -0.907036   -1.431780
     19          1           0        2.383325   -1.738593   -0.158152
     20          1           0        3.921054    1.599546   -1.034164
     21          1           0        3.085966    2.491691    0.248815
     22          1           0        4.396435    1.375558    0.663582
     23          1           0        0.896758    1.698004   -0.356948
     24          1           0        1.570940    0.888412   -1.774286
     25          1           0        0.523081   -1.112139   -1.039532
     26          1           0       -1.021211    0.452725   -2.124716
     27          1           0       -2.840775   -0.968207   -1.735780
     28          1           0       -1.405164   -1.946015   -1.555340
     29          1           0       -1.718751   -1.402067    1.058132
     30          1           0       -2.614397   -2.696597    0.281189
     31          1           0       -4.217975   -1.482168    1.586513
     32          1           0       -4.549410   -1.172140   -0.110210
     33          1           0       -3.228164    0.713226    1.902318
     34          1           0       -4.817010    0.870633    1.170751
     35          1           0       -3.420815    2.455886    0.100749
     36          1           0       -3.656289    1.199229   -1.096066
     37          1           0       -1.231780    1.209117    0.771672
     38          1           0       -1.252672    2.226241   -0.657293
     39          1           0        1.940769    1.168043    1.932637
     40          1           0        1.311089   -0.291613    1.591959
 ---------------------------------------------------------------------

 SCF Done:  E(UB3LYP) =  -582.662825421     A.U. after   27 cycles

 The electronic state is 2-A.
 Alpha  occ. eigenvalues --  -14.19614 -14.18567 -10.10467 -10.09593 -10.08570
 Alpha  occ. eigenvalues --  -10.06599 -10.06544 -10.06544 -10.06504 -10.06360
 Alpha  occ. eigenvalues --  -10.06197 -10.06171 -10.06080 -10.05845  -0.81830
 Alpha  occ. eigenvalues --   -0.78311  -0.71790  -0.67574  -0.66104  -0.65176
 Alpha  occ. eigenvalues --   -0.62635  -0.57432  -0.55431  -0.53516  -0.52490
 Alpha  occ. eigenvalues --   -0.46630  -0.44650  -0.44212  -0.39186  -0.38724
 Alpha  occ. eigenvalues --   -0.38361  -0.36860  -0.36489  -0.35226  -0.34126
 Alpha  occ. eigenvalues --   -0.33239  -0.31484  -0.30877  -0.30499  -0.29664
 Alpha  occ. eigenvalues --   -0.29203  -0.28306  -0.27671  -0.27574  -0.26873
 Alpha  occ. eigenvalues --   -0.24534  -0.23876  -0.23479  -0.22862  -0.22644
 Alpha  occ. eigenvalues --   -0.22145  -0.21725  -0.21134  -0.20697  -0.14489
 Alpha  occ. eigenvalues --   -0.13114   0.04332
 Alpha virt. eigenvalues --    0.06236   0.06709   0.07226   0.07886   0.08298
 Alpha virt. eigenvalues --    0.08575   0.09513   0.09668   0.10142   0.10377
 Alpha virt. eigenvalues --    0.10821   0.11290   0.11597   0.12462   0.12604

  Beta  occ. eigenvalues --  -14.19599 -14.18553 -10.10465 -10.09584 -10.08551
  Beta  occ. eigenvalues --  -10.06581 -10.06530 -10.06525 -10.06490 -10.06342
  Beta  occ. eigenvalues --  -10.06187 -10.06147 -10.06066 -10.05833  -0.81806
  Beta  occ. eigenvalues --   -0.78287  -0.71760  -0.67546  -0.66071  -0.65144
  Beta  occ. eigenvalues --   -0.62603  -0.57391  -0.55387  -0.53474  -0.52440
  Beta  occ. eigenvalues --   -0.46579  -0.44604  -0.44159  -0.39158  -0.38683
  Beta  occ. eigenvalues --   -0.38317  -0.36833  -0.36469  -0.35195  -0.34090
  Beta  occ. eigenvalues --   -0.33217  -0.31456  -0.30849  -0.30459  -0.29638
  Beta  occ. eigenvalues --   -0.29167  -0.28276  -0.27643  -0.27540  -0.26847
  Beta  occ. eigenvalues --   -0.24501  -0.23850  -0.23453  -0.22831  -0.22614
  Beta  occ. eigenvalues --   -0.22118  -0.21695  -0.21099  -0.20661  -0.14471
  Beta  occ. eigenvalues --   -0.13068
  Beta virt. eigenvalues --    0.06335   0.06832   0.07460   0.07675   0.08213
  Beta virt. eigenvalues --    0.08616   0.09039   0.09912   0.10033   0.10411
  Beta virt. eigenvalues --    0.10704   0.10919   0.11439   0.11839   0.12787

 Mulliken charges and spin densities:
               1          2
     1  C   -0.038232  -0.584262
     2  C    0.250901  -0.418944
     3  C    0.056293   0.407089
     4  C    0.617579  -1.249442
     5  C   -1.020242   0.056400
     6  N    0.127146   0.096253
     7  C   -0.257544  -0.236194
     8  C    0.412723  -0.757676
     9  C   -0.886216   0.817331
    10  C    0.418177  -0.954190
    11  C    0.157960  -0.484330
    12  C    0.075985  -0.498297
    13  C    0.304696  -0.332110
    14  N   -0.221163   0.032303
    15  H    0.007694   0.118691
    16  H   -0.021554   0.158500
    17  H    0.112403   0.072792
    18  H   -0.276829   0.444918
    19  H    0.071196   0.011979
    20  H   -0.116979   0.278234
    21  H   -0.187402   0.313053
    22  H    0.122713   0.025011
    23  H    0.211531  -0.030239
    24  H   -0.309295   0.461962
    25  H    0.141675   0.062475
    26  H   -0.244719   0.423724
    27  H    0.135782  -0.022129
    28  H   -0.302900   0.480508
    29  H    0.144252   0.000681
    30  H   -0.135957   0.298282
    31  H   -0.066609   0.211615
    32  H   -0.173241   0.316823
    33  H   -0.094057   0.227040
    34  H   -0.027325   0.179138
    35  H   -0.300257   0.476671
    36  H    0.008667   0.123223
    37  H    0.174004  -0.043011
    38  H   -0.124790   0.271748
    39  H    0.047681   0.177366
    40  H    0.206253   0.067014
 Sum of Mulliken charges =  -1.00000   1.00000

 Dipole moment (field-independent basis, Debye):
    X=              0.5660    Y=             -0.4277    Z=              1.4238  Tot=              1.5907
 Quadrupole moment (field-independent basis, Debye-Ang):
   XX=           -173.3719   YY=           -137.7169   ZZ=           -131.1292
   XY=              0.4233   XZ=              4.5068   YZ=             -0.8113

 Summary of Natural Population Analysis:

                                       Natural Population
                Natural  -----------------------------------------------
    Atom  No    Charge         Core      Valence    Rydberg      Total
 -----------------------------------------------------------------------
      C    1   -0.28724      0.99966     2.28310    0.00448     3.28724
      C    2   -0.19333      0.99959     2.18362    0.01012     3.19333
      C    3    0.05003      0.99958     1.93643    0.01396     2.94997
      C    4   -0.29124      0.99962     2.28411    0.00752     3.29124
      C    5   -0.09024      0.99956     2.07915    0.01153     3.09024
      N    6   -0.34847      0.99972     2.83794    0.01082     3.84847
      C    7   -0.00087      0.99959     1.98893    0.01235     3.00087
      C    8   -0.19203      0.99961     2.18259    0.00983     3.19203
      C    9   -0.19627      0.99962     2.18791    0.00874     3.19627
      C   10   -0.18574      0.99962     2.17817    0.00794     3.18574
      C   11   -0.18689      0.99962     2.17904    0.00823     3.18689
      C   12   -0.19093      0.99962     2.18311    0.00819     3.19093
      C   13   -0.19902      0.99961     2.18976    0.00966     3.19902
      N   14   -0.43078      0.99976     2.92117    0.00985     3.93078
      H   15    0.09355      0.00000     0.40548    0.00096     0.40645
      H   16    0.09571      0.00000     0.40347    0.00082     0.40429
      H   17    0.10621      0.00000     0.39252    0.00126     0.39379
      H   18    0.09738      0.00000     0.40130    0.00133     0.40262
      H   19    0.09648      0.00000     0.40203    0.00148     0.40352
      H   20    0.10274      0.00000     0.39624    0.00103     0.39726
      H   21    0.09910      0.00000     0.39988    0.00102     0.40090
      H   22    0.10339      0.00000     0.39565    0.00096     0.39661
      H   23    0.09488      0.00000     0.40312    0.00199     0.40512
      H   24    0.08446      0.00000     0.41378    0.00176     0.41554
      H   25    0.17383      0.00000     0.32221    0.00397     0.32617
      H   26    0.07992      0.00000     0.41805    0.00203     0.42008
      H   27    0.09732      0.00000     0.40138    0.00131     0.40268
      H   28    0.09925      0.00000     0.39929    0.00146     0.40075
      H   29    0.09977      0.00000     0.39851    0.00172     0.40023
      H   30    0.09823      0.00000     0.40073    0.00103     0.40177
      H   31    0.09629      0.00000     0.40270    0.00101     0.40371
      H   32    0.09015      0.00000     0.40852    0.00133     0.40985
      H   33    0.09119      0.00000     0.40742    0.00138     0.40881
      H   34    0.09649      0.00000     0.40243    0.00108     0.40351
      H   35    0.09976      0.00000     0.39905    0.00119     0.40024
      H   36    0.09403      0.00000     0.40476    0.00121     0.40597
      H   37    0.09805      0.00000     0.40002    0.00193     0.40195
      H   38    0.10114      0.00000     0.39742    0.00144     0.39886
      H   39    0.17120      0.00000     0.32707    0.00173     0.32880
      H   40    0.18250      0.00000     0.31522    0.00227     0.31750
 =======================================================================
   * Total *    0.00000     13.99477    41.83329    0.17194    56.00000

 Normal termination of Gaussian 16 at Thu Dec 10 11:42:58 2020.
