 Gaussian 16, Revision A.03,

 -----------------------------------------------------------
 # opt freq B3LYP/6-31G(d) empiricaldispersion=gd3bj scf=xqc
 -----------------------------------------------------------

 -------------------------------
 CID_152597476_JID_1309_neutraal
 -------------------------------
 Symbolic Z-matrix:
 Charge =  0 Multiplicity = 1

 SCF Done:  E(RB3LYP) =  -528.837983616     A.U. after   17 cycles
 SCF Done:  E(RB3LYP) =  -528.849671502     A.U. after   14 cycles
 SCF Done:  E(RB3LYP) =  -528.850491669     A.U. after   13 cycles
 SCF Done:  E(RB3LYP) =  -528.850789939     A.U. after   13 cycles
 SCF Done:  E(RB3LYP) =  -528.850966757     A.U. after   12 cycles
 SCF Done:  E(RB3LYP) =  -528.851067988     A.U. after   11 cycles
 SCF Done:  E(RB3LYP) =  -528.851149606     A.U. after   12 cycles
 SCF Done:  E(RB3LYP) =  -528.851293348     A.U. after   13 cycles
 SCF Done:  E(RB3LYP) =  -528.851405631     A.U. after   12 cycles
 SCF Done:  E(RB3LYP) =  -528.851539917     A.U. after   12 cycles
 SCF Done:  E(RB3LYP) =  -528.851594595     A.U. after   12 cycles
 SCF Done:  E(RB3LYP) =  -528.851606984     A.U. after   11 cycles
 SCF Done:  E(RB3LYP) =  -528.851606700     A.U. after   10 cycles
 SCF Done:  E(RB3LYP) =  -528.851608726     A.U. after   10 cycles
 SCF Done:  E(RB3LYP) =  -528.851608752     A.U. after    7 cycles
 Optimization completed.
    -- Stationary point found.
 Normal termination of Gaussian 16 at Tue Dec  8 19:41:36 2020.

 --------------------------------------------------------------------
 #N Geom=AllCheck Guess=TCheck SCRF=Check GenChk RB3LYP/6-31G(d) Freq
 --------------------------------------------------------------------

 Structure from the checkpoint file:  "JID_1309.chk"
 -------------------------------
 CID_152597476_JID_1309_neutraal
 -------------------------------
 Charge =  0 Multiplicity = 1

 SCF Done:  E(RB3LYP) =  -528.851608752     A.U. after    1 cycles

  Exact polarizability: 123.047  12.511  83.634  12.670   0.417  68.722
 Approx polarizability: 180.781  29.473 128.992  35.739   4.458 106.770

                      1                      2                      3
                      A                      A                      A
 Frequencies --     29.6847                55.7365                69.3219
 Red. masses --      4.7348                 4.2908                 4.2900
 Frc consts  --      0.0025                 0.0079                 0.0121
 IR Inten    --      0.2626                 0.5583                 0.0699

                      4                      5                      6
                      A                      A                      A
 Frequencies --    106.5911               128.6497               156.9779
 Red. masses --      7.9437                 2.5717                 5.0675
 Frc consts  --      0.0532                 0.0251                 0.0736
 IR Inten    --      1.5180                 0.1610                 0.3594

                      7                      8                      9
                      A                      A                      A
 Frequencies --    215.9653               278.1858               372.3009
 Red. masses --      4.8770                 2.7045                 4.1593
 Frc consts  --      0.1340                 0.1233                 0.3397
 IR Inten    --      0.6964                 0.5268                 1.6415

                     10                     11                     12
                      A                      A                      A
 Frequencies --    418.6746               496.2386               527.2876
 Red. masses --      1.9522                 5.3159                 1.6750
 Frc consts  --      0.2016                 0.7713                 0.2744
 IR Inten    --      0.3144                10.2572                55.8221

                     13                     14                     15
                      A                      A                      A
 Frequencies --    579.8911               610.0831               640.7307
 Red. masses --     12.1980                 2.3293                 2.1303
 Frc consts  --      2.4167                 0.5108                 0.5153
 IR Inten    --      9.3697                44.4269                 4.0020

                     16                     17                     18
                      A                      A                      A
 Frequencies --    671.1487               732.1435               772.6808
 Red. masses --      5.6133                11.0038                 1.5298
 Frc consts  --      1.4897                 3.4752                 0.5381
 IR Inten    --     45.7739                42.8781                 2.1664

                     19                     20                     21
                      A                      A                      A
 Frequencies --    802.6706               873.5068               893.1479
 Red. masses --      1.2756                10.5304                 1.9102
 Frc consts  --      0.4842                 4.7340                 0.8978
 IR Inten    --      2.0998                15.1111                 8.8866

                     22                     23                     24
                      A                      A                      A
 Frequencies --    914.1699               943.5849               975.8281
 Red. masses --      1.7516                 2.2945                 1.6822
 Frc consts  --      0.8624                 1.2037                 0.9438
 IR Inten    --      7.5071                 3.5180                 9.7653

                     25                     26                     27
                      A                      A                      A
 Frequencies --    982.2136              1048.4942              1109.1938
 Red. masses --      1.8060                 2.1285                 2.2828
 Frc consts  --      1.0265                 1.3786                 1.6548
 IR Inten    --      0.4305                29.3055                21.3636

                     28                     29                     30
                      A                      A                      A
 Frequencies --   1124.8352              1189.9742              1216.1319
 Red. masses --      2.6454                 2.5198                 1.3345
 Frc consts  --      1.9720                 2.1023                 1.1629
 IR Inten    --      2.0580                 3.4913                 1.3777

                     31                     32                     33
                      A                      A                      A
 Frequencies --   1244.4196              1271.2496              1278.2370
 Red. masses --      1.4314                 1.3252                 1.2438
 Frc consts  --      1.3060                 1.2618                 1.1974
 IR Inten    --     19.6895                 0.0137                17.5952

                     34                     35                     36
                      A                      A                      A
 Frequencies --   1282.4175              1297.9514              1315.9910
 Red. masses --      1.4504                 1.4034                 1.7993
 Frc consts  --      1.4054                 1.3930                 1.8360
 IR Inten    --     30.9506                 6.1612                 4.6238

                     37                     38                     39
                      A                      A                      A
 Frequencies --   1326.8757              1358.3404              1387.0456
 Red. masses --      4.1841                 1.6640                 1.7008
 Frc consts  --      4.3402                 1.8089                 1.9279
 IR Inten    --    270.2918               278.9572               140.1939

                     40                     41                     42
                      A                      A                      A
 Frequencies --   1426.3377              1492.0570              1508.3783
 Red. masses --      1.4981                 1.5131                 1.0962
 Frc consts  --      1.7957                 1.9846                 1.4695
 IR Inten    --     46.7538                28.3332                 5.4727

                     43                     44                     45
                      A                      A                      A
 Frequencies --   1513.1910              1516.8618              1542.3737
 Red. masses --      1.1222                 1.0933                 1.1378
 Frc consts  --      1.5139                 1.4822                 1.5947
 IR Inten    --     18.3380                17.9514                 1.7243

                     46                     47                     48
                      A                      A                      A
 Frequencies --   1819.5913              2307.3704              3050.1896
 Red. masses --      9.5274                13.9864                 1.0643
 Frc consts  --     18.5853                43.8725                 5.8340
 IR Inten    --    454.7777               569.1989                35.9485

                     49                     50                     51
                      A                      A                      A
 Frequencies --   3057.5192              3058.9740              3074.9284
 Red. masses --      1.0645                 1.0715                 1.0771
 Frc consts  --      5.8630                 5.9076                 6.0005
 IR Inten    --      4.1411                27.7028                41.9659

                     52                     53                     54
                      A                      A                      A
 Frequencies --   3075.8513              3113.3103              3117.0170
 Red. masses --      1.0606                 1.1026                 1.1036
 Frc consts  --      5.9121                 6.2965                 6.3173
 IR Inten    --     40.3775                15.1018                29.7344

                     55                     56                     57
                      A                      A                      A
 Frequencies --   3128.1121              3132.6754              3626.2427
 Red. masses --      1.1002                 1.1069                 1.0764
 Frc consts  --      6.3426                 6.4000                 8.3391
 IR Inten    --      6.0197                75.9574                40.3934

 - Thermochemistry -
 -------------------
 Temperature   298.150 Kelvin.  Pressure   1.00000 Atm.
 Atom     1 has atomic number  6 and mass  12.00000

 Molecular mass:   154.08546 amu.
 Principal axes and moments of inertia in atomic units:
                           1         2         3
     Eigenvalues --   763.309973474.356533800.90935
           X            0.99995  -0.00839  -0.00510
           Y            0.00837   0.99996  -0.00282
           Z            0.00512   0.00278   0.99998
 This molecule is an asymmetric top.
 Rotational symmetry number  1.
 Warning -- assumption of classical behavior for rotation
           may cause significant error
 Rotational temperatures (Kelvin)      0.11347     0.02493     0.02279
 Rotational constants (GHZ):           2.36436     0.51945     0.47482
 Zero-point vibrational energy     450152.1 (Joules/Mol)
                                  107.58893 (Kcal/Mol)
 Warning -- explicit consideration of  14 degrees of freedom as
           vibrations may cause significant error
 Vibrational temperatures:     42.71    80.19    99.74   153.36   185.10
          (Kelvin)            225.86   310.73   400.25   535.66   602.38
                              713.98   758.65   834.33   877.77   921.87
                              965.63  1053.39  1111.72  1154.86  1256.78
                             1285.04  1315.29  1357.61  1404.00  1413.19
                             1508.55  1595.88  1618.39  1712.11  1749.74
                             1790.44  1829.04  1839.10  1845.11  1867.46
                             1893.42  1909.08  1954.35  1995.65  2052.18
                             2146.74  2170.22  2177.14  2182.43  2219.13
                             2617.99  3319.79  4388.54  4399.09  4401.18
                             4424.14  4425.46  4479.36  4484.69  4500.66
                             4507.22  5217.35

 Zero-point correction=                           0.171454 (Hartree/Particle)
 Thermal correction to Energy=                    0.182249
 Thermal correction to Enthalpy=                  0.183193
 Thermal correction to Gibbs Free Energy=         0.132989
 Sum of electronic and zero-point Energies=           -528.680155
 Sum of electronic and thermal Energies=              -528.669360
 Sum of electronic and thermal Enthalpies=            -528.668416
 Sum of electronic and thermal Free Energies=         -528.718620

                     E (Thermal)             CV                S
                      KCal/Mol        Cal/Mol-Kelvin    Cal/Mol-Kelvin
 Total                  114.363             38.452            105.664
 Electronic               0.000              0.000              0.000
 Translational            0.889              2.981             41.007
 Rotational               0.889              2.981             30.689
 Vibrational            112.586             32.490             33.968
 Vibration     1          0.593              1.984              5.850
 Vibration     2          0.596              1.975              4.603
 Vibration     3          0.598              1.969              4.173
 Vibration     4          0.605              1.944              3.330
 Vibration     5          0.611              1.925              2.966
 Vibration     6          0.621              1.895              2.586
 Vibration     7          0.645              1.817              1.993
 Vibration     8          0.679              1.714              1.545
 Vibration     9          0.744              1.529              1.070
 Vibration    10          0.782              1.430              0.896
 Vibration    11          0.852              1.258              0.668
 Vibration    12          0.882              1.190              0.593
 Vibration    13          0.937              1.075              0.486
 Vibration    14          0.969              1.010              0.433

 Optimization completed.
    -- Stationary point found.
 Normal termination of Gaussian 16 at Tue Dec  8 19:45:31 2020.

 ----------------------------------------------------------------------
 # B3LYP/6-311++G(d,p) empiricaldispersion=gd3bj scf=xqc pop=npa geom=c
 heck
 ----------------------------------------------------------------------

 ---------------------------------------
 CID_152597476_JID_1309_Energie_neutraal
 ---------------------------------------
 Structure from the checkpoint file:  "JID_1309.chk"
 Charge =  0 Multiplicity = 1

 SCF Done:  E(RB3LYP) =  -529.005098946     A.U. after   16 cycles
 Normal termination of Gaussian 16 at Tue Dec  8 19:47:09 2020.

 ----------------------------------------------------------------------
 # B3LYP/6-311++G(d,p) empiricaldispersion=gd3bj scf=xqc pop=npa geom=c
 heck
 ----------------------------------------------------------------------

 -------------------------------------
 CID_152597476_JID_1309_Energie_kation
 -------------------------------------
 Structure from the checkpoint file:  "JID_1309.chk"
 Charge =  1 Multiplicity = 2

 SCF Done:  E(UB3LYP) =  -528.661722453     A.U. after   32 cycles
 Normal termination of Gaussian 16 at Tue Dec  8 19:55:12 2020.
 Gaussian 16:  ES64L-G16RevA.03 25-Dec-2016

 ----------------------------------------------------------------------
 # B3LYP/6-311++G(d,p) empiricaldispersion=gd3bj scf=xqc pop=npa geom=c
 heck
 ----------------------------------------------------------------------

 ------------------------------------
 CID_152597476_JID_1309_Energie_anion
 ------------------------------------
 Structure from the checkpoint file:  "JID_1309.chk"
 Charge = -1 Multiplicity = 2

                         Standard orientation:
 ---------------------------------------------------------------------
 Center     Atomic      Atomic             Coordinates (Angstroms)
 Number     Number       Type             X           Y           Z
 ---------------------------------------------------------------------
      1          6           0        3.611278   -0.443460   -0.720220
      2          6           0        2.856465   -1.075281    0.479292
      3          6           0        1.587876   -0.296328    0.037485
      4          6           0        2.502903    0.639649   -0.799505
      5          6           0        0.708065    0.317962    1.117113
      6          7           0       -0.326025    1.201157    0.582664
      7          6           0       -1.520395    0.823199    0.055931
      8          8           0       -2.285637    1.553508   -0.546762
      9          7           0       -1.782598   -0.570048    0.328277
     10          7           0       -2.876699   -0.963961   -0.108513
     11          7           0       -3.847792   -1.426064   -0.467059
     12          1           0        3.597775   -1.099327   -1.596481
     13          1           0        4.638457   -0.106757   -0.552911
     14          1           0        2.790968   -2.166044    0.531288
     15          1           0        3.238324   -0.702977    1.437658
     16          1           0        0.966556   -0.913500   -0.621536
     17          1           0        2.778380    1.538068   -0.232622
     18          1           0        2.152164    0.945797   -1.789368
     19          1           0        0.220336   -0.461620    1.707669
     20          1           0        1.319125    0.915581    1.803986
     21          1           0       -0.062346    2.140676    0.318253
 ---------------------------------------------------------------------

 SCF Done:  E(UB3LYP) =  -528.997747667     A.U. after   33 cycles
 SCF Done:  E(UB3LYP) =  -528.997747683     a.u. after    2 cycles

 The electronic state is 2-A.
 Alpha  occ. eigenvalues --  -18.98251 -14.33555 -14.25002 -14.23599 -14.23154
 Alpha  occ. eigenvalues --  -10.19004 -10.09848 -10.06924 -10.06431 -10.06293
 Alpha  occ. eigenvalues --  -10.06260  -1.01634  -0.94262  -0.84850  -0.82336
 Alpha  occ. eigenvalues --   -0.74318  -0.62605  -0.57160  -0.55634  -0.52407
 Alpha  occ. eigenvalues --   -0.45014  -0.42993  -0.39699  -0.38954  -0.37945
 Alpha  occ. eigenvalues --   -0.37392  -0.36198  -0.33314  -0.32617  -0.31224
 Alpha  occ. eigenvalues --   -0.30243  -0.28531  -0.26743  -0.24868  -0.22339
 Alpha  occ. eigenvalues --   -0.22279  -0.20761  -0.20314  -0.15714  -0.15607
 Alpha  occ. eigenvalues --   -0.14601   0.04833
 Alpha virt. eigenvalues --    0.06370   0.07754   0.08506   0.08812   0.09629
 Alpha virt. eigenvalues --    0.10856   0.11166   0.11365   0.12126   0.12413
 Alpha virt. eigenvalues --    0.14144   0.15145   0.16501   0.16931   0.17118

  Beta  occ. eigenvalues --  -18.98250 -14.33146 -14.24586 -14.23644 -14.23151
  Beta  occ. eigenvalues --  -10.18928 -10.09821 -10.06919 -10.06407 -10.06270
  Beta  occ. eigenvalues --  -10.06236  -1.00964  -0.94166  -0.84594  -0.82277
  Beta  occ. eigenvalues --   -0.74291  -0.62544  -0.56885  -0.55557  -0.52332
  Beta  occ. eigenvalues --   -0.44895  -0.42655  -0.39603  -0.38688  -0.37641
  Beta  occ. eigenvalues --   -0.36383  -0.36030  -0.32937  -0.31736  -0.31160
  Beta  occ. eigenvalues --   -0.30158  -0.28487  -0.26693  -0.24774  -0.22290
  Beta  occ. eigenvalues --   -0.21718  -0.20622  -0.20272  -0.15572  -0.15454
  Beta  occ. eigenvalues --   -0.14532
  Beta virt. eigenvalues --    0.07380   0.08296   0.08896   0.09275   0.09971
  Beta virt. eigenvalues --    0.10403   0.11225   0.11574   0.11731   0.12432
  Beta virt. eigenvalues --    0.12721   0.14566   0.15192   0.16452   0.16853

 Mulliken charges and spin densities:
               1          2
     1  C   -0.393329   0.231358
     2  C    1.030626  -1.613632
     3  C   -2.118361   2.849729
     4  C    1.109370  -1.646250
     5  C    1.462526  -2.402216
     6  N   -0.345304   0.174754
     7  C    0.215836  -0.074964
     8  O   -0.381562   0.003850
     9  N   -1.747860   1.262899
    10  N    1.556777  -0.642173
    11  N    0.088637  -0.310385
    12  H    0.033682   0.083330
    13  H   -0.493602   0.649409
    14  H   -0.054673   0.183564
    15  H   -0.268728   0.405972
    16  H   -0.123509   0.301868
    17  H   -0.367054   0.507399
    18  H    0.088266   0.053706
    19  H    0.088247   0.123034
    20  H   -0.584113   0.767822
    21  H    0.204127   0.090922
 Sum of Mulliken charges =  -1.00000   1.00000

 Dipole moment (field-independent basis, Debye):
    X=             -1.1699    Y=             -0.7258    Z=             -0.7635  Tot=              1.5743
 Quadrupole moment (field-independent basis, Debye-Ang):
   XX=           -147.1710   YY=            -92.2396   ZZ=            -88.0883
   XY=             -6.1460   XZ=            -10.2782   YZ=             -0.5507

 Summary of Natural Population Analysis:

                                       Natural Population
                Natural  -----------------------------------------------
    Atom  No    Charge         Core      Valence    Rydberg      Total
 -----------------------------------------------------------------------
      C    1   -0.18884      0.99965     2.18069    0.00849     3.18884
      C    2   -0.18672      0.99963     2.17877    0.00831     3.18672
      C    3   -0.11478      0.99960     2.10496    0.01023     3.11478
      C    4   -0.18910      0.99963     2.18070    0.00877     3.18910
      C    5   -0.08860      0.99958     2.07685    0.01218     3.08860
      N    6   -0.32017      0.99966     2.81066    0.00986     3.82017
      C    7    0.39871      0.99970     1.57704    0.02455     2.60129
      O    8   -0.33343      0.99987     3.32803    0.00552     4.33343
      N    9   -0.24229      0.99968     2.73043    0.01218     3.74229
      N   10    0.16564      0.99972     2.31852    0.01613     3.33436
      N   11    0.02167      0.99981     2.46606    0.01246     3.47833
      H   12    0.09290      0.00000     0.40598    0.00112     0.40710
      H   13    0.09772      0.00000     0.40039    0.00189     0.40228
      H   14    0.09583      0.00000     0.40320    0.00098     0.40417
      H   15    0.09779      0.00000     0.40013    0.00208     0.40221
      H   16    0.10133      0.00000     0.39726    0.00141     0.39867
      H   17    0.09635      0.00000     0.40175    0.00190     0.40365
      H   18    0.09613      0.00000     0.40295    0.00092     0.40387
      H   19    0.10932      0.00000     0.38905    0.00163     0.39068
      H   20    0.09685      0.00000     0.40121    0.00194     0.40315
      H   21    0.19370      0.00000     0.30410    0.00219     0.30630
 =======================================================================
   * Total *    0.00000     10.99652    29.85874    0.14474    41.00000

 Normal termination of Gaussian 16 at Tue Dec  8 20:06:29 2020.
