 Gaussian 16, Revision A.03,

 -----------------------------------------------------------
 # opt freq B3LYP/6-31G(d) empiricaldispersion=gd3bj scf=xqc
 -----------------------------------------------------------

 -------------------------------
 CID_134121302_JID_9697_neutraal
 -------------------------------
 Symbolic Z-matrix:
 Charge =  0 Multiplicity = 1

 SCF Done:  E(RB3LYP) =  -1193.91072041     A.U. after   15 cycles
 SCF Done:  E(RB3LYP) =  -1193.91813822     A.U. after   13 cycles
 SCF Done:  E(RB3LYP) =  -1193.91921021     A.U. after   13 cycles
 SCF Done:  E(RB3LYP) =  -1193.91941266     A.U. after   12 cycles
 SCF Done:  E(RB3LYP) =  -1193.91959065     A.U. after   11 cycles
 SCF Done:  E(RB3LYP) =  -1193.91963107     A.U. after   11 cycles
 SCF Done:  E(RB3LYP) =  -1193.91964172     A.U. after   10 cycles
 SCF Done:  E(RB3LYP) =  -1193.91964577     A.U. after    9 cycles
 SCF Done:  E(RB3LYP) =  -1193.91964774     A.U. after    9 cycles
 SCF Done:  E(RB3LYP) =  -1193.91964792     A.U. after    7 cycles
 Optimization completed.
    -- Stationary point found.
 Normal termination of Gaussian 16 at Thu Dec 17 20:06:33 2020.

 --------------------------------------------------------------------
 #N Geom=AllCheck Guess=TCheck SCRF=Check GenChk RB3LYP/6-31G(d) Freq
 --------------------------------------------------------------------

 Structure from the checkpoint file:  "JID_9697.chk"
 -------------------------------
 CID_134121302_JID_9697_neutraal
 -------------------------------
 Charge =  0 Multiplicity = 1

 SCF Done:  E(RB3LYP) =  -1193.91964792     A.U. after    1 cycles

  Exact polarizability: 268.416   3.612 177.849   8.347 -10.196  90.823
 Approx polarizability: 367.559  21.269 340.058  18.220 -19.953 152.677

                      1                      2                      3
                      A                      A                      A
 Frequencies --     40.2662                51.6940                80.0995
 Red. masses --      7.3677                 4.3884                 4.9421
 Frc consts  --      0.0070                 0.0069                 0.0187
 IR Inten    --      0.4843                 0.7447                 1.0377

                      4                      5                      6
                      A                      A                      A
 Frequencies --    105.1710               116.8981               159.9634
 Red. masses --      4.3203                 5.9953                 6.6005
 Frc consts  --      0.0282                 0.0483                 0.0995
 IR Inten    --      4.9759                 0.4702                 3.4850

                      7                      8                      9
                      A                      A                      A
 Frequencies --    183.7430               222.6994               259.0490
 Red. masses --      2.9826                 5.2035                 9.2792
 Frc consts  --      0.0593                 0.1521                 0.3669
 IR Inten    --      0.5118                 0.9399                 5.5753

                     10                     11                     12
                      A                      A                      A
 Frequencies --    273.6883               310.3739               321.8729
 Red. masses --      3.8736                 7.0303                 9.1436
 Frc consts  --      0.1710                 0.3990                 0.5581
 IR Inten    --      0.3043                 0.8933                 8.9861

                     13                     14                     15
                      A                      A                      A
 Frequencies --    375.5131               402.2558               422.6609
 Red. masses --      7.3556                 7.6270                 3.0854
 Frc consts  --      0.6111                 0.7271                 0.3247
 IR Inten    --      2.7340                 1.0796                 1.9168

                     16                     17                     18
                      A                      A                      A
 Frequencies --    449.5570               471.0026               539.9250
 Red. masses --      9.0392                 5.3312                 5.1069
 Frc consts  --      1.0763                 0.6968                 0.8772
 IR Inten    --      7.9210                 2.1383                 0.8881

                     19                     20                     21
                      A                      A                      A
 Frequencies --    542.9944               605.9560               625.2659
 Red. masses --      3.9635                 8.6526                 5.2268
 Frc consts  --      0.6885                 1.8719                 1.2040
 IR Inten    --     14.9330                 0.5799                 5.1176

                     22                     23                     24
                      A                      A                      A
 Frequencies --    644.0299               653.5348               694.0860
 Red. masses --      5.1426                 9.6735                 4.9452
 Frc consts  --      1.2567                 2.4343                 1.4037
 IR Inten    --      4.1075                 1.2317                 3.4707

                     25                     26                     27
                      A                      A                      A
 Frequencies --    695.5821               703.7104               707.5225
 Red. masses --      6.1077                 2.2864                 7.1902
 Frc consts  --      1.7411                 0.6671                 2.1207
 IR Inten    --     10.6336                26.2624                 2.7721

                     28                     29                     30
                      A                      A                      A
 Frequencies --    729.1391               765.4163               774.2334
 Red. masses --      3.7537                 9.9238                 2.0319
 Frc consts  --      1.1758                 3.4255                 0.7176
 IR Inten    --      4.1326                 7.0374                34.7310

                     31                     32                     33
                      A                      A                      A
 Frequencies --    783.7334               839.4779               858.3403
 Red. masses --      5.6795                 1.2573                 1.4232
 Frc consts  --      2.0554                 0.5220                 0.6178
 IR Inten    --      6.0253                 1.1286                 8.2345

                     34                     35                     36
                      A                      A                      A
 Frequencies --    874.6115               893.0175               918.7155
 Red. masses --      4.1026                 2.2326                 1.4138
 Frc consts  --      1.8490                 1.0490                 0.7031
 IR Inten    --     48.2632                 4.7384                 4.7184

                     37                     38                     39
                      A                      A                      A
 Frequencies --    962.8374               985.3105               993.2802
 Red. masses --      1.3428                 3.7536                 1.2647
 Frc consts  --      0.7334                 2.1471                 0.7352
 IR Inten    --      1.0555                 1.0698                 0.2096

                     40                     41                     42
                      A                      A                      A
 Frequencies --   1002.7740              1024.9771              1042.8264
 Red. masses --      3.4060                 6.0165                 1.6075
 Frc consts  --      2.0179                 3.7241                 1.0300
 IR Inten    --      8.6087                 0.1572                 4.2978

                     43                     44                     45
                      A                      A                      A
 Frequencies --   1053.0698              1067.6760              1117.1348
 Red. masses --      3.3045                 2.2042                 1.5760
 Frc consts  --      2.1591                 1.4804                 1.1589
 IR Inten    --      6.5638                 1.3102                 5.0802

                     46                     47                     48
                      A                      A                      A
 Frequencies --   1138.2406              1188.2291              1195.9132
 Red. masses --      4.0745                 1.7840                 1.0946
 Frc consts  --      3.1102                 1.4840                 0.9224
 IR Inten    --     27.5319               106.3454                 0.2187

                     49                     50                     51
                      A                      A                      A
 Frequencies --   1201.9576              1216.2742              1242.0128
 Red. masses --      1.7734                 1.1441                 2.6568
 Frc consts  --      1.5095                 0.9972                 2.4147
 IR Inten    --     22.1791                 1.2943                28.7328

                     52                     53                     54
                      A                      A                      A
 Frequencies --   1273.1252              1280.0140              1297.3174
 Red. masses --      1.7736                 2.1667                 4.8232
 Frc consts  --      1.6937                 2.0916                 4.7828
 IR Inten    --      1.7104                45.2617                56.3821

                     55                     56                     57
                      A                      A                      A
 Frequencies --   1326.5309              1339.8330              1366.6182
 Red. masses --      1.5115                 2.6389                 6.6254
 Frc consts  --      1.5671                 2.7911                 7.2905
 IR Inten    --     38.5632                18.0273                18.5470

                     58                     59                     60
                      A                      A                      A
 Frequencies --   1376.1873              1403.1309              1424.2959
 Red. masses --      1.7402                 1.7616                 6.1932
 Frc consts  --      1.9418                 2.0434                 7.4023
 IR Inten    --     31.2971                65.0109               201.4936

                     61                     62                     63
                      A                      A                      A
 Frequencies --   1458.2733              1507.4495              1515.0434
 Red. masses --      6.2848                 2.4971                 1.1102
 Frc consts  --      7.8744                 3.3433                 1.5014
 IR Inten    --     30.5853                40.7080                 2.0089

                     64                     65                     66
                      A                      A                      A
 Frequencies --   1531.8728              1535.5688              1545.2735
 Red. masses --      6.0505                 1.1902                 3.4726
 Frc consts  --      8.3654                 1.6535                 4.8855
 IR Inten    --    224.2036                36.7697                 8.1954

                     67                     68                     69
                      A                      A                      A
 Frequencies --   1555.2922              1618.1634              1652.8479
 Red. masses --      3.0815                 9.8324                 6.0836
 Frc consts  --      4.3918                15.1690                 9.7921
 IR Inten    --    116.9309               300.5771                 2.9652

                     70                     71                     72
                      A                      A                      A
 Frequencies --   1664.4131              1775.9776              3069.3360
 Red. masses --      5.6016                12.6916                 1.0697
 Frc consts  --      9.1429                23.5852                 5.9377
 IR Inten    --     23.1578               436.6968                20.3302

                     73                     74                     75
                      A                      A                      A
 Frequencies --   3096.9996              3153.0079              3165.6108
 Red. masses --      1.0619                 1.0962                 1.1063
 Frc consts  --      6.0007                 6.4206                 6.5317
 IR Inten    --     17.8785                 3.7909                 5.6715

                     76                     77                     78
                      A                      A                      A
 Frequencies --   3192.5622              3202.2119              3211.5030
 Red. masses --      1.0856                 1.0893                 1.0931
 Frc consts  --      6.5190                 6.5808                 6.6424
 IR Inten    --      0.6267                 9.7732                24.1139

                     79                     80                     81
                      A                      A                      A
 Frequencies --   3219.2649              3254.0790              3273.9607
 Red. masses --      1.0973                 1.0930                 1.0966
 Frc consts  --      6.7003                 6.8192                 6.9257
 IR Inten    --     15.1306                 1.1760                 0.7905

 - Thermochemistry -
 -------------------
 Temperature   298.150 Kelvin.  Pressure   1.00000 Atm.
 Atom     1 has atomic number  6 and mass  12.00000

 Molecular mass:   270.05753 amu.
 Principal axes and moments of inertia in atomic units:
                           1         2         3
     Eigenvalues --  2008.063588792.50122**********
           X            0.99994  -0.01069   0.00154
           Y            0.01070   0.99988  -0.01126
           Z           -0.00142   0.01127   0.99994
 This molecule is an asymmetric top.
 Rotational symmetry number  1.
 Warning -- assumption of classical behavior for rotation
           may cause significant error
 Rotational temperatures (Kelvin)      0.04313     0.00985     0.00825
 Rotational constants (GHZ):           0.89875     0.20526     0.17194
 Zero-point vibrational energy     573095.5 (Joules/Mol)
                                  136.97310 (Kcal/Mol)
 Warning -- explicit consideration of  20 degrees of freedom as
           vibrations may cause significant error
 Vibrational temperatures:     57.93    74.38   115.25   151.32   168.19
          (Kelvin)            230.15   264.37   320.41   372.71   393.78
                              446.56   463.10   540.28   578.76   608.11
                              646.81   677.67   776.83   781.25   871.84
                              899.62   926.62   940.29   998.64  1000.79
                             1012.48  1017.97  1049.07  1101.26  1113.95
                             1127.62  1207.82  1234.96  1258.37  1284.85
                             1321.83  1385.31  1417.64  1429.11  1442.77
                             1474.71  1500.39  1515.13  1536.15  1607.31
                             1637.67  1709.60  1720.65  1729.35  1749.95
                             1786.98  1831.74  1841.65  1866.55  1908.58
                             1927.72  1966.26  1980.03  2018.79  2049.24
                             2098.13  2168.88  2179.81  2204.02  2209.34
                             2223.30  2237.72  2328.18  2378.08  2394.72
                             2555.24  4416.09  4455.89  4536.48  4554.61
                             4593.38  4607.27  4620.64  4631.80  4681.89
                             4710.50

 Zero-point correction=                           0.218281 (Hartree/Particle)
 Thermal correction to Energy=                    0.232510
 Thermal correction to Enthalpy=                  0.233455
 Thermal correction to Gibbs Free Energy=         0.176078
 Sum of electronic and zero-point Energies=          -1193.701367
 Sum of electronic and thermal Energies=             -1193.687138
 Sum of electronic and thermal Enthalpies=           -1193.686193
 Sum of electronic and thermal Free Energies=        -1193.743570

                     E (Thermal)             CV                S
                      KCal/Mol        Cal/Mol-Kelvin    Cal/Mol-Kelvin
 Total                  145.902             56.397            120.759
 Electronic               0.000              0.000              0.000
 Translational            0.889              2.981             42.679
 Rotational               0.889              2.981             33.582
 Vibrational            144.125             50.435             44.497
 Vibration     1          0.594              1.981              5.246
 Vibration     2          0.596              1.977              4.752
 Vibration     3          0.600              1.963              3.888
 Vibration     4          0.605              1.945              3.356
 Vibration     5          0.608              1.935              3.151
 Vibration     6          0.622              1.891              2.550
 Vibration     7          0.631              1.862              2.290
 Vibration     8          0.648              1.807              1.937
 Vibration     9          0.668              1.747              1.668
 Vibration    10          0.676              1.722              1.573
 Vibration    11          0.699              1.654              1.360
 Vibration    12          0.707              1.632              1.301
 Vibration    13          0.746              1.522              1.057
 Vibration    14          0.768              1.465              0.954
 Vibration    15          0.785              1.421              0.883
 Vibration    16          0.808              1.362              0.797
 Vibration    17          0.828              1.314              0.735
 Vibration    18          0.895              1.162              0.565
 Vibration    19          0.898              1.155              0.559
 Vibration    20          0.965              1.019              0.440

 Optimization completed.
    -- Stationary point found.
 Normal termination of Gaussian 16 at Thu Dec 17 20:19:52 2020.

 ----------------------------------------------------------------------
 # B3LYP/6-311++G(d,p) empiricaldispersion=gd3bj scf=xqc pop=npa geom=c
 heck
 ----------------------------------------------------------------------

 ---------------------------------------
 CID_134121302_JID_9697_Energie_neutraal
 ---------------------------------------
 Structure from the checkpoint file:  "JID_9697.chk"
 Charge =  0 Multiplicity = 1

 SCF Done:  E(RB3LYP) =  -1194.14907167     A.U. after   16 cycles
 Normal termination of Gaussian 16 at Thu Dec 17 20:25:41 2020.

 ----------------------------------------------------------------------
 # B3LYP/6-311++G(d,p) empiricaldispersion=gd3bj scf=xqc pop=npa geom=c
 heck
 ----------------------------------------------------------------------

 -------------------------------------
 CID_134121302_JID_9697_Energie_kation
 -------------------------------------
 Structure from the checkpoint file:  "JID_9697.chk"
 Charge =  1 Multiplicity = 2

 SCF Done:  E(UB3LYP) =  -1193.86363687     A.U. after   26 cycles
 Normal termination of Gaussian 16 at Thu Dec 17 20:39:29 2020.
 Gaussian 16:  ES64L-G16RevA.03 25-Dec-2016

 ----------------------------------------------------------------------
 # B3LYP/6-311++G(d,p) empiricaldispersion=gd3bj scf=xqc pop=npa geom=c
 heck
 ----------------------------------------------------------------------

 ------------------------------------
 CID_134121302_JID_9697_Energie_anion
 ------------------------------------
 Structure from the checkpoint file:  "JID_9697.chk"
 Charge = -1 Multiplicity = 2

                         Standard orientation:
 ---------------------------------------------------------------------
 Center     Atomic      Atomic             Coordinates (Angstroms)
 Number     Number       Type             X           Y           Z
 ---------------------------------------------------------------------
      1          6           0        2.756362   -1.866986   -0.382342
      2          6           0        4.153402   -1.554760    0.156137
      3         16           0        4.384110    0.256166   -0.090501
      4          6           0        2.629551    0.510334    0.000628
      5          7           0        2.101352    1.683730    0.138432
      6          6           0        0.733964    1.671219    0.157170
      7          6           0       -0.048412    0.511964    0.067029
      8          6           0        0.524615   -0.789558   -0.118532
      9          8           0       -0.015931   -1.881313   -0.269990
     10          7           0        1.940975   -0.682763   -0.107110
     11          7           0       -1.366614    0.952961    0.103576
     12          6           0       -1.288598    2.320384    0.228241
     13          7           0       -0.057747    2.786523    0.262690
     14          6           0       -2.577109    0.203586    0.047603
     15          6           0       -3.642010    0.700369   -0.709136
     16          6           0       -4.852269    0.009260   -0.731245
     17          6           0       -4.993058   -1.181617   -0.018779
     18          6           0       -3.917305   -1.678227    0.719805
     19          6           0       -2.709060   -0.987320    0.764952
     20          1           0        2.774056   -2.047394   -1.463574
     21          1           0        2.299933   -2.731568    0.101477
     22          1           0        4.232166   -1.782422    1.222487
     23          1           0        4.928904   -2.097663   -0.385863
     24          1           0       -2.185676    2.917611    0.316269
     25          1           0       -3.513572    1.606775   -1.291979
     26          1           0       -5.678408    0.396687   -1.319910
     27          1           0       -5.933206   -1.724280   -0.044704
     28          1           0       -4.017832   -2.608154    1.271200
     29          1           0       -1.870870   -1.372784    1.330230
 ---------------------------------------------------------------------

 SCF Done:  E(UB3LYP) =  -1194.15380641     A.U. after   33 cycles
 SCF Done:  E(UB3LYP) =  -1194.15380641     a.u. after    1 cycles

 The electronic state is 2-A.
 Alpha  occ. eigenvalues --  -88.76144 -18.96334 -14.25168 -14.25127 -14.19191
 Alpha  occ. eigenvalues --  -14.17432 -10.16036 -10.15170 -10.12096 -10.11998
 Alpha  occ. eigenvalues --  -10.09901 -10.09818 -10.09542 -10.07646 -10.06940
 Alpha  occ. eigenvalues --  -10.06570 -10.06468 -10.05996 -10.05891  -7.84792
 Alpha  occ. eigenvalues --   -5.81160  -5.80825  -5.80175  -0.93001  -0.90040
 Alpha  occ. eigenvalues --   -0.87572  -0.80727  -0.77432  -0.73488  -0.71716
 Alpha  occ. eigenvalues --   -0.65185  -0.64230  -0.64050  -0.61997  -0.55200
 Alpha  occ. eigenvalues --   -0.52763  -0.51566  -0.51038  -0.49093  -0.46092
 Alpha  occ. eigenvalues --   -0.44901  -0.41138  -0.40377  -0.39147  -0.37049
 Alpha  occ. eigenvalues --   -0.36079  -0.35161  -0.34024  -0.33270  -0.32475
 Alpha  occ. eigenvalues --   -0.32063  -0.31388  -0.30559  -0.30029  -0.29245
 Alpha  occ. eigenvalues --   -0.28385  -0.26361  -0.26164  -0.25570  -0.24776
 Alpha  occ. eigenvalues --   -0.24171  -0.19646  -0.18224  -0.16361  -0.15510
 Alpha  occ. eigenvalues --   -0.15294  -0.14940  -0.14006  -0.13155  -0.09814
 Alpha  occ. eigenvalues --    0.04106
 Alpha virt. eigenvalues --    0.05837   0.07374   0.08664   0.08883   0.09115
 Alpha virt. eigenvalues --    0.09292   0.09697   0.10026   0.10161   0.10580
 Alpha virt. eigenvalues --    0.11006   0.11207   0.11962   0.12859   0.13353

  Beta  occ. eigenvalues --  -88.76140 -18.96221 -14.25090 -14.24982 -14.19250
  Beta  occ. eigenvalues --  -14.17519 -10.15947 -10.15039 -10.12093 -10.11971
  Beta  occ. eigenvalues --  -10.09663 -10.09599 -10.09334 -10.07592 -10.06965
  Beta  occ. eigenvalues --  -10.06575 -10.06408 -10.05955 -10.05722  -7.84788
  Beta  occ. eigenvalues --   -5.81157  -5.80824  -5.80163  -0.92759  -0.89808
  Beta  occ. eigenvalues --   -0.87383  -0.80554  -0.77277  -0.73350  -0.71605
  Beta  occ. eigenvalues --   -0.64928  -0.64087  -0.63915  -0.61737  -0.54925
  Beta  occ. eigenvalues --   -0.52411  -0.51457  -0.50899  -0.48932  -0.45855
  Beta  occ. eigenvalues --   -0.44772  -0.40989  -0.40221  -0.38986  -0.36867
  Beta  occ. eigenvalues --   -0.35841  -0.34909  -0.33747  -0.33119  -0.32344
  Beta  occ. eigenvalues --   -0.31944  -0.31193  -0.30375  -0.29881  -0.29040
  Beta  occ. eigenvalues --   -0.28110  -0.25906  -0.25732  -0.25289  -0.24683
  Beta  occ. eigenvalues --   -0.24062  -0.18996  -0.18234  -0.16057  -0.15170
  Beta  occ. eigenvalues --   -0.14866  -0.14689  -0.13808  -0.12555  -0.08884
  Beta virt. eigenvalues --    0.06350   0.07311   0.08295   0.08825   0.08971
  Beta virt. eigenvalues --    0.09173   0.09401   0.10023   0.10171   0.10659
  Beta virt. eigenvalues --    0.11178   0.11264   0.11446   0.12029   0.12765

 Mulliken charges and spin densities:
               1          2
     1  C   -0.327730   0.019015
     2  C    0.062085  -0.662049
     3  S   -0.227879  -0.076992
     4  C   -0.193912   0.114426
     5  N   -0.097165  -0.025950
     6  C   -0.334905   0.152244
     7  C    0.947661   0.112782
     8  C   -0.849344   0.083650
     9  O   -0.350913   0.044775
    10  N    0.154383   0.068658
    11  N    0.235673   0.016221
    12  C    0.193942   0.248931
    13  N   -0.114801  -0.055541
    14  C   -0.248192  -0.086461
    15  C   -0.085579   0.062434
    16  C   -0.315390   0.010186
    17  C   -0.456828   0.133563
    18  C   -0.270619   0.013362
    19  C    0.332977   0.116812
    20  H    0.066609   0.148208
    21  H    0.118483   0.051985
    22  H    0.159849   0.058582
    23  H   -0.270562   0.446927
    24  H    0.157580  -0.012797
    25  H    0.129265   0.023615
    26  H    0.132384   0.006739
    27  H    0.111422  -0.010407
    28  H    0.146994  -0.000098
    29  H    0.194509  -0.002820
 Sum of Mulliken charges =  -1.00000   1.00000

 Dipole moment (field-independent basis, Debye):
    X=             -1.2378    Y=             -2.2821    Z=              0.7551  Tot=              2.7038
 Quadrupole moment (field-independent basis, Debye-Ang):
   XX=           -168.2540   YY=           -151.7471   ZZ=           -127.6382
   XY=             -7.4605   XZ=              3.8992   YZ=             -7.4605

 Summary of Natural Population Analysis:

                                       Natural Population
                Natural  -----------------------------------------------
    Atom  No    Charge         Core      Valence    Rydberg      Total
 -----------------------------------------------------------------------
      C    1   -0.08923      0.99963     2.07641    0.01319     3.08923
      C    2   -0.24948      0.99960     2.23938    0.01049     3.24948
      S    3    0.12011      4.99955     2.85929    0.02105     7.87989
      C    4    0.17128      0.99957     1.80748    0.02168     2.82872
      N    5   -0.27104      0.99961     2.76001    0.01142     3.77104
      C    6    0.19961      0.99946     1.78467    0.01627     2.80039
      C    7    0.00235      0.99941     1.98775    0.01049     2.99765
      C    8    0.33378      0.99959     1.64583    0.02080     2.66622
      O    9   -0.32175      0.99988     3.31648    0.00539     4.32175
      N   10   -0.23158      0.99959     2.72258    0.00940     3.73158
      N   11   -0.18984      0.99960     2.68011    0.01013     3.68984
      C   12    0.17771      0.99966     1.80344    0.01919     2.82229
      N   13   -0.27179      0.99970     2.76243    0.00966     3.77179
      C   14    0.10138      0.99947     1.88825    0.01090     2.89862
      C   15   -0.09955      0.99953     2.09233    0.00769     3.09955
      C   16   -0.11087      0.99958     2.10215    0.00914     3.11087
      C   17   -0.08421      0.99957     2.07534    0.00930     3.08421
      C   18   -0.10345      0.99958     2.09495    0.00892     3.10345
      C   19   -0.08585      0.99953     2.07845    0.00788     3.08585
      H   20    0.09988      0.00000     0.39876    0.00136     0.40012
      H   21    0.11341      0.00000     0.38531    0.00128     0.38659
      H   22    0.09978      0.00000     0.39891    0.00131     0.40022
      H   23    0.10909      0.00000     0.38877    0.00214     0.39091
      H   24    0.08650      0.00000     0.41257    0.00093     0.41350
      H   25    0.10124      0.00000     0.39774    0.00102     0.39876
      H   26    0.09428      0.00000     0.40475    0.00098     0.40572
      H   27    0.09167      0.00000     0.40735    0.00098     0.40833
      H   28    0.09515      0.00000     0.40389    0.00096     0.40485
      H   29    0.11143      0.00000     0.38729    0.00127     0.38857
 =======================================================================
   * Total *    0.00000     22.99213    46.76266    0.24521    70.00000

 Normal termination of Gaussian 16 at Thu Dec 17 20:56:51 2020.
