 Gaussian 16, Revision A.03,

 -----------------------------------------------------------
 # opt freq B3LYP/6-31G(d) empiricaldispersion=gd3bj scf=xqc
 -----------------------------------------------------------

 -------------------------------
 CID_116786713_JID_6926_neutraal
 -------------------------------
 Symbolic Z-matrix:
 Charge =  0 Multiplicity = 1

 SCF Done:  E(RB3LYP) =  -724.268485898     A.U. after   15 cycles
 SCF Done:  E(RB3LYP) =  -724.274487065     A.U. after   13 cycles
 SCF Done:  E(RB3LYP) =  -724.274981272     A.U. after   12 cycles
 SCF Done:  E(RB3LYP) =  -724.275812063     A.U. after   13 cycles
 SCF Done:  E(RB3LYP) =  -724.275976873     A.U. after   12 cycles
 SCF Done:  E(RB3LYP) =  -724.276585115     A.U. after   13 cycles
 SCF Done:  E(RB3LYP) =  -724.277025618     A.U. after   13 cycles
 SCF Done:  E(RB3LYP) =  -724.277266830     A.U. after   15 cycles
 SCF Done:  E(RB3LYP) =  -724.277762312     A.U. after   13 cycles
 SCF Done:  E(RB3LYP) =  -724.278169351     A.U. after   13 cycles
 SCF Done:  E(RB3LYP) =  -724.278828764     A.U. after    8 cycles
 SCF Done:  E(RB3LYP) =  -724.278826715     A.U. after   10 cycles
 SCF Done:  E(RB3LYP) =  -724.278829437     A.U. after   10 cycles
 SCF Done:  E(RB3LYP) =  -724.278829502     A.U. after    7 cycles
 SCF Done:  E(RB3LYP) =  -724.278829503     A.U. after    6 cycles
 Optimization completed.
    -- Stationary point found.
 Normal termination of Gaussian 16 at Fri Dec 11 01:28:28 2020.

 --------------------------------------------------------------------
 #N Geom=AllCheck Guess=TCheck SCRF=Check GenChk RB3LYP/6-31G(d) Freq
 --------------------------------------------------------------------

 Structure from the checkpoint file:  "JID_6926.chk"
 -------------------------------
 CID_116786713_JID_6926_neutraal
 -------------------------------
 Charge =  0 Multiplicity = 1

 SCF Done:  E(RB3LYP) =  -724.278829503     A.U. after    2 cycles

  Exact polarizability: 169.934 -28.730 124.959  -2.341   1.120 128.022
 Approx polarizability: 232.510 -60.044 194.331  -3.904   4.837 223.669

                      1                      2                      3
                      A                      A                      A
 Frequencies --     18.0510                40.7551                60.1609
 Red. masses --      4.7055                 4.1825                 3.1961
 Frc consts  --      0.0009                 0.0041                 0.0068
 IR Inten    --      0.2001                 3.0564                 2.5412

                      4                      5                      6
                      A                      A                      A
 Frequencies --     85.6117               113.5519               120.8719
 Red. masses --      5.3761                 4.1658                 5.8039
 Frc consts  --      0.0232                 0.0316                 0.0500
 IR Inten    --      0.7967                 0.7986                 6.6633

                      7                      8                      9
                      A                      A                      A
 Frequencies --    213.3327               223.4301               231.7496
 Red. masses --      4.1398                 3.5449                 1.2272
 Frc consts  --      0.1110                 0.1043                 0.0388
 IR Inten    --      0.4312                 5.1944                 1.1306

                     10                     11                     12
                      A                      A                      A
 Frequencies --    254.3395               268.7557               279.5880
 Red. masses --      1.4121                 1.3837                 1.8171
 Frc consts  --      0.0538                 0.0589                 0.0837
 IR Inten    --      3.6787                 6.9794                 3.8648

                     13                     14                     15
                      A                      A                      A
 Frequencies --    308.4401               314.4568               325.6090
 Red. masses --      1.6649                 1.0987                 3.9045
 Frc consts  --      0.0933                 0.0640                 0.2439
 IR Inten    --      3.4465                22.7115                 8.4576

                     16                     17                     18
                      A                      A                      A
 Frequencies --    353.5323               380.1390               389.0211
 Red. masses --      2.3243                 2.5636                 2.4078
 Frc consts  --      0.1712                 0.2183                 0.2147
 IR Inten    --      2.6638                 3.6664                 0.7515

                     19                     20                     21
                      A                      A                      A
 Frequencies --    396.5194               409.7676               448.5710
 Red. masses --      4.1524                 6.6130                 2.2810
 Frc consts  --      0.3847                 0.6542                 0.2704
 IR Inten    --      1.0382                 7.3319                 2.5348

                     22                     23                     24
                      A                      A                      A
 Frequencies --    472.4963               517.0700               546.6864
 Red. masses --      2.9923                 3.0635                 3.2346
 Frc consts  --      0.3936                 0.4826                 0.5696
 IR Inten    --      2.7441                 7.6084                15.6131

                     25                     26                     27
                      A                      A                      A
 Frequencies --    565.2338               640.1732               652.1615
 Red. masses --      2.7302                 4.1419                 2.5171
 Frc consts  --      0.5139                 1.0001                 0.6308
 IR Inten    --     18.6711                28.0685                65.1058

                     28                     29                     30
                      A                      A                      A
 Frequencies --    685.5958               710.4161               756.2212
 Red. masses --      3.3392                 3.5553                 4.1259
 Frc consts  --      0.9248                 1.0572                 1.3901
 IR Inten    --     13.1303                 6.7477                13.2002

                     31                     32                     33
                      A                      A                      A
 Frequencies --    777.9554               824.2315               840.1313
 Red. masses --      2.6459                 1.6825                 3.4993
 Frc consts  --      0.9435                 0.6735                 1.4552
 IR Inten    --     73.0607                12.2503                 8.3802

                     34                     35                     36
                      A                      A                      A
 Frequencies --    873.2418               918.3546               936.1592
 Red. masses --      2.8718                 2.3956                 2.0358
 Frc consts  --      1.2902                 1.1904                 1.0512
 IR Inten    --      9.6225                97.9459                17.0789

                     37                     38                     39
                      A                      A                      A
 Frequencies --    945.5003               946.0847               951.8349
 Red. masses --      1.6436                 1.9772                 1.7070
 Frc consts  --      0.8657                 1.0427                 0.9112
 IR Inten    --     16.5991                23.5090                 1.0738

                     40                     41                     42
                      A                      A                      A
 Frequencies --    956.8590               974.5714              1002.2176
 Red. masses --      1.4954                 1.2198                 1.3054
 Frc consts  --      0.8067                 0.6826                 0.7726
 IR Inten    --     55.8870                 2.9336                 1.0938

                     43                     44                     45
                      A                      A                      A
 Frequencies --   1019.4445              1039.9605              1054.3358
 Red. masses --      2.3668                 6.8519                 1.3992
 Frc consts  --      1.4492                 4.3661                 0.9164
 IR Inten    --     65.7311                 1.4080                 6.7467

                     46                     47                     48
                      A                      A                      A
 Frequencies --   1073.4089              1076.7122              1117.6863
 Red. masses --      1.5779                 2.3249                 1.7594
 Frc consts  --      1.0711                 1.5880                 1.2949
 IR Inten    --     63.4353                 1.9828                31.0863

                     49                     50                     51
                      A                      A                      A
 Frequencies --   1142.9578              1186.5156              1206.1219
 Red. masses --      1.7020                 1.3510                 2.8598
 Frc consts  --      1.3100                 1.1206                 2.4512
 IR Inten    --     11.0711                32.9663                10.0492

                     52                     53                     54
                      A                      A                      A
 Frequencies --   1214.8565              1225.4315              1252.1382
 Red. masses --      2.2117                 1.4905                 1.8048
 Frc consts  --      1.9232                 1.3187                 1.6671
 IR Inten    --      2.9626                 7.1429                23.2790

                     55                     56                     57
                      A                      A                      A
 Frequencies --   1273.4452              1295.0433              1322.7428
 Red. masses --      2.4052                 2.6308                 1.9906
 Frc consts  --      2.2980                 2.5996                 2.0520
 IR Inten    --      6.5762                54.5258                27.4306

                     58                     59                     60
                      A                      A                      A
 Frequencies --   1329.2873              1358.1819              1400.4100
 Red. masses --      1.8989                 1.5611                 2.1714
 Frc consts  --      1.9770                 1.6967                 2.5090
 IR Inten    --     84.1144               135.9379                 1.5691

                     61                     62                     63
                      A                      A                      A
 Frequencies --   1415.4213              1421.1166              1429.1293
 Red. masses --      1.5314                 1.2389                 1.2355
 Frc consts  --      1.8076                 1.4742                 1.4868
 IR Inten    --     72.2640                 7.5866                 7.2354

                     64                     65                     66
                      A                      A                      A
 Frequencies --   1443.6663              1462.7063              1485.8167
 Red. masses --      1.3075                 1.2436                 2.3031
 Frc consts  --      1.6056                 1.5676                 2.9957
 IR Inten    --      2.9832                 7.2217                42.1249

                     67                     68                     69
                      A                      A                      A
 Frequencies --   1506.1719              1509.3172              1513.0062
 Red. masses --      1.2629                 1.6589                 1.1152
 Frc consts  --      1.6880                 2.2266                 1.5042
 IR Inten    --     36.2818               139.9531                14.8860

                     70                     71                     72
                      A                      A                      A
 Frequencies --   1518.3641              1525.5290              1539.8845
 Red. masses --      1.0783                 1.0519                 1.0624
 Frc consts  --      1.4646                 1.4423                 1.4843
 IR Inten    --      7.6307                 1.8870                 2.6714

                     73                     74                     75
                      A                      A                      A
 Frequencies --   1543.9324              1553.3619              1610.9137
 Red. masses --      1.0532                 1.0605                 4.9659
 Frc consts  --      1.4791                 1.5077                 7.5927
 IR Inten    --      2.9520                 7.7371                 0.8695

                     76                     77                     78
                      A                      A                      A
 Frequencies --   1637.3271              1719.9424              1769.5727
 Red. masses --      5.5530                 1.0917                 7.8196
 Frc consts  --      8.7709                 1.9027                14.4269
 IR Inten    --     92.7833                40.9776               330.0322

                     79                     80                     81
                      A                      A                      A
 Frequencies --   3031.4111              3038.2185              3044.2677
 Red. masses --      1.0817                 1.0394                 1.0416
 Frc consts  --      5.8568                 5.6529                 5.6876
 IR Inten    --     15.9388                17.2232                55.7406

                     82                     83                     84
                      A                      A                      A
 Frequencies --   3060.1775              3065.8823              3099.0763
 Red. masses --      1.0394                 1.0714                 1.1001
 Frc consts  --      5.7350                 5.9333                 6.2253
 IR Inten    --     16.3377                11.1086                10.2826

                     85                     86                     87
                      A                      A                      A
 Frequencies --   3106.3608              3118.7479              3123.3945
 Red. masses --      1.0982                 1.0989                 1.0993
 Frc consts  --      6.2435                 6.2978                 6.3186
 IR Inten    --     50.6752                 6.6450                59.1339

                     88                     89                     90
                      A                      A                      A
 Frequencies --   3143.4527              3152.4009              3166.4962
 Red. masses --      1.1023                 1.0987                 1.0901
 Frc consts  --      6.4176                 6.4327                 6.4399
 IR Inten    --     21.2015                13.3043                22.1017

                     91                     92                     93
                      A                      A                      A
 Frequencies --   3204.8541              3218.7882              3234.7754
 Red. masses --      1.0881                 1.0938                 1.0964
 Frc consts  --      6.5847                 6.6766                 6.7596
 IR Inten    --      2.1409                16.5988                 2.9688

                     94                     95                     96
                      A                      A                      A
 Frequencies --   3470.2286              3549.3633              3563.6559
 Red. masses --      1.0500                 1.0917                 1.0751
 Frc consts  --      7.4498                 8.1034                 8.0441
 IR Inten    --     10.0394                14.8938                47.4270

 - Thermochemistry -
 -------------------
 Temperature   298.150 Kelvin.  Pressure   1.00000 Atm.
 Atom     1 has atomic number  6 and mass  12.00000

 Molecular mass:   222.14806 amu.
 Principal axes and moments of inertia in atomic units:
                           1         2         3
     Eigenvalues --  2015.180335291.027116002.99835
           X            0.99985   0.01418  -0.01004
           Y           -0.01432   0.99980  -0.01398
           Z            0.00984   0.01412   0.99985
 This molecule is an asymmetric top.
 Rotational symmetry number  1.
 Warning -- assumption of classical behavior for rotation
           may cause significant error
 Rotational temperatures (Kelvin)      0.04298     0.01637     0.01443
 Rotational constants (GHZ):           0.89557     0.34109     0.30064
 Zero-point vibrational energy     767493.3 (Joules/Mol)
                                  183.43530 (Kcal/Mol)
 Warning -- explicit consideration of  25 degrees of freedom as
           vibrations may cause significant error
 Vibrational temperatures:     25.97    58.64    86.56   123.18   163.38
          (Kelvin)            173.91   306.94   321.47   333.44   365.94
                              386.68   402.26   443.78   452.43   468.48
                              508.65   546.94   559.71   570.50   589.56
                              645.39   679.82   743.95   786.56   813.25
                              921.07   938.31   986.42  1022.13  1088.03
                             1119.30  1185.89  1208.76  1256.40  1321.31
                             1346.92  1360.36  1361.20  1369.48  1376.71
                             1402.19  1441.97  1466.75  1496.27  1516.95
                             1544.40  1549.15  1608.10  1644.46  1707.13
                             1735.34  1747.91  1763.12  1801.55  1832.20
                             1863.28  1903.13  1912.55  1954.12  2014.88
                             2036.48  2044.67  2056.20  2077.11  2104.51
                             2137.76  2167.05  2171.57  2176.88  2184.59
                             2194.90  2215.55  2221.37  2234.94  2317.75
                             2355.75  2474.61  2546.02  4361.52  4371.32
                             4380.02  4402.91  4411.12  4458.88  4469.36
                             4487.18  4493.87  4522.73  4535.60  4555.88
                             4611.07  4631.12  4654.12  4992.88  5106.74
                             5127.31

 Zero-point correction=                           0.292323 (Hartree/Particle)
 Thermal correction to Energy=                    0.308419
 Thermal correction to Enthalpy=                  0.309363
 Thermal correction to Gibbs Free Energy=         0.248340
 Sum of electronic and zero-point Energies=           -723.986507
 Sum of electronic and thermal Energies=              -723.970411
 Sum of electronic and thermal Enthalpies=            -723.969467
 Sum of electronic and thermal Free Energies=         -724.030489

                     E (Thermal)             CV                S
                      KCal/Mol        Cal/Mol-Kelvin    Cal/Mol-Kelvin
 Total                  193.536             62.222            128.433
 Electronic               0.000              0.000              0.000
 Translational            0.889              2.981             42.097
 Rotational               0.889              2.981             32.526
 Vibrational            191.758             56.261             53.810
 Vibration     1          0.593              1.986              6.838
 Vibration     2          0.594              1.981              5.222
 Vibration     3          0.597              1.973              4.452
 Vibration     4          0.601              1.959              3.758
 Vibration     5          0.607              1.938              3.207
 Vibration     6          0.609              1.932              3.086
 Vibration     7          0.644              1.821              2.015
 Vibration     8          0.649              1.805              1.931
 Vibration     9          0.653              1.792              1.865
 Vibration    10          0.665              1.755              1.700
 Vibration    11          0.673              1.731              1.604
 Vibration    12          0.680              1.711              1.536
 Vibration    13          0.698              1.658              1.371
 Vibration    14          0.702              1.646              1.339
 Vibration    15          0.710              1.624              1.282
 Vibration    16          0.730              1.568              1.150
 Vibration    17          0.750              1.513              1.039
 Vibration    18          0.757              1.494              1.004
 Vibration    19          0.763              1.478              0.976
 Vibration    20          0.774              1.449              0.927
 Vibration    21          0.808              1.364              0.800
 Vibration    22          0.829              1.311              0.731
 Vibration    23          0.872              1.212              0.617
 Vibration    24          0.902              1.147              0.551
 Vibration    25          0.921              1.106              0.513

 Optimization completed.
    -- Stationary point found.
 Normal termination of Gaussian 16 at Fri Dec 11 01:42:07 2020.

 ----------------------------------------------------------------------
 # B3LYP/6-311++G(d,p) empiricaldispersion=gd3bj scf=xqc pop=npa geom=c
 heck
 ----------------------------------------------------------------------

 ---------------------------------------
 CID_116786713_JID_6926_Energie_neutraal
 ---------------------------------------
 Structure from the checkpoint file:  "JID_6926.chk"
 Charge =  0 Multiplicity = 1

 SCF Done:  E(RB3LYP) =  -724.487206658     A.U. after   16 cycles
 Normal termination of Gaussian 16 at Fri Dec 11 01:49:13 2020.

 ----------------------------------------------------------------------
 # B3LYP/6-311++G(d,p) empiricaldispersion=gd3bj scf=xqc pop=npa geom=c
 heck
 ----------------------------------------------------------------------

 -------------------------------------
 CID_116786713_JID_6926_Energie_kation
 -------------------------------------
 Structure from the checkpoint file:  "JID_6926.chk"
 Charge =  1 Multiplicity = 2

 SCF Done:  E(UB3LYP) =  -724.176165734     A.U. after   32 cycles
 Normal termination of Gaussian 16 at Fri Dec 11 02:08:45 2020.
 Gaussian 16:  ES64L-G16RevA.03 25-Dec-2016

 ----------------------------------------------------------------------
 # B3LYP/6-311++G(d,p) empiricaldispersion=gd3bj scf=xqc pop=npa geom=c
 heck
 ----------------------------------------------------------------------

 ------------------------------------
 CID_116786713_JID_6926_Energie_anion
 ------------------------------------
 Structure from the checkpoint file:  "JID_6926.chk"
 Charge = -1 Multiplicity = 2

                         Standard orientation:
 ---------------------------------------------------------------------
 Center     Atomic      Atomic             Coordinates (Angstroms)
 Number     Number       Type             X           Y           Z
 ---------------------------------------------------------------------
      1          6           0        1.900268    0.665066   -1.592999
      2          6           0        2.025255    1.128536   -0.130956
      3          6           0        3.296386    1.987292    0.006801
      4          6           0        0.806916    1.995674    0.232935
      5          6           0        2.167287   -0.067082    0.863503
      6          6           0        0.850196   -0.873109    1.120885
      7          6           0        0.396318   -1.686567   -0.073052
      8          8           0        1.135694   -2.488176   -0.631155
      9          7           0       -0.879946   -1.497946   -0.591457
     10          6           0       -1.910448   -0.629436   -0.217713
     11          7           0       -2.524581   -0.041313   -1.254577
     12          7           0       -3.540052    0.791222   -1.043420
     13          6           0       -3.926247    1.053945    0.206092
     14          6           0       -3.354527    0.441615    1.327068
     15          6           0       -2.324370   -0.452329    1.113130
     16          7           0        3.313187   -0.904851    0.508800
     17          1           0        0.961580    0.137025   -1.784206
     18          1           0        2.730968    0.010976   -1.873243
     19          1           0        1.919368    1.535450   -2.258804
     20          1           0        3.268476    2.828683   -0.695191
     21          1           0        3.383367    2.399826    1.020278
     22          1           0        4.186074    1.385874   -0.192685
     23          1           0       -0.143099    1.497416    0.014366
     24          1           0        0.813691    2.270748    1.295818
     25          1           0        0.820524    2.924614   -0.347816
     26          1           0        2.397049    0.389824    1.835397
     27          1           0        1.058903   -1.585254    1.928449
     28          1           0        0.078026   -0.193504    1.477605
     29          1           0       -0.974320   -1.864227   -1.534163
     30          1           0       -4.741867    1.764886    0.299381
     31          1           0       -3.732256    0.641758    2.324739
     32          1           0       -1.873463   -1.015616    1.921376
     33          1           0        3.606761   -1.438104    1.325263
     34          1           0        3.012213   -1.596383   -0.176897
 ---------------------------------------------------------------------

 SCF Done:  E(UB3LYP) =  -724.499379479     A.U. after   33 cycles
 SCF Done:  E(UB3LYP) =  -724.499379479     a.u. after    1 cycles

 The electronic state is 2-A.
 Alpha  occ. eigenvalues --  -18.98337 -14.22195 -14.18657 -14.15032 -14.14402
 Alpha  occ. eigenvalues --  -10.16884 -10.10515 -10.09043 -10.08127 -10.06977
 Alpha  occ. eigenvalues --  -10.05653 -10.05055 -10.04960 -10.04092 -10.01296
 Alpha  occ. eigenvalues --  -10.01138  -0.93662  -0.84909  -0.79964  -0.79179
 Alpha  occ. eigenvalues --   -0.70645  -0.65481  -0.64736  -0.63881  -0.58359
 Alpha  occ. eigenvalues --   -0.57947  -0.54315  -0.50815  -0.49950  -0.45381
 Alpha  occ. eigenvalues --   -0.42738  -0.40109  -0.39708  -0.37887  -0.35920
 Alpha  occ. eigenvalues --   -0.35437  -0.34643  -0.33819  -0.33322  -0.31482
 Alpha  occ. eigenvalues --   -0.31052  -0.29438  -0.29064  -0.28609  -0.27541
 Alpha  occ. eigenvalues --   -0.26807  -0.26399  -0.25910  -0.25187  -0.24539
 Alpha  occ. eigenvalues --   -0.22435  -0.21914  -0.21686  -0.18610  -0.16507
 Alpha  occ. eigenvalues --   -0.15078  -0.14634  -0.13613  -0.10630  -0.06493
 Alpha  occ. eigenvalues --    0.05313
 Alpha virt. eigenvalues --    0.06712   0.08214   0.09136   0.09604   0.09994
 Alpha virt. eigenvalues --    0.10616   0.11015   0.11421   0.11964   0.12028
 Alpha virt. eigenvalues --    0.12938   0.13451   0.13935   0.14296   0.14652

  Beta  occ. eigenvalues --  -18.98350 -14.22192 -14.18652 -14.14471 -14.13701
  Beta  occ. eigenvalues --  -10.16895 -10.10515 -10.09171 -10.08127 -10.06956
  Beta  occ. eigenvalues --  -10.05652 -10.05055 -10.04959 -10.04226 -10.00915
  Beta  occ. eigenvalues --  -10.00765  -0.93683  -0.84183  -0.79582  -0.79167
  Beta  occ. eigenvalues --   -0.70641  -0.65177  -0.63909  -0.63473  -0.58356
  Beta  occ. eigenvalues --   -0.57944  -0.54289  -0.50704  -0.48960  -0.45273
  Beta  occ. eigenvalues --   -0.42675  -0.40022  -0.39515  -0.37851  -0.35865
  Beta  occ. eigenvalues --   -0.35247  -0.34551  -0.33751  -0.33123  -0.31477
  Beta  occ. eigenvalues --   -0.30978  -0.29367  -0.29002  -0.28578  -0.27245
  Beta  occ. eigenvalues --   -0.26570  -0.26165  -0.25718  -0.24499  -0.23901
  Beta  occ. eigenvalues --   -0.22426  -0.21895  -0.21681  -0.17932  -0.16363
  Beta  occ. eigenvalues --   -0.14559  -0.13498  -0.11439  -0.09359  -0.05617
  Beta virt. eigenvalues --    0.06695   0.08170   0.09043   0.09575   0.09986
  Beta virt. eigenvalues --    0.10614   0.10932   0.11389   0.11908   0.11946
  Beta virt. eigenvalues --    0.12820   0.13253   0.13422   0.13975   0.14404

 Mulliken charges and spin densities:
               1          2
     1  C   -0.636922  -0.008751
     2  C    0.732140   0.012065
     3  C   -0.542537  -0.027779
     4  C   -0.642059  -0.003217
     5  C   -0.457457  -0.048043
     6  C   -0.052045  -0.050984
     7  C   -0.296264   0.013527
     8  O   -0.317577  -0.004689
     9  N    0.015054   0.009673
    10  C   -0.642835  -0.128942
    11  N   -0.048177   0.263437
    12  N   -0.253377   0.299358
    13  C   -0.270179  -0.079369
    14  C   -0.461651   0.341958
    15  C    0.319535   0.316654
    16  N   -0.301932  -0.002590
    17  H    0.192358   0.001030
    18  H    0.134384   0.002689
    19  H    0.150238   0.000260
    20  H    0.115809   0.003393
    21  H    0.098840   0.007753
    22  H    0.180073   0.005473
    23  H    0.194175  -0.012204
    24  H    0.127101  -0.002368
    25  H    0.134006   0.000957
    26  H    0.147536   0.050927
    27  H    0.178303   0.024219
    28  H    0.126357   0.015847
    29  H    0.293791  -0.002826
    30  H    0.106005   0.010312
    31  H    0.099624  -0.021045
    32  H    0.131027  -0.023794
    33  H    0.187527   0.033490
    34  H    0.259129   0.003581
 Sum of Mulliken charges =  -1.00000   1.00000

 Dipole moment (field-independent basis, Debye):
    X=              7.1982    Y=              0.3584    Z=              3.9748  Tot=              8.2305
 Quadrupole moment (field-independent basis, Debye-Ang):
   XX=           -158.3544   YY=           -116.9608   ZZ=           -111.7692
   XY=              6.8476   XZ=             -6.6855   YZ=             -0.9901

 Summary of Natural Population Analysis:

                                       Natural Population
                Natural  -----------------------------------------------
    Atom  No    Charge         Core      Valence    Rydberg      Total
 -----------------------------------------------------------------------
      C    1   -0.29005      0.99963     2.28433    0.00609     3.29005
      C    2   -0.04623      0.99957     2.03724    0.00942     3.04623
      C    3   -0.28476      0.99963     2.27927    0.00586     3.28476
      C    4   -0.28911      0.99963     2.28360    0.00588     3.28911
      C    5   -0.00176      0.99955     1.98650    0.01571     3.00176
      C    6   -0.24742      0.99956     2.23780    0.01007     3.24742
      C    7    0.34496      0.99967     1.63424    0.02113     2.65504
      O    8   -0.34264      0.99987     3.33655    0.00622     4.34264
      N    9   -0.30911      0.99963     2.79614    0.01334     3.80911
      C   10    0.13789      0.99952     1.84652    0.01607     2.86211
      N   11   -0.08996      0.99967     2.56808    0.02220     3.58996
      N   12   -0.04160      0.99973     2.52526    0.01661     3.54160
      C   13   -0.03208      0.99961     2.01738    0.01509     3.03208
      C   14   -0.04655      0.99956     2.03773    0.00926     3.04655
      C   15   -0.06800      0.99951     2.06050    0.00798     3.06800
      N   16   -0.43291      0.99976     2.92368    0.00946     3.93291
      H   17    0.10838      0.00000     0.39067    0.00096     0.39162
      H   18    0.10128      0.00000     0.39793    0.00079     0.39872
      H   19    0.09613      0.00000     0.40307    0.00080     0.40387
      H   20    0.09355      0.00000     0.40563    0.00082     0.40645
      H   21    0.09289      0.00000     0.40627    0.00084     0.40711
      H   22    0.10907      0.00000     0.39010    0.00083     0.39093
      H   23    0.11468      0.00000     0.38439    0.00093     0.38532
      H   24    0.09477      0.00000     0.40452    0.00071     0.40523
      H   25    0.09767      0.00000     0.40156    0.00077     0.40233
      H   26    0.08780      0.00000     0.41032    0.00188     0.41220
      H   27    0.10552      0.00000     0.39317    0.00131     0.39448
      H   28    0.12139      0.00000     0.37761    0.00100     0.37861
      H   29    0.19943      0.00000     0.29854    0.00203     0.30057
      H   30    0.08142      0.00000     0.41720    0.00138     0.41858
      H   31    0.08685      0.00000     0.41185    0.00129     0.41315
      H   32    0.08879      0.00000     0.40959    0.00162     0.41121
      H   33    0.16985      0.00000     0.32821    0.00194     0.33015
      H   34    0.18982      0.00000     0.30814    0.00203     0.31018
 =======================================================================
   * Total *    0.00000     15.99411    43.79359    0.21230    60.00000

 Normal termination of Gaussian 16 at Fri Dec 11 02:29:20 2020.
