 Gaussian 16, Revision A.03,

 -----------------------------------------------------------
 # opt freq B3LYP/6-31G(d) empiricaldispersion=gd3bj scf=xqc
 -----------------------------------------------------------

 ------------------------------
 CID_61357680_JID_6794_neutraal
 ------------------------------
 Symbolic Z-matrix:
 Charge =  0 Multiplicity = 1

 SCF Done:  E(RB3LYP) =  -1423.62143628     A.U. after   15 cycles
 SCF Done:  E(RB3LYP) =  -1423.62263215     A.U. after   16 cycles
 SCF Done:  E(RB3LYP) =  -1423.62850895     A.U. after   15 cycles
 SCF Done:  E(RB3LYP) =  -1423.62834517     A.U. after   15 cycles
 SCF Done:  E(RB3LYP) =  -1423.62989376     A.U. after   13 cycles
 SCF Done:  E(RB3LYP) =  -1423.63186394     A.U. after   14 cycles
 SCF Done:  E(RB3LYP) =  -1423.63253946     A.U. after   12 cycles
 SCF Done:  E(RB3LYP) =  -1423.63345249     A.U. after   12 cycles
 SCF Done:  E(RB3LYP) =  -1423.63445400     A.U. after   13 cycles
 SCF Done:  E(RB3LYP) =  -1423.63508381     A.U. after   15 cycles
 SCF Done:  E(RB3LYP) =  -1423.63550878     A.U. after    9 cycles
 SCF Done:  E(RB3LYP) =  -1423.63550967     A.U. after    8 cycles
 SCF Done:  E(RB3LYP) =  -1423.63551030     A.U. after    8 cycles
 SCF Done:  E(RB3LYP) =  -1423.63551050     A.U. after    8 cycles
 SCF Done:  E(RB3LYP) =  -1423.63551061     A.U. after    7 cycles
 Optimization completed.
    -- Stationary point found.
 Normal termination of Gaussian 16 at Fri Dec 11 00:39:33 2020.

 --------------------------------------------------------------------
 #N Geom=AllCheck Guess=TCheck SCRF=Check GenChk RB3LYP/6-31G(d) Freq
 --------------------------------------------------------------------

 Structure from the checkpoint file:  "JID_6794.chk"
 ------------------------------
 CID_61357680_JID_6794_neutraal
 ------------------------------
 Charge =  0 Multiplicity = 1

 SCF Done:  E(RB3LYP) =  -1423.63551061     A.U. after    1 cycles

  Exact polarizability: 267.823 -15.858 160.578  -2.769   1.714  82.912
 Approx polarizability: 400.012 -31.642 294.106  -8.518   7.474 127.729

                      1                      2                      3
                      A                      A                      A
 Frequencies --     21.5042                55.0743                63.9902
 Red. masses --      6.8366                 6.7932                 5.5662
 Frc consts  --      0.0019                 0.0121                 0.0134
 IR Inten    --      0.3442                 1.0206                 1.1314

                      4                      5                      6
                      A                      A                      A
 Frequencies --     82.5609               111.5874               176.9947
 Red. masses --      7.1725                 4.8344                 6.0183
 Frc consts  --      0.0288                 0.0355                 0.1111
 IR Inten    --      0.2283                 2.3238                 5.3028

                      7                      8                      9
                      A                      A                      A
 Frequencies --    191.5462               213.6328               232.4754
 Red. masses --      5.5951                 5.2917                 5.4602
 Frc consts  --      0.1210                 0.1423                 0.1739
 IR Inten    --      1.3760                 2.0906                 1.7830

                     10                     11                     12
                      A                      A                      A
 Frequencies --    249.7499               271.8339               294.8953
 Red. masses --      1.1072                 3.0376                 1.3588
 Frc consts  --      0.0407                 0.1322                 0.0696
 IR Inten    --      0.8330                 7.4877                17.2406

                     13                     14                     15
                      A                      A                      A
 Frequencies --    295.7525               323.6932               362.9179
 Red. masses --      2.1717                 6.1697                 7.6422
 Frc consts  --      0.1119                 0.3809                 0.5930
 IR Inten    --      6.6640                 1.4216                 2.9358

                     16                     17                     18
                      A                      A                      A
 Frequencies --    385.6385               423.1408               435.9711
 Red. masses --      8.3615                 5.1821                 3.0163
 Frc consts  --      0.7327                 0.5467                 0.3378
 IR Inten    --      4.6646                 3.5398                 6.5504

                     19                     20                     21
                      A                      A                      A
 Frequencies --    473.3071               500.2598               529.6451
 Red. masses --      5.3698                 1.3539                 6.8431
 Frc consts  --      0.7088                 0.1996                 1.1310
 IR Inten    --     14.4558               143.7505                14.8999

                     22                     23                     24
                      A                      A                      A
 Frequencies --    549.2031               554.2103               577.5209
 Red. masses --      5.2428                 3.6994                 2.8463
 Frc consts  --      0.9317                 0.6695                 0.5593
 IR Inten    --     48.2462                37.9068                15.9877

                     25                     26                     27
                      A                      A                      A
 Frequencies --    588.1214               626.9415               652.0281
 Red. masses --      2.1020                 2.4238                 3.9179
 Frc consts  --      0.4284                 0.5613                 0.9814
 IR Inten    --    296.4200               118.4688                27.4214

                     28                     29                     30
                      A                      A                      A
 Frequencies --    687.2387               710.7680               720.7872
 Red. masses --      5.1321                 1.7499                 6.8388
 Frc consts  --      1.4281                 0.5209                 2.0934
 IR Inten    --     12.2291                20.9548                 2.9361

                     31                     32                     33
                      A                      A                      A
 Frequencies --    730.3917               794.2443               820.9269
 Red. masses --      4.9655                 2.5946                 1.4428
 Frc consts  --      1.5607                 0.9644                 0.5729
 IR Inten    --      5.0359                 0.9700                19.5459

                     34                     35                     36
                      A                      A                      A
 Frequencies --    827.6437               836.6874               848.6012
 Red. masses --      2.6780                 1.7433                 4.0204
 Frc consts  --      1.0808                 0.7190                 1.7058
 IR Inten    --      4.0153                34.7275                11.7440

                     37                     38                     39
                      A                      A                      A
 Frequencies --    919.3694               941.6633              1000.4169
 Red. masses --      5.8222                 1.2884                 1.8839
 Frc consts  --      2.8994                 0.6731                 1.1109
 IR Inten    --     24.3535                 0.1200                53.4773

                     40                     41                     42
                      A                      A                      A
 Frequencies --   1009.4050              1076.3475              1093.3582
 Red. masses --      5.1984                 3.2064                 1.5687
 Frc consts  --      3.1207                 2.1886                 1.1049
 IR Inten    --     85.9719                 8.3126                14.9728

                     43                     44                     45
                      A                      A                      A
 Frequencies --   1109.9122              1117.3899              1169.7672
 Red. masses --      2.2629                 1.4363                 1.2346
 Frc consts  --      1.6425                 1.0566                 0.9954
 IR Inten    --      1.8693                 1.3950                 6.4104

                     46                     47                     48
                      A                      A                      A
 Frequencies --   1174.8178              1270.6086              1283.5075
 Red. masses --      1.6322                 1.8734                 1.2869
 Frc consts  --      1.3273                 1.7820                 1.2491
 IR Inten    --      6.6389                29.4158                69.6343

                     49                     50                     51
                      A                      A                      A
 Frequencies --   1316.1964              1325.6017              1334.7194
 Red. masses --      2.9316                 1.3253                 2.3723
 Frc consts  --      2.9922                 1.3722                 2.4900
 IR Inten    --      0.5929                 1.5833                42.9326

                     52                     53                     54
                      A                      A                      A
 Frequencies --   1377.7769              1384.8863              1437.6531
 Red. masses --      6.3943                 3.1653                 1.2498
 Frc consts  --      7.1516                 3.5768                 1.5220
 IR Inten    --     11.9039                48.0729                 6.5024

                     55                     56                     57
                      A                      A                      A
 Frequencies --   1482.1879              1511.3585              1518.6185
 Red. masses --      3.3357                 4.2666                 1.0965
 Frc consts  --      4.3176                 5.7420                 1.4899
 IR Inten    --     42.5893                62.9920                 6.7021

                     58                     59                     60
                      A                      A                      A
 Frequencies --   1532.5062              1536.5978              1617.1885
 Red. masses --      1.2199                 2.9992                 5.8236
 Frc consts  --      1.6880                 4.1724                 8.9735
 IR Inten    --     25.6066                27.9113                33.0725

                     61                     62                     63
                      A                      A                      A
 Frequencies --   1667.6734              1678.8481              1696.1907
 Red. masses --      4.1939                 1.2329                 1.2446
 Frc consts  --      6.8721                 2.0474                 2.1097
 IR Inten    --    114.5348                83.4280               152.0875

                     64                     65                     66
                      A                      A                      A
 Frequencies --   1804.7323              3066.1576              3114.4020
 Red. masses --      8.6552                 1.0375                 1.0859
 Frc consts  --     16.6093                 5.7467                 6.2055
 IR Inten    --    368.9165                17.5647                 0.1408

                     67                     68                     69
                      A                      A                      A
 Frequencies --   3133.0121              3167.6342              3188.0174
 Red. masses --      1.1020                 1.1006                 1.0886
 Frc consts  --      6.3732                 6.5064                 6.5187
 IR Inten    --     12.4301                 7.7227                15.3264

                     70                     71                     72
                      A                      A                      A
 Frequencies --   3196.6921              3216.6963              3433.7641
 Red. masses --      1.0909                 1.0937                 1.0613
 Frc consts  --      6.5678                 6.6677                 7.3726
 IR Inten    --     13.2722                 7.6504               440.4542

                     73                     74                     75
                      A                      A                      A
 Frequencies --   3558.0913              3657.4912              3661.9804
 Red. masses --      1.0478                 1.0986                 1.0918
 Frc consts  --      7.8158                 8.6591                 8.6259
 IR Inten    --     27.6092                10.9874                97.3778

 - Thermochemistry -
 -------------------
 Temperature   298.150 Kelvin.  Pressure   1.00000 Atm.
 Atom     1 has atomic number  6 and mass  12.00000

 Molecular mass:   253.03436 amu.
 Principal axes and moments of inertia in atomic units:
                           1         2         3
     Eigenvalues --  1774.133217975.287489143.41339
           X            0.99998  -0.00262   0.00510
           Y            0.00265   0.99998  -0.00646
           Z           -0.00509   0.00648   0.99997
 This molecule is an asymmetric top.
 Rotational symmetry number  1.
 Warning -- assumption of classical behavior for rotation
           may cause significant error
 Rotational temperatures (Kelvin)      0.04882     0.01086     0.00947
 Rotational constants (GHZ):           1.01725     0.22629     0.19738
 Zero-point vibrational energy     538347.8 (Joules/Mol)
                                  128.66821 (Kcal/Mol)
 Warning -- explicit consideration of  25 degrees of freedom as
           vibrations may cause significant error
 Vibrational temperatures:     30.94    79.24    92.07   118.79   160.55
          (Kelvin)            254.66   275.59   307.37   334.48   359.33
                              391.11   424.29   425.52   465.72   522.16
                              554.85   608.81   627.27   680.98   719.76
                              762.04   790.18   797.38   830.92   846.18
                              902.03   938.12   988.78  1022.64  1037.05
                             1050.87  1142.74  1181.13  1190.79  1203.81
                             1220.95  1322.77  1354.84  1439.38  1452.31
                             1548.62  1573.10  1596.92  1607.67  1683.03
                             1690.30  1828.12  1846.68  1893.71  1907.25
                             1920.36  1982.31  1992.54  2068.46  2132.54
                             2174.51  2184.95  2204.93  2210.82  2326.77
                             2399.41  2415.49  2440.44  2596.61  4411.52
                             4480.93  4507.71  4557.52  4586.85  4599.33
                             4628.11  4940.42  5119.30  5262.31  5268.77

 Zero-point correction=                           0.205046 (Hartree/Particle)
 Thermal correction to Energy=                    0.220404
 Thermal correction to Enthalpy=                  0.221349
 Thermal correction to Gibbs Free Energy=         0.161502
 Sum of electronic and zero-point Energies=          -1423.430465
 Sum of electronic and thermal Energies=             -1423.415106
 Sum of electronic and thermal Enthalpies=           -1423.414162
 Sum of electronic and thermal Free Energies=        -1423.474008

                     E (Thermal)             CV                S
                      KCal/Mol        Cal/Mol-Kelvin    Cal/Mol-Kelvin
 Total                  138.306             58.625            125.957
 Electronic               0.000              0.000              0.000
 Translational            0.889              2.981             42.485
 Rotational               0.889              2.981             33.225
 Vibrational            136.528             52.663             50.247
 Vibration     1          0.593              1.985              6.490
 Vibration     2          0.596              1.976              4.626
 Vibration     3          0.597              1.971              4.330
 Vibration     4          0.600              1.961              3.829
 Vibration     5          0.607              1.940              3.241
 Vibration     6          0.628              1.871              2.360
 Vibration     7          0.634              1.852              2.213
 Vibration     8          0.644              1.820              2.012
 Vibration     9          0.653              1.791              1.860
 Vibration    10          0.663              1.763              1.732
 Vibration    11          0.675              1.725              1.585
 Vibration    12          0.689              1.683              1.446
 Vibration    13          0.690              1.682              1.441
 Vibration    14          0.708              1.628              1.291
 Vibration    15          0.737              1.549              1.110
 Vibration    16          0.754              1.501              1.017
 Vibration    17          0.785              1.420              0.881
 Vibration    18          0.796              1.392              0.839
 Vibration    19          0.830              1.309              0.728
 Vibration    20          0.856              1.249              0.657
 Vibration    21          0.885              1.184              0.588
 Vibration    22          0.904              1.141              0.546
 Vibration    23          0.910              1.130              0.536
 Vibration    24          0.934              1.080              0.490
 Vibration    25          0.945              1.057              0.471

 Optimization completed.
    -- Stationary point found.
 Normal termination of Gaussian 16 at Fri Dec 11 00:47:41 2020.

 ----------------------------------------------------------------------
 # B3LYP/6-311++G(d,p) empiricaldispersion=gd3bj scf=xqc pop=npa geom=c
 heck
 ----------------------------------------------------------------------

 --------------------------------------
 CID_61357680_JID_6794_Energie_neutraal
 --------------------------------------
 Structure from the checkpoint file:  "JID_6794.chk"
 Charge =  0 Multiplicity = 1

 SCF Done:  E(RB3LYP) =  -1423.87251977     A.U. after   16 cycles
 Normal termination of Gaussian 16 at Fri Dec 11 00:51:16 2020.

 ----------------------------------------------------------------------
 # B3LYP/6-311++G(d,p) empiricaldispersion=gd3bj scf=xqc pop=npa geom=c
 heck
 ----------------------------------------------------------------------

 ------------------------------------
 CID_61357680_JID_6794_Energie_kation
 ------------------------------------
 Structure from the checkpoint file:  "JID_6794.chk"
 Charge =  1 Multiplicity = 2

 SCF Done:  E(UB3LYP) =  -1423.59668763     A.U. after   24 cycles
 Normal termination of Gaussian 16 at Fri Dec 11 00:58:28 2020.
 Gaussian 16:  ES64L-G16RevA.03 25-Dec-2016

 ----------------------------------------------------------------------
 # B3LYP/6-311++G(d,p) empiricaldispersion=gd3bj scf=xqc pop=npa geom=c
 heck
 ----------------------------------------------------------------------

 -----------------------------------
 CID_61357680_JID_6794_Energie_anion
 -----------------------------------
 Structure from the checkpoint file:  "JID_6794.chk"
 Charge = -1 Multiplicity = 2

                         Standard orientation:
 ---------------------------------------------------------------------
 Center     Atomic      Atomic             Coordinates (Angstroms)
 Number     Number       Type             X           Y           Z
 ---------------------------------------------------------------------
      1          6           0       -2.622788   -0.141844   -1.933334
      2          6           0       -3.193370    0.238656   -0.567193
      3          6           0       -3.631054   -0.970717    0.279055
      4          8           0       -4.813234   -1.126247    0.555335
      5          7           0       -2.648299   -1.843607    0.616199
      6         16           0       -2.138106    1.452773    0.370241
      7          6           0       -0.499713    0.830785    0.218946
      8          7           0       -0.130355   -0.411625    0.162342
      9          6           0        1.249154   -0.535643    0.074418
     10          6           0        1.964725    0.683840    0.092429
     11         16           0        0.828863    2.020155    0.170597
     12          6           0        3.354739    0.724522    0.036128
     13          6           0        4.057663   -0.485929   -0.044662
     14          6           0        3.345062   -1.707963   -0.066726
     15          6           0        1.961429   -1.738239   -0.008536
     16          7           0        5.451897   -0.495777   -0.046590
     17          1           0       -1.684064   -0.690531   -1.839731
     18          1           0       -2.449682    0.751897   -2.539747
     19          1           0       -3.345453   -0.781910   -2.451364
     20          1           0       -4.106723    0.824698   -0.696480
     21          1           0       -1.666037   -1.589167    0.510004
     22          1           0       -2.904584   -2.596434    1.239571
     23          1           0        3.891064    1.668599    0.055518
     24          1           0        3.902583   -2.639071   -0.122476
     25          1           0        1.423227   -2.680498   -0.025092
     26          1           0        5.890074    0.359613   -0.363702
     27          1           0        5.875579   -1.311811   -0.469392
 ---------------------------------------------------------------------

 SCF Done:  E(UB3LYP) =  -1423.87567311     A.U. after   33 cycles
 SCF Done:  E(UB3LYP) =  -1423.87567311     a.u. after    1 cycles

 The electronic state is 2-A.
 Alpha  occ. eigenvalues --  -88.75451 -88.74625 -18.98974 -14.22152 -14.20646
 Alpha  occ. eigenvalues --  -14.18676 -10.17298 -10.11868 -10.11072 -10.09590
 Alpha  occ. eigenvalues --  -10.09150 -10.08389 -10.07313 -10.05977 -10.05809
 Alpha  occ. eigenvalues --  -10.05750  -7.84080  -7.83170  -5.80394  -5.80055
 Alpha  occ. eigenvalues --   -5.79608  -5.79580  -5.79161  -5.78581  -0.93844
 Alpha  occ. eigenvalues --   -0.84464  -0.80933  -0.80090  -0.72615  -0.70656
 Alpha  occ. eigenvalues --   -0.68059  -0.63712  -0.61695  -0.58923  -0.54940
 Alpha  occ. eigenvalues --   -0.50053  -0.48635  -0.48058  -0.44131  -0.43459
 Alpha  occ. eigenvalues --   -0.40452  -0.39142  -0.37929  -0.36003  -0.34614
 Alpha  occ. eigenvalues --   -0.34150  -0.33086  -0.32461  -0.31446  -0.30700
 Alpha  occ. eigenvalues --   -0.28951  -0.28543  -0.28482  -0.27982  -0.26037
 Alpha  occ. eigenvalues --   -0.25699  -0.22649  -0.22091  -0.19947  -0.18811
 Alpha  occ. eigenvalues --   -0.17492  -0.16837  -0.15987  -0.13962  -0.12083
 Alpha  occ. eigenvalues --   -0.08729   0.04025
 Alpha virt. eigenvalues --    0.05896   0.07753   0.08137   0.08710   0.09230
 Alpha virt. eigenvalues --    0.09516   0.09620   0.10268   0.11106   0.11386
 Alpha virt. eigenvalues --    0.11968   0.12829   0.13051   0.13762   0.13949

  Beta  occ. eigenvalues --  -88.75429 -88.74612 -18.98963 -14.22155 -14.20571
  Beta  occ. eigenvalues --  -14.18518 -10.17287 -10.11390 -10.10969 -10.09430
  Beta  occ. eigenvalues --  -10.09129 -10.08406 -10.07314 -10.05965 -10.05831
  Beta  occ. eigenvalues --  -10.05616  -7.84060  -7.83156  -5.80391  -5.80051
  Beta  occ. eigenvalues --   -5.79563  -5.79521  -5.79167  -5.78540  -0.93819
  Beta  occ. eigenvalues --   -0.84065  -0.80770  -0.80078  -0.72418  -0.70480
  Beta  occ. eigenvalues --   -0.67852  -0.63415  -0.61522  -0.58792  -0.54826
  Beta  occ. eigenvalues --   -0.49830  -0.48469  -0.47954  -0.43942  -0.43349
  Beta  occ. eigenvalues --   -0.40341  -0.38935  -0.37717  -0.35875  -0.34521
  Beta  occ. eigenvalues --   -0.34004  -0.32971  -0.32298  -0.31365  -0.30098
  Beta  occ. eigenvalues --   -0.28806  -0.28468  -0.28352  -0.27851  -0.25549
  Beta  occ. eigenvalues --   -0.25277  -0.22491  -0.21869  -0.19313  -0.18323
  Beta  occ. eigenvalues --   -0.17343  -0.16702  -0.15812  -0.13603  -0.11668
  Beta  occ. eigenvalues --   -0.07979
  Beta virt. eigenvalues --    0.06913   0.07774   0.08413   0.08577   0.08928
  Beta virt. eigenvalues --    0.09458   0.09746   0.10135   0.10356   0.11147
  Beta virt. eigenvalues --    0.11727   0.12192   0.13030   0.13325   0.13746

 Mulliken charges and spin densities:
               1          2
     1  C   -0.633270  -0.005325
     2  C    0.376323  -0.055148
     3  C   -0.216217   0.056778
     4  O   -0.373765  -0.000325
     5  N   -0.463462  -0.002995
     6  S   -0.432198   0.107991
     7  C    0.176279   0.173787
     8  N    0.114475   0.060490
     9  C    0.063933  -0.372077
    10  C    1.105638  -0.320328
    11  S   -0.660817   0.061247
    12  C    0.061300  -0.017579
    13  C    0.212384  -0.345615
    14  C   -0.520052   0.110578
    15  C   -0.623909   0.401459
    16  N   -0.268078  -0.048432
    17  H    0.151862  -0.005100
    18  H    0.131900  -0.000383
    19  H    0.143582   0.000464
    20  H    0.277206   0.010557
    21  H    0.408840   0.003985
    22  H    0.261900   0.008484
    23  H   -0.014164   0.168150
    24  H   -0.051036   0.196583
    25  H    0.097908   0.010171
    26  H   -0.180694   0.422803
    27  H   -0.145869   0.379780
 Sum of Mulliken charges =  -1.00000   1.00000

 Dipole moment (field-independent basis, Debye):
    X=             -3.6073    Y=             -0.2426    Z=             -1.0811  Tot=              3.7736
 Quadrupole moment (field-independent basis, Debye-Ang):
   XX=           -218.1026   YY=           -124.1402   ZZ=           -122.4483
   XY=              0.2629   XZ=              9.2075   YZ=             -2.1253

 Summary of Natural Population Analysis:

                                       Natural Population
                Natural  -----------------------------------------------
    Atom  No    Charge         Core      Valence    Rydberg      Total
 -----------------------------------------------------------------------
      C    1   -0.29279      0.99964     2.28788    0.00527     3.29279
      C    2   -0.18168      0.99952     2.16945    0.01271     3.18168
      C    3    0.33331      0.99965     1.64219    0.02485     2.66669
      O    4   -0.33035      0.99988     3.32362    0.00685     4.33035
      N    5   -0.41242      0.99969     2.90515    0.00759     3.91242
      S    6    0.13466      4.99947     2.84630    0.01958     7.86534
      C    7    0.03723      0.99959     1.94554    0.01764     2.96277
      N    8   -0.27172      0.99958     2.75843    0.01372     3.77172
      C    9    0.04142      0.99943     1.94684    0.01231     2.95858
      C   10   -0.08876      0.99941     2.07829    0.01106     3.08876
      S   11    0.17331      4.99942     2.80875    0.01852     7.82669
      C   12   -0.14026      0.99947     2.13045    0.01034     3.14026
      C   13    0.10849      0.99951     1.88073    0.01127     2.89151
      C   14   -0.13982      0.99954     2.13010    0.01018     3.13982
      C   15   -0.06432      0.99953     2.05670    0.00809     3.06432
      N   16   -0.39607      0.99972     2.88586    0.01050     3.89607
      H   17    0.11306      0.00000     0.38588    0.00106     0.38694
      H   18    0.10156      0.00000     0.39737    0.00107     0.39844
      H   19    0.09906      0.00000     0.39989    0.00104     0.40094
      H   20    0.11205      0.00000     0.38683    0.00112     0.38795
      H   21    0.21638      0.00000     0.28121    0.00241     0.28362
      H   22    0.18636      0.00000     0.31080    0.00285     0.31364
      H   23    0.09847      0.00000     0.39992    0.00161     0.40153
      H   24    0.09566      0.00000     0.40344    0.00090     0.40434
      H   25    0.09707      0.00000     0.40150    0.00142     0.40293
      H   26    0.18561      0.00000     0.31040    0.00399     0.31439
      H   27    0.18449      0.00000     0.31220    0.00331     0.31551
 =======================================================================
   * Total *   -0.00000     23.99301    41.78573    0.22126    66.00000

 Normal termination of Gaussian 16 at Fri Dec 11 01:08:33 2020.
