 Gaussian 16, Revision A.03,

 -----------------------------------------------------------
 # opt freq B3LYP/6-31G(d) empiricaldispersion=gd3bj scf=xqc
 -----------------------------------------------------------

 -------------------------------
 CID_139808795_JID_2370_neutraal
 -------------------------------
 Symbolic Z-matrix:
 Charge =  0 Multiplicity = 1

 SCF Done:  E(RB3LYP) =  -593.145913193     A.U. after   15 cycles
 SCF Done:  E(RB3LYP) =  -593.146480678     A.U. after   13 cycles
 SCF Done:  E(RB3LYP) =  -593.148878062     A.U. after   14 cycles
 SCF Done:  E(RB3LYP) =  -593.149719763     A.U. after   12 cycles
 SCF Done:  E(RB3LYP) =  -593.150081689     A.U. after   12 cycles
 SCF Done:  E(RB3LYP) =  -593.150265980     A.U. after   12 cycles
 SCF Done:  E(RB3LYP) =  -593.150361735     A.U. after   11 cycles
 SCF Done:  E(RB3LYP) =  -593.150388891     A.U. after   11 cycles
 SCF Done:  E(RB3LYP) =  -593.150405244     A.U. after   11 cycles
 SCF Done:  E(RB3LYP) =  -593.150419376     A.U. after   11 cycles
 SCF Done:  E(RB3LYP) =  -593.150423296     A.U. after   10 cycles
 SCF Done:  E(RB3LYP) =  -593.150424592     A.U. after   10 cycles
 SCF Done:  E(RB3LYP) =  -593.150424781     A.U. after    8 cycles
 SCF Done:  E(RB3LYP) =  -593.150424812     A.U. after    7 cycles
 Optimization completed.
    -- Stationary point found.
 Normal termination of Gaussian 16 at Wed Dec  9 17:14:35 2020.

 --------------------------------------------------------------------
 #N Geom=AllCheck Guess=TCheck SCRF=Check GenChk RB3LYP/6-31G(d) Freq
 --------------------------------------------------------------------

 Structure from the checkpoint file:  "JID_2370.chk"
 -------------------------------
 CID_139808795_JID_2370_neutraal
 -------------------------------
 Charge =  0 Multiplicity = 1

 SCF Done:  E(RB3LYP) =  -593.150424812     A.U. after    1 cycles

  Exact polarizability: 125.518  -3.467  98.912   4.041  -0.905  77.114
 Approx polarizability: 163.202 -21.907 151.549  12.564  -8.293 121.710

                      1                      2                      3
                      A                      A                      A
 Frequencies --     34.3823                43.2447                62.1920
 Red. masses --      5.7032                 3.2470                 5.1303
 Frc consts  --      0.0040                 0.0036                 0.0117
 IR Inten    --      1.8615                 1.4744                 7.9411

                      4                      5                      6
                      A                      A                      A
 Frequencies --    100.2207               134.3500               143.2578
 Red. masses --      2.9214                 2.2324                 1.4482
 Frc consts  --      0.0173                 0.0237                 0.0175
 IR Inten    --      1.7343                 3.8758                 1.5333

                      7                      8                      9
                      A                      A                      A
 Frequencies --    167.3691               193.5141               221.4672
 Red. masses --      3.1472                 4.0884                 3.9685
 Frc consts  --      0.0519                 0.0902                 0.1147
 IR Inten    --      1.1063                 7.4084                 1.7359

                     10                     11                     12
                      A                      A                      A
 Frequencies --    236.3253               260.2601               261.4695
 Red. masses --      1.1196                 3.0445                 1.1820
 Frc consts  --      0.0368                 0.1215                 0.0476
 IR Inten    --      0.6710                 4.6657                 0.8799

                     13                     14                     15
                      A                      A                      A
 Frequencies --    301.6203               322.8477               355.1558
 Red. masses --      3.0794                 3.5180                 4.0023
 Frc consts  --      0.1651                 0.2160                 0.2974
 IR Inten    --      3.6811                 0.1496                10.4642

                     16                     17                     18
                      A                      A                      A
 Frequencies --    439.1542               452.9254               474.4400
 Red. masses --      3.0506                 1.3910                 2.4583
 Frc consts  --      0.3466                 0.1681                 0.3260
 IR Inten    --      3.1811                54.6723                44.7255

                     19                     20                     21
                      A                      A                      A
 Frequencies --    539.3506               615.7294               709.6622
 Red. masses --      1.9003                 1.8240                 5.1803
 Frc consts  --      0.3257                 0.4074                 1.5371
 IR Inten    --     91.6741               103.6188                 0.5257

                     22                     23                     24
                      A                      A                      A
 Frequencies --    722.4805               729.9884               737.9069
 Red. masses --      5.2973                 3.7439                 4.1292
 Frc consts  --      1.6291                 1.1755                 1.3247
 IR Inten    --     10.5610                18.7996                 7.3513

                     25                     26                     27
                      A                      A                      A
 Frequencies --    809.1403               873.5428               907.1755
 Red. masses --      5.3923                 3.9244                 2.7257
 Frc consts  --      2.0800                 1.7644                 1.3217
 IR Inten    --     24.9457                12.7181                 2.9189

                     28                     29                     30
                      A                      A                      A
 Frequencies --    912.0075               951.3867               979.0739
 Red. masses --      1.4478                 1.1769                 1.5131
 Frc consts  --      0.7095                 0.6276                 0.8546
 IR Inten    --     14.2354                 3.9286                 0.4069

                     31                     32                     33
                      A                      A                      A
 Frequencies --   1031.0758              1079.9855              1126.5263
 Red. masses --      2.3631                 6.1662                 2.0345
 Frc consts  --      1.4802                 4.2374                 1.5212
 IR Inten    --     25.0409                57.6082                 0.4059

                     34                     35                     36
                      A                      A                      A
 Frequencies --   1136.9448              1179.3573              1186.1142
 Red. masses --      1.9449                 1.9164                 1.2746
 Frc consts  --      1.4813                 1.5704                 1.0565
 IR Inten    --      4.5361                46.6603                 1.4393

                     37                     38                     39
                      A                      A                      A
 Frequencies --   1215.8448              1221.7115              1309.7925
 Red. masses --      1.7907                 1.5896                 1.6613
 Frc consts  --      1.5596                 1.3979                 1.6792
 IR Inten    --      8.2017                 4.8190                52.1047

                     40                     41                     42
                      A                      A                      A
 Frequencies --   1313.7638              1351.6146              1370.2433
 Red. masses --      5.4954                 1.4102                 1.6946
 Frc consts  --      5.5883                 1.5179                 1.8747
 IR Inten    --    349.5102                34.0768                67.5464

                     43                     44                     45
                      A                      A                      A
 Frequencies --   1425.4366              1427.4903              1449.5439
 Red. masses --      1.2710                 1.6617                 1.2591
 Frc consts  --      1.5215                 1.9950                 1.5588
 IR Inten    --     18.5257                26.4955                 6.4308

                     46                     47                     48
                      A                      A                      A
 Frequencies --   1493.0865              1511.8429              1515.3796
 Red. masses --      1.2134                 1.0483                 1.0410
 Frc consts  --      1.5938                 1.4117                 1.4085
 IR Inten    --     14.8467                 4.8413                 1.3680

                     49                     50                     51
                      A                      A                      A
 Frequencies --   1521.4330              1525.8928              1532.9160
 Red. masses --      1.0503                 1.0488                 1.0435
 Frc consts  --      1.4324                 1.4388                 1.4446
 IR Inten    --      2.4429                 7.1184                10.8577

                     52                     53                     54
                      A                      A                      A
 Frequencies --   1543.4579              1650.0451              1696.4765
 Red. masses --      1.0551                 1.2382                 8.1085
 Frc consts  --      1.4809                 1.9862                13.7495
 IR Inten    --      6.2106                65.0332                58.3393

                     55                     56                     57
                      A                      A                      A
 Frequencies --   1791.1823              1803.4374              3042.6656
 Red. masses --      8.7225                10.5433                 1.0838
 Frc consts  --     16.4882                20.2037                 5.9114
 IR Inten    --    282.4961               276.6687                17.8311

                     58                     59                     60
                      A                      A                      A
 Frequencies --   3054.1993              3057.7200              3076.8288
 Red. masses --      1.0357                 1.0372                 1.0293
 Frc consts  --      5.6919                 5.7136                 5.7412
 IR Inten    --     27.4192                28.0989                33.2205

                     61                     62                     63
                      A                      A                      A
 Frequencies --   3122.2529              3125.1242              3130.6465
 Red. masses --      1.1021                 1.1028                 1.1027
 Frc consts  --      6.3303                 6.3455                 6.3674
 IR Inten    --     18.1222                38.1485                22.8703

                     64                     65                     66
                      A                      A                      A
 Frequencies --   3152.3960              3158.2405              3182.3662
 Red. masses --      1.1075                 1.1008                 1.1074
 Frc consts  --      6.4843                 6.4695                 6.6076
 IR Inten    --     18.7375                10.2725                14.4779

                     67                     68                     69
                      A                      A                      A
 Frequencies --   3193.8096              3560.2049              3683.7069
 Red. masses --      1.0891                 1.0471                 1.1006
 Frc consts  --      6.5455                 7.8195                 8.7995
 IR Inten    --      6.1070                27.4473                23.2421

 - Thermochemistry -
 -------------------
 Temperature   298.150 Kelvin.  Pressure   1.00000 Atm.
 Atom     1 has atomic number  6 and mass  12.00000

 Molecular mass:   171.08954 amu.
 Principal axes and moments of inertia in atomic units:
                           1         2         3
     Eigenvalues --  1194.043183005.478823553.78156
           X            0.99925   0.03839  -0.00499
           Y           -0.03816   0.99846   0.04028
           Z            0.00653  -0.04006   0.99918
 This molecule is an asymmetric top.
 Rotational symmetry number  1.
 Warning -- assumption of classical behavior for rotation
           may cause significant error
 Rotational temperatures (Kelvin)      0.07254     0.02882     0.02437
 Rotational constants (GHZ):           1.51145     0.60048     0.50784
 Zero-point vibrational energy     548143.3 (Joules/Mol)
                                  131.00938 (Kcal/Mol)
 Warning -- explicit consideration of  20 degrees of freedom as
           vibrations may cause significant error
 Vibrational temperatures:     49.47    62.22    89.48   144.20   193.30
          (Kelvin)            206.12   240.81   278.42   318.64   340.02
                              374.46   376.20   433.96   464.51   510.99
                              631.84   651.66   682.61   776.01   885.90
                             1021.05  1039.49  1050.29  1061.68  1164.17
                             1256.83  1305.22  1312.18  1368.83  1408.67
                             1483.49  1553.86  1620.82  1635.81  1696.83
                             1706.55  1749.33  1757.77  1884.50  1890.21
                             1944.67  1971.47  2050.89  2053.84  2085.57
                             2148.22  2175.20  2180.29  2189.00  2195.42
                             2205.52  2220.69  2374.05  2440.85  2577.11
                             2594.74  4377.72  4394.31  4399.38  4426.87
                             4492.23  4496.36  4504.30  4535.59  4544.00
                             4578.72  4595.18  5122.34  5300.03

 Zero-point correction=                           0.208777 (Hartree/Particle)
 Thermal correction to Energy=                    0.222654
 Thermal correction to Enthalpy=                  0.223598
 Thermal correction to Gibbs Free Energy=         0.167570
 Sum of electronic and zero-point Energies=           -592.941648
 Sum of electronic and thermal Energies=              -592.927771
 Sum of electronic and thermal Enthalpies=            -592.926826
 Sum of electronic and thermal Free Energies=         -592.982855

                     E (Thermal)             CV                S
                      KCal/Mol        Cal/Mol-Kelvin    Cal/Mol-Kelvin
 Total                  139.718             49.071            117.922
 Electronic               0.000              0.000              0.000
 Translational            0.889              2.981             41.319
 Rotational               0.889              2.981             30.923
 Vibrational            137.940             43.109             45.680
 Vibration     1          0.594              1.983              5.559
 Vibration     2          0.595              1.980              5.105
 Vibration     3          0.597              1.972              4.386
 Vibration     4          0.604              1.949              3.450
 Vibration     5          0.613              1.919              2.883
 Vibration     6          0.616              1.910              2.760
 Vibration     7          0.624              1.883              2.465
 Vibration     8          0.635              1.849              2.194
 Vibration     9          0.648              1.808              1.947
 Vibration    10          0.655              1.785              1.830
 Vibration    11          0.668              1.745              1.660
 Vibration    12          0.669              1.743              1.652
 Vibration    13          0.694              1.671              1.408
 Vibration    14          0.708              1.630              1.296
 Vibration    15          0.731              1.565              1.143
 Vibration    16          0.799              1.385              0.829
 Vibration    17          0.811              1.354              0.787
 Vibration    18          0.831              1.307              0.725
 Vibration    19          0.894              1.163              0.567
 Vibration    20          0.975              0.999              0.423

 Optimization completed.
    -- Stationary point found.
 Normal termination of Gaussian 16 at Wed Dec  9 17:19:50 2020.

 ----------------------------------------------------------------------
 # B3LYP/6-311++G(d,p) empiricaldispersion=gd3bj scf=xqc pop=npa geom=c
 heck
 ----------------------------------------------------------------------

 ---------------------------------------
 CID_139808795_JID_2370_Energie_neutraal
 ---------------------------------------
 Structure from the checkpoint file:  "JID_2370.chk"
 Charge =  0 Multiplicity = 1

 SCF Done:  E(RB3LYP) =  -593.333633885     A.U. after   16 cycles
 Normal termination of Gaussian 16 at Wed Dec  9 17:21:59 2020.

 ----------------------------------------------------------------------
 # B3LYP/6-311++G(d,p) empiricaldispersion=gd3bj scf=xqc pop=npa geom=c
 heck
 ----------------------------------------------------------------------

 -------------------------------------
 CID_139808795_JID_2370_Energie_kation
 -------------------------------------
 Structure from the checkpoint file:  "JID_2370.chk"
 Charge =  1 Multiplicity = 2

 SCF Done:  E(UB3LYP) =  -592.991729477     A.U. after   32 cycles
 Normal termination of Gaussian 16 at Wed Dec  9 17:29:00 2020.
 Gaussian 16:  ES64L-G16RevA.03 25-Dec-2016

 ----------------------------------------------------------------------
 # B3LYP/6-311++G(d,p) empiricaldispersion=gd3bj scf=xqc pop=npa geom=c
 heck
 ----------------------------------------------------------------------

 ------------------------------------
 CID_139808795_JID_2370_Energie_anion
 ------------------------------------
 Structure from the checkpoint file:  "JID_2370.chk"
 Charge = -1 Multiplicity = 2

                         Standard orientation:
 ---------------------------------------------------------------------
 Center     Atomic      Atomic             Coordinates (Angstroms)
 Number     Number       Type             X           Y           Z
 ---------------------------------------------------------------------
      1          6           0       -3.002615    0.029212    1.107139
      2          6           0       -2.113960   -0.862506    0.225142
      3          6           0       -2.716048   -1.021892   -1.184645
      4          6           0       -0.686929   -0.343356    0.141127
      5          6           0        0.351896   -1.185306    0.278383
      6          6           0        1.797183   -0.916900    0.135258
      7          8           0        2.642373   -1.788308    0.193387
      8          8           0        2.097533    0.388991   -0.071003
      9          6           0        3.489622    0.668669   -0.279365
     10          6           0       -0.573181    1.129549   -0.185755
     11          8           0       -0.942023    1.568726   -1.265398
     12          7           0       -0.192713    1.930790    0.858154
     13          1           0       -3.126753    1.022437    0.663343
     14          1           0       -2.579299    0.155460    2.109209
     15          1           0       -3.995904   -0.420654    1.208851
     16          1           0       -2.059026   -1.857308    0.685527
     17          1           0       -2.751061   -0.058984   -1.699407
     18          1           0       -2.114747   -1.708730   -1.788829
     19          1           0       -3.732826   -1.424514   -1.110269
     20          1           0        0.153666   -2.236198    0.471916
     21          1           0        4.076795    0.371237    0.593397
     22          1           0        3.859808    0.130365   -1.155364
     23          1           0        3.549458    1.745666   -0.437808
     24          1           0        0.412036    1.530743    1.562240
     25          1           0       -0.002022    2.894863    0.610527
 ---------------------------------------------------------------------

 SCF Done:  E(UB3LYP) =  -593.336852202     A.U. after   33 cycles
 SCF Done:  E(UB3LYP) =  -593.336852202     a.u. after    1 cycles

 The electronic state is 2-A.
 Alpha  occ. eigenvalues --  -19.01157 -18.94971 -18.93140 -14.19184 -10.12976
 Alpha  occ. eigenvalues --  -10.11732 -10.09415 -10.05197 -10.04023 -10.03108
 Alpha  occ. eigenvalues --  -10.01481 -10.00643  -0.94808  -0.89950  -0.85310
 Alpha  occ. eigenvalues --   -0.76733  -0.68639  -0.62436  -0.58180  -0.56235
 Alpha  occ. eigenvalues --   -0.50606  -0.47116  -0.42592  -0.41623  -0.38593
 Alpha  occ. eigenvalues --   -0.36185  -0.34290  -0.34028  -0.32053  -0.31385
 Alpha  occ. eigenvalues --   -0.29515  -0.28805  -0.27584  -0.26638  -0.26309
 Alpha  occ. eigenvalues --   -0.25423  -0.24000  -0.22374  -0.22219  -0.21389
 Alpha  occ. eigenvalues --   -0.19872  -0.16185  -0.14365  -0.12841  -0.11672
 Alpha  occ. eigenvalues --   -0.10984   0.05348
 Alpha virt. eigenvalues --    0.07874   0.08512   0.09573   0.10581   0.11000
 Alpha virt. eigenvalues --    0.11618   0.12323   0.13067   0.13685   0.14144
 Alpha virt. eigenvalues --    0.14548   0.14864   0.15636   0.15980   0.16831

  Beta  occ. eigenvalues --  -19.01107 -18.94871 -18.92770 -14.19127 -10.12950
  Beta  occ. eigenvalues --  -10.11499 -10.09404 -10.05229 -10.03996 -10.03066
  Beta  occ. eigenvalues --  -10.00953 -10.00526  -0.94549  -0.89754  -0.84768
  Beta  occ. eigenvalues --   -0.76601  -0.68252  -0.61996  -0.57911  -0.56151
  Beta  occ. eigenvalues --   -0.49951  -0.46962  -0.42372  -0.41450  -0.38354
  Beta  occ. eigenvalues --   -0.35948  -0.33985  -0.33772  -0.31867  -0.31260
  Beta  occ. eigenvalues --   -0.29213  -0.28557  -0.27409  -0.26509  -0.26169
  Beta  occ. eigenvalues --   -0.24258  -0.23792  -0.22174  -0.22037  -0.21297
  Beta  occ. eigenvalues --   -0.19623  -0.15191  -0.13988  -0.11938  -0.11292
  Beta  occ. eigenvalues --   -0.09419
  Beta virt. eigenvalues --    0.08125   0.08464   0.09719   0.10613   0.10917
  Beta virt. eigenvalues --    0.11560   0.12210   0.12310   0.13136   0.13639
  Beta virt. eigenvalues --    0.14185   0.14656   0.14843   0.15579   0.16303

 Mulliken charges and spin densities:
               1          2
     1  C   -0.637475   0.000553
     2  C    0.191738  -0.082695
     3  C   -0.663110  -0.031203
     4  C    0.771405   0.179588
     5  C   -0.077879   0.071751
     6  C   -0.267288   0.225470
     7  O   -0.385771   0.115789
     8  O   -0.142460   0.029699
     9  C    0.029112  -0.262195
    10  C   -0.616459  -0.035702
    11  O   -0.321075   0.037951
    12  N   -0.200274   0.001238
    13  H    0.185100  -0.005491
    14  H    0.107192   0.011628
    15  H    0.119811   0.008951
    16  H    0.134364   0.008349
    17  H    0.173474   0.007761
    18  H    0.134187  -0.007647
    19  H    0.038087   0.058214
    20  H    0.153883  -0.009228
    21  H    0.092639   0.063708
    22  H    0.101828   0.056233
    23  H   -0.124250   0.251136
    24  H    0.222041   0.033262
    25  H   -0.018822   0.272878
 Sum of Mulliken charges =  -1.00000   1.00000

 Dipole moment (field-independent basis, Debye):
    X=             -2.3219    Y=              0.2693    Z=              1.7590  Tot=              2.9254
 Quadrupole moment (field-independent basis, Debye-Ang):
   XX=           -104.6745   YY=            -99.7441   ZZ=            -86.1530
   XY=              9.4751   XZ=             -3.3331   YZ=              3.2043

 Summary of Natural Population Analysis:

                                       Natural Population
                Natural  -----------------------------------------------
    Atom  No    Charge         Core      Valence    Rydberg      Total
 -----------------------------------------------------------------------
      C    1   -0.27954      0.99965     2.27527    0.00462     3.27954
      C    2   -0.12173      0.99959     2.11247    0.00967     3.12173
      C    3   -0.27737      0.99965     2.27299    0.00474     3.27737
      C    4    0.07309      0.99941     1.91411    0.01339     2.92691
      C    5   -0.14397      0.99943     2.13445    0.01008     3.14397
      C    6    0.41257      0.99965     1.56215    0.02563     2.58743
      O    7   -0.29390      0.99987     3.28886    0.00517     4.29390
      O    8   -0.28881      0.99986     3.27893    0.01002     4.28881
      C    9   -0.10444      0.99960     2.09508    0.00976     3.10444
      C   10    0.34394      0.99963     1.63039    0.02604     2.65606
      O   11   -0.31974      0.99987     3.31393    0.00594     4.31974
      N   12   -0.40123      0.99970     2.89306    0.00848     3.90123
      H   13    0.09991      0.00000     0.39925    0.00085     0.40009
      H   14    0.09842      0.00000     0.40083    0.00075     0.40158
      H   15    0.08951      0.00000     0.40966    0.00082     0.41049
      H   16    0.08965      0.00000     0.40837    0.00198     0.41035
      H   17    0.10866      0.00000     0.39043    0.00091     0.39134
      H   18    0.09866      0.00000     0.40065    0.00070     0.40134
      H   19    0.08586      0.00000     0.41320    0.00094     0.41414
      H   20    0.09292      0.00000     0.40580    0.00128     0.40708
      H   21    0.08554      0.00000     0.41339    0.00106     0.41446
      H   22    0.08772      0.00000     0.41128    0.00100     0.41228
      H   23    0.08539      0.00000     0.41353    0.00108     0.41461
      H   24    0.19326      0.00000     0.30468    0.00206     0.30674
      H   25    0.18565      0.00000     0.31066    0.00369     0.31435
 =======================================================================
   * Total *    0.00000     11.99593    33.85342    0.15065    46.00000

 Normal termination of Gaussian 16 at Wed Dec  9 17:35:29 2020.
