 Gaussian 16, Revision A.03,

 -----------------------------------------------------------
 # opt freq B3LYP/6-31G(d) empiricaldispersion=gd3bj scf=xqc
 -----------------------------------------------------------

 -------------------------------
 CID_115693410_JID_4545_neutraal
 -------------------------------
 Symbolic Z-matrix:
 Charge =  0 Multiplicity = 1

 SCF Done:  E(RB3LYP) =  -609.689093894     A.U. after   14 cycles
 SCF Done:  E(RB3LYP) =  -609.692335632     A.U. after   12 cycles
 SCF Done:  E(RB3LYP) =  -609.692739453     A.U. after   11 cycles
 SCF Done:  E(RB3LYP) =  -609.692981368     A.U. after   12 cycles
 SCF Done:  E(RB3LYP) =  -609.693143448     A.U. after   11 cycles
 SCF Done:  E(RB3LYP) =  -609.693375564     A.U. after   12 cycles
 SCF Done:  E(RB3LYP) =  -609.693506827     A.U. after   12 cycles
 SCF Done:  E(RB3LYP) =  -609.693573994     A.U. after   11 cycles
 SCF Done:  E(RB3LYP) =  -609.693586953     A.U. after   11 cycles
 SCF Done:  E(RB3LYP) =  -609.693591036     A.U. after   10 cycles
 SCF Done:  E(RB3LYP) =  -609.693592674     A.U. after    9 cycles
 SCF Done:  E(RB3LYP) =  -609.693592889     A.U. after    8 cycles
 SCF Done:  E(RB3LYP) =  -609.693593018     A.U. after    8 cycles
 Optimization completed.
    -- Stationary point found.
 Normal termination of Gaussian 16 at Thu Dec 10 10:03:35 2020.

 --------------------------------------------------------------------
 #N Geom=AllCheck Guess=TCheck SCRF=Check GenChk RB3LYP/6-31G(d) Freq
 --------------------------------------------------------------------

 Structure from the checkpoint file:  "JID_4545.chk"
 -------------------------------
 CID_115693410_JID_4545_neutraal
 -------------------------------
 Charge =  0 Multiplicity = 1

 SCF Done:  E(RB3LYP) =  -609.693593018     A.U. after    1 cycles

  Exact polarizability: 166.728  -3.087 119.778  -6.209   3.044  89.782
 Approx polarizability: 220.209  -1.223 187.383 -10.969  12.260 138.780

                      1                      2                      3
                      A                      A                      A
 Frequencies --     27.7308                37.8379                62.0761
 Red. masses --      3.3797                 4.1318                 3.6779
 Frc consts  --      0.0015                 0.0035                 0.0084
 IR Inten    --      0.7829                 1.0813                 2.7921

                      4                      5                      6
                      A                      A                      A
 Frequencies --     93.0802               113.5741               133.1755
 Red. masses --      3.1262                 1.1312                 2.5654
 Frc consts  --      0.0160                 0.0086                 0.0268
 IR Inten    --      0.5246                 0.0715                 2.1149

                      7                      8                      9
                      A                      A                      A
 Frequencies --    204.8724               215.2375               219.2010
 Red. masses --      3.4740                 3.3677                 3.1547
 Frc consts  --      0.0859                 0.0919                 0.0893
 IR Inten    --      0.8771                 3.2497                 1.6208

                     10                     11                     12
                      A                      A                      A
 Frequencies --    262.5922               270.9356               344.1286
 Red. masses --      2.2052                 2.8100                 2.8474
 Frc consts  --      0.0896                 0.1215                 0.1987
 IR Inten    --      0.1775                 0.4726                 0.7550

                     13                     14                     15
                      A                      A                      A
 Frequencies --    385.1262               431.9293               480.0708
 Red. masses --      2.9289                 3.1337                 2.6779
 Frc consts  --      0.2560                 0.3445                 0.3636
 IR Inten    --      1.2090                 9.6384                 2.5343

                     16                     17                     18
                      A                      A                      A
 Frequencies --    510.9502               576.1712               648.1289
 Red. masses --      4.9069                 2.5477                 4.2931
 Frc consts  --      0.7548                 0.4983                 1.0625
 IR Inten    --      1.2637                 5.3184                 1.5017

                     19                     20                     21
                      A                      A                      A
 Frequencies --    675.7164               686.8440               709.2981
 Red. masses --      3.6243                 2.2420                 9.0723
 Frc consts  --      0.9750                 0.6232                 2.6892
 IR Inten    --      5.4281                 3.9048                 1.0527

                     22                     23                     24
                      A                      A                      A
 Frequencies --    739.7140               780.3902               814.4294
 Red. masses --      1.5777                 2.1848                 1.6797
 Frc consts  --      0.5086                 0.7839                 0.6564
 IR Inten    --     10.4612                31.4269                34.1265

                     25                     26                     27
                      A                      A                      A
 Frequencies --    833.7456               847.3346               883.7916
 Red. masses --      2.3544                 1.2787                 2.3595
 Frc consts  --      0.9643                 0.5409                 1.0858
 IR Inten    --      0.4914                14.5215                 2.1726

                     28                     29                     30
                      A                      A                      A
 Frequencies --    921.9592               954.9594               982.5947
 Red. masses --      1.6665                 2.3273                 2.4398
 Frc consts  --      0.8346                 1.2504                 1.3879
 IR Inten    --      9.7445                 0.4141                 5.7963

                     31                     32                     33
                      A                      A                      A
 Frequencies --    990.2189              1000.0004              1025.7112
 Red. masses --      3.0552                 1.2480                 2.4930
 Frc consts  --      1.7650                 0.7353                 1.5453
 IR Inten    --      4.7054                 0.6042                21.4806

                     34                     35                     36
                      A                      A                      A
 Frequencies --   1030.4027              1068.3126              1082.7141
 Red. masses --      2.4216                 2.2111                 1.9064
 Frc consts  --      1.5148                 1.4868                 1.3167
 IR Inten    --     31.2908                 4.1078                 0.6308

                     37                     38                     39
                      A                      A                      A
 Frequencies --   1100.6448              1137.4887              1145.0858
 Red. masses --      2.1401                 1.8621                 1.8616
 Frc consts  --      1.5275                 1.4196                 1.4382
 IR Inten    --      3.4819                 0.4354                10.5623

                     40                     41                     42
                      A                      A                      A
 Frequencies --   1159.3487              1162.9978              1173.6939
 Red. masses --      1.3082                 3.5323                 1.2097
 Frc consts  --      1.0360                 2.8149                 0.9819
 IR Inten    --      0.1927                53.2114                 7.4812

                     43                     44                     45
                      A                      A                      A
 Frequencies --   1198.2887              1225.7858              1259.5511
 Red. masses --      2.7072                 1.2483                 1.3214
 Frc consts  --      2.2903                 1.1051                 1.2351
 IR Inten    --      0.6341                 3.8723                19.1985

                     46                     47                     48
                      A                      A                      A
 Frequencies --   1267.5031              1282.5993              1293.1528
 Red. masses --      1.2061                 2.5305                 1.2947
 Frc consts  --      1.1416                 2.4526                 1.2756
 IR Inten    --      2.3657                16.0156                 5.6909

                     49                     50                     51
                      A                      A                      A
 Frequencies --   1314.0487              1340.6698              1350.7236
 Red. masses --      4.4618                 1.3457                 3.2073
 Frc consts  --      4.5393                 1.4251                 3.4476
 IR Inten    --     33.2284                34.5862                10.7775

                     52                     53                     54
                      A                      A                      A
 Frequencies --   1364.2669              1388.3828              1395.7818
 Red. masses --      1.3187                 1.4372                 1.4861
 Frc consts  --      1.4461                 1.6322                 1.7059
 IR Inten    --      4.5381                 1.4693                 5.4729

                     55                     56                     57
                      A                      A                      A
 Frequencies --   1404.3553              1412.2493              1444.8797
 Red. masses --      1.6674                 1.7176                 1.5637
 Frc consts  --      1.9375                 2.0183                 1.9233
 IR Inten    --     18.1879                 0.6186                 4.1137

                     58                     59                     60
                      A                      A                      A
 Frequencies --   1464.3796              1505.6463              1506.0205
 Red. masses --      1.3189                 3.0210                 1.1017
 Frc consts  --      1.6664                 4.0350                 1.4722
 IR Inten    --      3.5812                17.6812                 0.8885

                     61                     62                     63
                      A                      A                      A
 Frequencies --   1513.0594              1521.0002              1524.7394
 Red. masses --      1.0655                 1.1057                 1.2157
 Frc consts  --      1.4372                 1.5071                 1.6652
 IR Inten    --     11.0647                 7.7107                23.6661

                     64                     65                     66
                      A                      A                      A
 Frequencies --   1528.6983              1529.8317              1541.8730
 Red. masses --      1.1076                 1.1424                 1.0877
 Frc consts  --      1.5250                 1.5752                 1.5236
 IR Inten    --     15.2336                 2.1450                10.5021

                     67                     68                     69
                      A                      A                      A
 Frequencies --   1606.3960              1745.3574              2871.9421
 Red. masses --      5.5658                 6.7407                 1.0795
 Frc consts  --      8.4622                12.0983                 5.2461
 IR Inten    --      4.7799                 3.5421                62.5699

                     70                     71                     72
                      A                      A                      A
 Frequencies --   2905.5621              3013.6806              3036.6873
 Red. masses --      1.0744                 1.0688                 1.0680
 Frc consts  --      5.3440                 5.7191                 5.8028
 IR Inten    --     78.3394                31.4268                17.6346

                     73                     74                     75
                      A                      A                      A
 Frequencies --   3045.1730              3053.4943              3057.3551
 Red. masses --      1.0717                 1.0716                 1.0894
 Frc consts  --      5.8552                 5.8868                 5.9996
 IR Inten    --     13.7466                25.1423                53.7620

                     76                     77                     78
                      A                      A                      A
 Frequencies --   3065.1341              3087.4919              3094.5023
 Red. masses --      1.0348                 1.0979                 1.1052
 Frc consts  --      5.7278                 6.1664                 6.2355
 IR Inten    --     32.3990                48.6185                42.6770

                     79                     80                     81
                      A                      A                      A
 Frequencies --   3126.9153              3139.7254              3170.6353
 Red. masses --      1.1062                 1.0853                 1.0951
 Frc consts  --      6.3724                 6.3037                 6.4863
 IR Inten    --     16.9527                14.4269                37.2894

                     82                     83                     84
                      A                      A                      A
 Frequencies --   3183.1217              3296.4507              3481.9535
 Red. masses --      1.1014                 1.0981                 1.0740
 Frc consts  --      6.5752                 7.0303                 7.6717
 IR Inten    --      2.2486                 1.2438                 0.3062

 - Thermochemistry -
 -------------------
 Temperature   298.150 Kelvin.  Pressure   1.00000 Atm.
 Atom     1 has atomic number  6 and mass  12.00000

 Molecular mass:   192.13750 amu.
 Principal axes and moments of inertia in atomic units:
                           1         2         3
     Eigenvalues --   923.368006640.302227117.26386
           X            0.99993  -0.00985  -0.00714
           Y            0.00978   0.99991  -0.00864
           Z            0.00723   0.00857   0.99994
 This molecule is an asymmetric top.
 Rotational symmetry number  1.
 Warning -- assumption of classical behavior for rotation
           may cause significant error
 Rotational temperatures (Kelvin)      0.09380     0.01304     0.01217
 Rotational constants (GHZ):           1.95452     0.27179     0.25357
 Zero-point vibrational energy     684762.1 (Joules/Mol)
                                  163.66207 (Kcal/Mol)
 Warning -- explicit consideration of  17 degrees of freedom as
           vibrations may cause significant error
 Vibrational temperatures:     39.90    54.44    89.31   133.92   163.41
          (Kelvin)            191.61   294.77   309.68   315.38   377.81
                              389.82   495.12   554.11   621.45   690.71
                              735.14   828.98   932.51   972.21   988.22
                             1020.52  1064.28  1122.81  1171.78  1199.57
                             1219.13  1271.58  1326.49  1373.97  1413.73
                             1424.70  1438.78  1475.77  1482.52  1537.06
                             1557.78  1583.58  1636.59  1647.52  1668.04
                             1673.29  1688.68  1724.07  1763.63  1812.21
                             1823.65  1845.37  1860.56  1890.62  1928.92
                             1943.39  1962.88  1997.57  2008.22  2020.55
                             2031.91  2078.86  2106.92  2166.29  2166.83
                             2176.96  2188.38  2193.76  2199.46  2201.09
                             2218.41  2311.25  2511.18  4132.08  4180.46
                             4336.01  4369.12  4381.32  4393.30  4398.85
                             4410.04  4442.21  4452.30  4498.93  4517.36
                             4561.84  4579.80  4742.86  5009.75

 Zero-point correction=                           0.260812 (Hartree/Particle)
 Thermal correction to Energy=                    0.274066
 Thermal correction to Enthalpy=                  0.275010
 Thermal correction to Gibbs Free Energy=         0.219139
 Sum of electronic and zero-point Energies=           -609.432781
 Sum of electronic and thermal Energies=              -609.419527
 Sum of electronic and thermal Enthalpies=            -609.418583
 Sum of electronic and thermal Free Energies=         -609.474454

                     E (Thermal)             CV                S
                      KCal/Mol        Cal/Mol-Kelvin    Cal/Mol-Kelvin
 Total                  171.979             49.582            117.590
 Electronic               0.000              0.000              0.000
 Translational            0.889              2.981             41.665
 Rotational               0.889              2.981             32.145
 Vibrational            170.202             43.620             43.780
 Vibration     1          0.593              1.984              5.985
 Vibration     2          0.594              1.982              5.369
 Vibration     3          0.597              1.972              4.390
 Vibration     4          0.602              1.954              3.594
 Vibration     5          0.607              1.938              3.207
 Vibration     6          0.613              1.920              2.900
 Vibration     7          0.640              1.833              2.089
 Vibration     8          0.645              1.818              1.999
 Vibration     9          0.647              1.812              1.966
 Vibration    10          0.670              1.741              1.644
 Vibration    11          0.675              1.727              1.590
 Vibration    12          0.723              1.587              1.193
 Vibration    13          0.754              1.502              1.019
 Vibration    14          0.793              1.401              0.852
 Vibration    15          0.836              1.294              0.710
 Vibration    16          0.866              1.226              0.631
 Vibration    17          0.933              1.083              0.493

                           ! Non-Optimized Parameters !
 Normal termination of Gaussian 16 at Thu Dec 10 10:11:57 2020.

 ----------------------------------------------------------------------
 # B3LYP/6-311++G(d,p) empiricaldispersion=gd3bj scf=xqc pop=npa geom=c
 heck
 ----------------------------------------------------------------------

 ---------------------------------------
 CID_115693410_JID_4545_Energie_neutraal
 ---------------------------------------
 Structure from the checkpoint file:  "JID_4545.chk"
 Charge =  0 Multiplicity = 1

 SCF Done:  E(RB3LYP) =  -609.860162010     A.U. after   14 cycles
 Normal termination of Gaussian 16 at Thu Dec 10 10:15:37 2020.

 ----------------------------------------------------------------------
 # B3LYP/6-311++G(d,p) empiricaldispersion=gd3bj scf=xqc pop=npa geom=c
 heck
 ----------------------------------------------------------------------

 -------------------------------------
 CID_115693410_JID_4545_Energie_kation
 -------------------------------------
 Structure from the checkpoint file:  "JID_4545.chk"
 Charge =  1 Multiplicity = 2

 SCF Done:  E(UB3LYP) =  -609.551042449     A.U. after   28 cycles
 Normal termination of Gaussian 16 at Thu Dec 10 10:26:30 2020.
 Gaussian 16:  ES64L-G16RevA.03 25-Dec-2016

 ----------------------------------------------------------------------
 # B3LYP/6-311++G(d,p) empiricaldispersion=gd3bj scf=xqc pop=npa geom=c
 heck
 ----------------------------------------------------------------------

 ------------------------------------
 CID_115693410_JID_4545_Energie_anion
 ------------------------------------
 Structure from the checkpoint file:  "JID_4545.chk"
 Charge = -1 Multiplicity = 2

                         Standard orientation:
 ---------------------------------------------------------------------
 Center     Atomic      Atomic             Coordinates (Angstroms)
 Number     Number       Type             X           Y           Z
 ---------------------------------------------------------------------
      1          6           0       -3.548437    1.796091    0.582523
      2          7           0       -3.242730    0.459266    0.115882
      3          6           0       -2.031959   -0.115430   -0.118815
      4          6           0       -2.353241   -1.385082   -0.554255
      5          7           0       -3.709652   -1.522184   -0.562516
      6          7           0       -4.253212   -0.407223   -0.160975
      7          6           0       -0.719616    0.570851    0.084560
      8          7           0        0.341318   -0.420385    0.207929
      9          6           0        1.664730    0.154723    0.487964
     10          6           0        2.235098    0.852969   -0.755738
     11          6           0        3.724073    1.165058   -0.573409
     12          6           0        4.536132   -0.123438   -0.388653
     13          6           0        3.855243   -1.079452    0.555984
     14          6           0        2.586549   -0.949813    0.949279
     15          1           0       -3.191929    2.548010   -0.128568
     16          1           0       -4.633220    1.861838    0.669405
     17          1           0       -3.090531    1.979032    1.559681
     18          1           0       -1.689744   -2.180774   -0.856490
     19          1           0       -0.499688    1.210412   -0.780271
     20          1           0       -0.779947    1.253753    0.957011
     21          1           0        0.090982   -1.061847    0.959187
     22          1           0        1.591362    0.908933    1.301424
     23          1           0        1.680892    1.775016   -0.966014
     24          1           0        2.089956    0.181569   -1.611318
     25          1           0        4.102376    1.733762   -1.430341
     26          1           0        3.853127    1.802960    0.311644
     27          1           0        4.683468   -0.620088   -1.360258
     28          1           0        5.544125    0.109238   -0.020044
     29          1           0        4.445141   -1.915857    0.927733
     30          1           0        2.162133   -1.671139    1.648341
 ---------------------------------------------------------------------

 SCF Done:  E(UB3LYP) =  -609.852977491     A.U. after   33 cycles
 SCF Done:  E(UB3LYP) =  -609.852977491     a.u. after    1 cycles

 The electronic state is 2-A.
 Alpha  occ. eigenvalues --  -14.30639 -14.26981 -14.23614 -14.21306 -10.12572
 Alpha  occ. eigenvalues --  -10.12101 -10.11861 -10.10980 -10.09526 -10.08166
 Alpha  occ. eigenvalues --  -10.08082 -10.07786 -10.07514 -10.06989  -0.99941
 Alpha  occ. eigenvalues --   -0.83226  -0.82038  -0.74147  -0.71396  -0.65501
 Alpha  occ. eigenvalues --   -0.64775  -0.64058  -0.59280  -0.53250  -0.52157
 Alpha  occ. eigenvalues --   -0.50300  -0.48678  -0.43977  -0.42292  -0.40681
 Alpha  occ. eigenvalues --   -0.40369  -0.38929  -0.37103  -0.35921  -0.35287
 Alpha  occ. eigenvalues --   -0.33058  -0.32813  -0.32196  -0.31751  -0.31252
 Alpha  occ. eigenvalues --   -0.29702  -0.29157  -0.28862  -0.24736  -0.23858
 Alpha  occ. eigenvalues --   -0.23357  -0.21869  -0.19353  -0.17849  -0.16676
 Alpha  occ. eigenvalues --   -0.16133  -0.14251   0.03880
 Alpha virt. eigenvalues --    0.05752   0.06911   0.07724   0.08025   0.08239
 Alpha virt. eigenvalues --    0.08888   0.09298   0.09561   0.09853   0.10703
 Alpha virt. eigenvalues --    0.10950   0.11315   0.11868   0.12666   0.12840

  Beta  occ. eigenvalues --  -14.30636 -14.26977 -14.23613 -14.21294 -10.12571
  Beta  occ. eigenvalues --  -10.12039 -10.11825 -10.10967 -10.09524 -10.08151
  Beta  occ. eigenvalues --  -10.08070 -10.07773 -10.07495 -10.06972  -0.99933
  Beta  occ. eigenvalues --   -0.83205  -0.82022  -0.74116  -0.71380  -0.65464
  Beta  occ. eigenvalues --   -0.64736  -0.63992  -0.59224  -0.53233  -0.52110
  Beta  occ. eigenvalues --   -0.50252  -0.48622  -0.43929  -0.42251  -0.40644
  Beta  occ. eigenvalues --   -0.40321  -0.38893  -0.37050  -0.35888  -0.35252
  Beta  occ. eigenvalues --   -0.33006  -0.32773  -0.32154  -0.31714  -0.31215
  Beta  occ. eigenvalues --   -0.29673  -0.29119  -0.28823  -0.24696  -0.23836
  Beta  occ. eigenvalues --   -0.23332  -0.21833  -0.19333  -0.17839  -0.16642
  Beta  occ. eigenvalues --   -0.16117  -0.14210
  Beta virt. eigenvalues --    0.06023   0.07014   0.07421   0.08161   0.08241
  Beta virt. eigenvalues --    0.08557   0.09366   0.09539   0.09926   0.10115
  Beta virt. eigenvalues --    0.10968   0.11425   0.11521   0.12205   0.12936

 Mulliken charges and spin densities:
               1          2
     1  C    1.332647  -1.625296
     2  N   -0.137069   0.273728
     3  C    0.826228  -1.046760
     4  C    0.353595  -0.599939
     5  N   -0.206834  -0.010038
     6  N    0.077921   0.019485
     7  C   -1.284750   0.574939
     8  N   -0.013161   0.113856
     9  C    0.701484  -1.020594
    10  C   -0.021198  -0.047406
    11  C   -0.728273   0.331756
    12  C    0.584829  -1.209485
    13  C    0.037510  -0.073223
    14  C   -0.579305   0.673195
    15  H   -0.590224   0.767316
    16  H    0.001352   0.174654
    17  H   -0.597559   0.786177
    18  H    0.156329   0.023411
    19  H    0.205084   0.020055
    20  H   -0.244044   0.411000
    21  H    0.200107  -0.000453
    22  H   -0.131098   0.272456
    23  H   -0.343637   0.490246
    24  H    0.107242   0.045517
    25  H   -0.185916   0.353932
    26  H   -0.057182   0.207361
    27  H    0.029279   0.108973
    28  H   -0.140241   0.288539
    29  H   -0.160902   0.328910
    30  H   -0.192217   0.367688
 Sum of Mulliken charges =  -1.00000   1.00000

 Dipole moment (field-independent basis, Debye):
    X=              2.2523    Y=             -3.6923    Z=             -1.3959  Tot=              4.5447
 Quadrupole moment (field-independent basis, Debye-Ang):
   XX=           -177.0901   YY=           -132.4708   ZZ=           -117.1080
   XY=             -1.4358   XZ=             -1.3782   YZ=             -4.0725

 Summary of Natural Population Analysis:

                                       Natural Population
                Natural  -----------------------------------------------
    Atom  No    Charge         Core      Valence    Rydberg      Total
 -----------------------------------------------------------------------
      C    1   -0.17851      0.99963     2.17055    0.00832     3.17851
      N    2   -0.10559      0.99962     2.59255    0.01342     3.60559
      C    3    0.07226      0.99952     1.91580    0.01242     2.92774
      C    4   -0.04756      0.99953     2.03533    0.01270     3.04756
      N    5   -0.14140      0.99976     2.62615    0.01549     3.64140
      N    6   -0.05147      0.99978     2.53530    0.01639     3.55147
      C    7   -0.10288      0.99959     2.09290    0.01039     3.10288
      N    8   -0.33144      0.99972     2.82088    0.01083     3.83144
      C    9   -0.02394      0.99957     2.01135    0.01302     3.02394
      C   10   -0.19375      0.99961     2.18403    0.01010     3.19375
      C   11   -0.18800      0.99963     2.18032    0.00805     3.18800
      C   12   -0.20694      0.99962     2.19877    0.00856     3.20694
      C   13   -0.08617      0.99953     2.07681    0.00983     3.08617
      C   14   -0.09350      0.99951     2.08277    0.01122     3.09350
      H   15    0.10421      0.00000     0.39352    0.00227     0.39579
      H   16    0.11003      0.00000     0.38826    0.00171     0.38997
      H   17    0.10644      0.00000     0.39064    0.00292     0.39356
      H   18    0.10636      0.00000     0.39236    0.00128     0.39364
      H   19    0.10574      0.00000     0.39245    0.00181     0.39426
      H   20    0.09408      0.00000     0.40263    0.00329     0.40592
      H   21    0.17209      0.00000     0.32451    0.00340     0.32791
      H   22    0.08797      0.00000     0.40922    0.00281     0.41203
      H   23    0.10310      0.00000     0.39545    0.00146     0.39690
      H   24    0.09867      0.00000     0.39983    0.00149     0.40133
      H   25    0.09968      0.00000     0.39925    0.00107     0.40032
      H   26    0.09682      0.00000     0.40175    0.00143     0.40318
      H   27    0.09985      0.00000     0.39902    0.00113     0.40015
      H   28    0.10216      0.00000     0.39667    0.00117     0.39784
      H   29    0.09600      0.00000     0.40304    0.00097     0.40400
      H   30    0.09569      0.00000     0.40318    0.00113     0.40431
 =======================================================================
   * Total *   -0.00000     13.99464    37.81529    0.19007    52.00000

 Normal termination of Gaussian 16 at Thu Dec 10 10:38:42 2020.
