 Gaussian 16, Revision A.03,

 -----------------------------------------------------------
 # opt freq B3LYP/6-31G(d) empiricaldispersion=gd3bj scf=xqc
 -----------------------------------------------------------

 -------------------------------
 CID_123999506_JID_2512_neutraal
 -------------------------------
 Symbolic Z-matrix:
 Charge =  0 Multiplicity = 1

 SCF Done:  E(RB3LYP) =  -468.092786025     A.U. after   14 cycles
 SCF Done:  E(RB3LYP) =  -468.095060451     A.U. after   12 cycles
 SCF Done:  E(RB3LYP) =  -468.095654022     A.U. after   12 cycles
 SCF Done:  E(RB3LYP) =  -468.096096687     A.U. after   12 cycles
 SCF Done:  E(RB3LYP) =  -468.096239288     A.U. after   11 cycles
 SCF Done:  E(RB3LYP) =  -468.096325550     A.U. after   10 cycles
 SCF Done:  E(RB3LYP) =  -468.096331718     A.U. after    9 cycles
 SCF Done:  E(RB3LYP) =  -468.096333057     A.U. after    9 cycles
 SCF Done:  E(RB3LYP) =  -468.096333550     A.U. after    8 cycles
 SCF Done:  E(RB3LYP) =  -468.096334009     A.U. after    8 cycles
 SCF Done:  E(RB3LYP) =  -468.096334196     A.U. after    7 cycles
 SCF Done:  E(RB3LYP) =  -468.096334434     A.U. after    7 cycles
 SCF Done:  E(RB3LYP) =  -468.096334566     A.U. after    7 cycles
 SCF Done:  E(RB3LYP) =  -468.096334599     A.U. after    7 cycles
 Optimization completed.
    -- Stationary point found.
 Normal termination of Gaussian 16 at Wed Dec  9 17:30:51 2020.

 --------------------------------------------------------------------
 #N Geom=AllCheck Guess=TCheck SCRF=Check GenChk RB3LYP/6-31G(d) Freq
 --------------------------------------------------------------------

 Structure from the checkpoint file:  "JID_2512.chk"
 -------------------------------
 CID_123999506_JID_2512_neutraal
 -------------------------------
 Charge =  0 Multiplicity = 1

 SCF Done:  E(RB3LYP) =  -468.096334599     A.U. after    1 cycles

  Exact polarizability: 218.101 -20.705 122.418   6.889   2.167  86.177
 Approx polarizability: 294.276 -41.917 184.435  16.065   5.450 127.106

                      1                      2                      3
                      A                      A                      A
 Frequencies --     34.2199                41.5267                55.4353
 Red. masses --      3.2762                 2.6095                 2.8650
 Frc consts  --      0.0023                 0.0027                 0.0052
 IR Inten    --      0.0342                 0.0918                 0.0060

                      4                      5                      6
                      A                      A                      A
 Frequencies --     71.6336                84.1118               120.4315
 Red. masses --      2.7654                 1.7066                 2.0224
 Frc consts  --      0.0084                 0.0071                 0.0173
 IR Inten    --      0.2138                 0.4572                 0.6645

                      7                      8                      9
                      A                      A                      A
 Frequencies --    129.5473               134.9813               207.2957
 Red. masses --      2.0478                 1.9618                 1.8007
 Frc consts  --      0.0202                 0.0211                 0.0456
 IR Inten    --      0.2333                 0.1777                 0.1923

                     10                     11                     12
                      A                      A                      A
 Frequencies --    219.8911               244.7136               275.8112
 Red. masses --      1.7205                 2.8163                 2.1252
 Frc consts  --      0.0490                 0.0994                 0.0953
 IR Inten    --      0.5339                 0.1132                 0.0870

                     13                     14                     15
                      A                      A                      A
 Frequencies --    299.2791               339.7119               405.8247
 Red. masses --      2.6261                 2.8434                 2.2584
 Frc consts  --      0.1386                 0.1933                 0.2191
 IR Inten    --      0.3534                 0.6923                 1.1963

                     16                     17                     18
                      A                      A                      A
 Frequencies --    417.7772               439.2027               477.7913
 Red. masses --      1.9754                 2.4078                 1.9460
 Frc consts  --      0.2031                 0.2737                 0.2617
 IR Inten    --      2.4749                 2.5514                 1.0443

                     19                     20                     21
                      A                      A                      A
 Frequencies --    501.9279               564.0735               580.3100
 Red. masses --      2.9981                 2.2887                 2.3286
 Frc consts  --      0.4450                 0.4290                 0.4620
 IR Inten    --      3.6905                 3.0473                 3.3132

                     22                     23                     24
                      A                      A                      A
 Frequencies --    665.2335               770.2168               799.6805
 Red. masses --      1.7418                 2.7562                 1.2177
 Frc consts  --      0.4541                 0.9634                 0.4588
 IR Inten    --      8.2496                 7.2106                 1.7184

                     25                     26                     27
                      A                      A                      A
 Frequencies --    819.3863               848.9222               898.8931
 Red. masses --      2.4734                 2.4770                 1.4901
 Frc consts  --      0.9784                 1.0518                 0.7094
 IR Inten    --      2.2363                 0.3646                 2.7368

                     28                     29                     30
                      A                      A                      A
 Frequencies --    927.6122               934.5198               937.6376
 Red. masses --      1.3902                 1.3311                 1.3648
 Frc consts  --      0.7048                 0.6849                 0.7070
 IR Inten    --     39.1254                18.4402                28.2983

                     31                     32                     33
                      A                      A                      A
 Frequencies --    947.3670               953.8902               970.2189
 Red. masses --      1.3605                 2.3153                 2.0042
 Frc consts  --      0.7194                 1.2412                 1.1115
 IR Inten    --      9.9294                 1.0134                 7.6556

                     34                     35                     36
                      A                      A                      A
 Frequencies --   1023.0866              1030.1313              1037.5599
 Red. masses --      1.7972                 1.1326                 1.1078
 Frc consts  --      1.1083                 0.7081                 0.7026
 IR Inten    --      1.9234                14.7890                10.2529

                     37                     38                     39
                      A                      A                      A
 Frequencies --   1057.0994              1099.0530              1103.2473
 Red. masses --      1.3436                 1.6199                 1.8059
 Frc consts  --      0.8846                 1.1529                 1.2951
 IR Inten    --      1.5134                 2.8934                19.3450

                     40                     41                     42
                      A                      A                      A
 Frequencies --   1113.7416              1126.0528              1162.1337
 Red. masses --      1.7927                 1.8320                 2.3157
 Frc consts  --      1.3102                 1.3687                 1.8426
 IR Inten    --      1.1461                 1.2063                 1.2278

                     43                     44                     45
                      A                      A                      A
 Frequencies --   1201.7452              1247.5632              1263.7382
 Red. masses --      2.3265                 1.8177                 1.4316
 Frc consts  --      1.9796                 1.6668                 1.3471
 IR Inten    --      1.5490                 0.9615                 4.7874

                     46                     47                     48
                      A                      A                      A
 Frequencies --   1298.9317              1324.8399              1342.0700
 Red. masses --      1.1844                 1.3281                 1.3369
 Frc consts  --      1.1774                 1.3735                 1.4187
 IR Inten    --      0.7146                13.5378                 4.1714

                     49                     50                     51
                      A                      A                      A
 Frequencies --   1350.7944              1371.8644              1373.2008
 Red. masses --      1.2552                 1.5710                 1.3356
 Frc consts  --      1.3495                 1.7420                 1.4839
 IR Inten    --      1.4220                13.7978                 0.8325

                     52                     53                     54
                      A                      A                      A
 Frequencies --   1430.9907              1438.7508              1447.5509
 Red. masses --      1.2664                 1.3247                 1.3598
 Frc consts  --      1.5279                 1.6156                 1.6788
 IR Inten    --      0.8433                 2.8120                 6.5417

                     55                     56                     57
                      A                      A                      A
 Frequencies --   1471.4606              1484.8355              1500.8685
 Red. masses --      1.1850                 1.3108                 1.1145
 Frc consts  --      1.5117                 1.7027                 1.4792
 IR Inten    --      1.6232                 8.6787                 3.5931

                     58                     59                     60
                      A                      A                      A
 Frequencies --   1504.6888              1517.5745              1519.7038
 Red. masses --      1.0634                 1.0600                 1.0747
 Frc consts  --      1.4185                 1.4384                 1.4624
 IR Inten    --      2.5029                 6.2826                10.0740

                     61                     62                     63
                      A                      A                      A
 Frequencies --   1532.3025              1538.9522              1663.5664
 Red. masses --      1.0481                 1.0649                 7.3353
 Frc consts  --      1.4499                 1.4860                11.9604
 IR Inten    --      5.9167                 1.2458                 2.0751

                     64                     65                     66
                      A                      A                      A
 Frequencies --   1699.4918              1722.3549              1732.5438
 Red. masses --      4.6037                 4.9947                 4.5217
 Frc consts  --      7.8342                 8.7298                 7.9969
 IR Inten    --     14.8622                 4.4620                12.2779

                     67                     68                     69
                      A                      A                      A
 Frequencies --   3013.0704              3018.7532              3035.7570
 Red. masses --      1.0675                 1.0611                 1.0416
 Frc consts  --      5.7102                 5.6972                 5.6558
 IR Inten    --     44.4101                31.3359                43.3533

                     70                     71                     72
                      A                      A                      A
 Frequencies --   3050.9364              3063.4570              3075.9478
 Red. masses --      1.0351                 1.1001                 1.0962
 Frc consts  --      5.6766                 6.0829                 6.1109
 IR Inten    --     40.3899                19.3557                17.1196

                     73                     74                     75
                      A                      A                      A
 Frequencies --   3078.5403              3118.9148              3123.4199
 Red. masses --      1.0973                 1.1028                 1.1024
 Frc consts  --      6.1270                 6.3205                 6.3367
 IR Inten    --     21.8166                45.2941                39.3102

                     76                     77                     78
                      A                      A                      A
 Frequencies --   3133.1742              3143.0944              3149.1837
 Red. masses --      1.0852                 1.0954                 1.0694
 Frc consts  --      6.2767                 6.3759                 6.2487
 IR Inten    --     31.0288                12.5203                20.8956

                     79                     80                     81
                      A                      A                      A
 Frequencies --   3158.2549              3161.4399              3170.2458
 Red. masses --      1.0809                 1.0862                 1.0688
 Frc consts  --      6.3523                 6.3963                 6.3287
 IR Inten    --      6.8725                16.6608                 4.0810

                     82                     83                     84
                      A                      A                      A
 Frequencies --   3175.4235              3235.2515              3253.0316
 Red. masses --      1.0800                 1.1153                 1.1162
 Frc consts  --      6.4162                 6.8782                 6.9596
 IR Inten    --     25.8131                21.4929                15.6558

 - Thermochemistry -
 -------------------
 Temperature   298.150 Kelvin.  Pressure   1.00000 Atm.
 Atom     1 has atomic number  6 and mass  12.00000

 Molecular mass:   162.14085 amu.
 Principal axes and moments of inertia in atomic units:
                           1         2         3
     Eigenvalues --   951.609674940.646215505.84354
           X            0.99999  -0.00074   0.00525
           Y            0.00074   1.00000   0.00094
           Z           -0.00525  -0.00094   0.99999
 This molecule is an asymmetric top.
 Rotational symmetry number  1.
 Warning -- assumption of classical behavior for rotation
           may cause significant error
 Rotational temperatures (Kelvin)      0.09102     0.01753     0.01573
 Rotational constants (GHZ):           1.89651     0.36528     0.32779
 Zero-point vibrational energy     699872.0 (Joules/Mol)
                                  167.27342 (Kcal/Mol)
 Warning -- explicit consideration of  21 degrees of freedom as
           vibrations may cause significant error
 Vibrational temperatures:     49.23    59.75    79.76   103.06   121.02
          (Kelvin)            173.27   186.39   194.21   298.25   316.37
                              352.09   396.83   430.60   488.77   583.89
                              601.09   631.91   687.44   722.16   811.58
                              834.94   957.12  1108.17  1150.56  1178.91
                             1221.41  1293.31  1334.63  1344.57  1349.05
                             1363.05  1372.44  1395.93  1471.99  1482.13
                             1492.82  1520.93  1581.29  1587.33  1602.43
                             1620.14  1672.05  1729.04  1794.97  1818.24
                             1868.87  1906.15  1930.94  1943.49  1973.81
                             1975.73  2058.88  2070.04  2082.70  2117.10
                             2136.35  2159.42  2164.91  2183.45  2186.51
                             2204.64  2214.21  2393.50  2445.19  2478.08
                             2492.74  4335.14  4343.31  4367.78  4389.62
                             4407.63  4425.60  4429.33  4487.42  4493.90
                             4507.94  4522.21  4530.97  4544.02  4548.61
                             4561.28  4568.73  4654.81  4680.39

 Zero-point correction=                           0.266567 (Hartree/Particle)
 Thermal correction to Energy=                    0.281217
 Thermal correction to Enthalpy=                  0.282162
 Thermal correction to Gibbs Free Energy=         0.223717
 Sum of electronic and zero-point Energies=           -467.829767
 Sum of electronic and thermal Energies=              -467.815117
 Sum of electronic and thermal Enthalpies=            -467.814173
 Sum of electronic and thermal Free Energies=         -467.872618

                     E (Thermal)             CV                S
                      KCal/Mol        Cal/Mol-Kelvin    Cal/Mol-Kelvin
 Total                  176.467             52.593            123.007
 Electronic               0.000              0.000              0.000
 Translational            0.889              2.981             41.159
 Rotational               0.889              2.981             31.626
 Vibrational            174.689             46.631             50.222
 Vibration     1          0.594              1.983              5.568
 Vibration     2          0.594              1.981              5.185
 Vibration     3          0.596              1.975              4.613
 Vibration     4          0.598              1.968              4.108
 Vibration     5          0.601              1.960              3.793
 Vibration     6          0.609              1.932              3.093
 Vibration     7          0.612              1.924              2.953
 Vibration     8          0.613              1.918              2.874
 Vibration     9          0.641              1.829              2.067
 Vibration    10          0.647              1.811              1.960
 Vibration    11          0.660              1.772              1.768
 Vibration    12          0.677              1.718              1.560
 Vibration    13          0.692              1.675              1.421
 Vibration    14          0.720              1.596              1.214
 Vibration    15          0.771              1.458              0.941
 Vibration    16          0.781              1.432              0.900
 Vibration    17          0.799              1.385              0.829
 Vibration    18          0.834              1.299              0.716
 Vibration    19          0.857              1.246              0.653
 Vibration    20          0.920              1.109              0.516
 Vibration    21          0.937              1.074              0.485

 Optimization completed.
    -- Stationary point found.
 Normal termination of Gaussian 16 at Wed Dec  9 17:37:42 2020.

 ----------------------------------------------------------------------
 # B3LYP/6-311++G(d,p) empiricaldispersion=gd3bj scf=xqc pop=npa geom=c
 heck
 ----------------------------------------------------------------------

 ---------------------------------------
 CID_123999506_JID_2512_Energie_neutraal
 ---------------------------------------
 Structure from the checkpoint file:  "JID_2512.chk"
 Charge =  0 Multiplicity = 1

 SCF Done:  E(RB3LYP) =  -468.227031052     A.U. after   14 cycles
 Normal termination of Gaussian 16 at Wed Dec  9 17:41:22 2020.

 ----------------------------------------------------------------------
 # B3LYP/6-311++G(d,p) empiricaldispersion=gd3bj scf=xqc pop=npa geom=c
 heck
 ----------------------------------------------------------------------

 -------------------------------------
 CID_123999506_JID_2512_Energie_kation
 -------------------------------------
 Structure from the checkpoint file:  "JID_2512.chk"
 Charge =  1 Multiplicity = 2

 SCF Done:  E(UB3LYP) =  -467.957179529     A.U. after   20 cycles
 Normal termination of Gaussian 16 at Wed Dec  9 17:49:48 2020.
 Gaussian 16:  ES64L-G16RevA.03 25-Dec-2016

 ----------------------------------------------------------------------
 # B3LYP/6-311++G(d,p) empiricaldispersion=gd3bj scf=xqc pop=npa geom=c
 heck
 ----------------------------------------------------------------------

 ------------------------------------
 CID_123999506_JID_2512_Energie_anion
 ------------------------------------
 Structure from the checkpoint file:  "JID_2512.chk"
 Charge = -1 Multiplicity = 2

                         Standard orientation:
 ---------------------------------------------------------------------
 Center     Atomic      Atomic             Coordinates (Angstroms)
 Number     Number       Type             X           Y           Z
 ---------------------------------------------------------------------
      1          6           0        4.350130    0.654745    0.879370
      2          6           0        3.586534    0.396724   -0.431505
      3          6           0        2.348195   -0.451038   -0.253679
      4          6           0        1.126074    0.081876   -0.475157
      5          6           0       -0.149692   -0.600403   -0.390557
      6          6           0       -1.382271   -0.036272   -0.439494
      7          6           0       -2.620851   -0.916061   -0.488089
      8          6           0       -3.539543   -0.688610    0.686044
      9          6           0       -4.806390   -0.285299    0.596695
     10          6           0       -1.656977    1.406814   -0.462469
     11          6           0       -0.995336    2.367178    0.197599
     12          6           0        2.588416   -1.866475    0.202914
     13          1           0        3.703591    1.151092    1.611705
     14          1           0        5.220343    1.296259    0.701879
     15          1           0        4.711162   -0.277245    1.327254
     16          1           0        3.309252    1.356991   -0.881690
     17          1           0        4.266913   -0.098748   -1.141051
     18          1           0        1.084216    1.127018   -0.773816
     19          1           0       -0.119498   -1.687083   -0.336001
     20          1           0       -3.177204   -0.719250   -1.416433
     21          1           0       -2.311773   -1.969154   -0.520275
     22          1           0       -3.095597   -0.858144    1.667368
     23          1           0       -5.422819   -0.129373    1.477716
     24          1           0       -5.276800   -0.096774   -0.366493
     25          1           0       -2.536478    1.696156   -1.040368
     26          1           0       -1.293802    3.408706    0.119194
     27          1           0       -0.159714    2.144384    0.853627
     28          1           0        3.363358   -2.343658   -0.411840
     29          1           0        2.953012   -1.891531    1.238494
     30          1           0        1.692102   -2.488714    0.160687
 ---------------------------------------------------------------------

 SCF Done:  E(UB3LYP) =  -468.222103679     A.U. after   30 cycles

 The electronic state is 2-A.
 Alpha  occ. eigenvalues --  -10.06327 -10.05313 -10.05155 -10.04581 -10.04505
 Alpha  occ. eigenvalues --  -10.04378 -10.03375 -10.03100 -10.02836 -10.02041
 Alpha  occ. eigenvalues --  -10.01936 -10.01842  -0.70223  -0.68687  -0.65510
 Alpha  occ. eigenvalues --   -0.62022  -0.60061  -0.57864  -0.53919  -0.50018
 Alpha  occ. eigenvalues --   -0.46584  -0.44512  -0.39964  -0.38441  -0.35880
 Alpha  occ. eigenvalues --   -0.34157  -0.33180  -0.32366  -0.31440  -0.30850
 Alpha  occ. eigenvalues --   -0.29359  -0.28486  -0.26779  -0.25675  -0.25404
 Alpha  occ. eigenvalues --   -0.24454  -0.23966  -0.23670  -0.21682  -0.21015
 Alpha  occ. eigenvalues --   -0.19184  -0.17535  -0.15169  -0.14030  -0.07369
 Alpha  occ. eigenvalues --    0.04843
 Alpha virt. eigenvalues --    0.07425   0.08038   0.08782   0.09630   0.09754
 Alpha virt. eigenvalues --    0.09939   0.10157   0.10838   0.11662   0.11980
 Alpha virt. eigenvalues --    0.12464   0.12693   0.12953   0.13435   0.14345

  Beta  occ. eigenvalues --  -10.06297 -10.05325 -10.05108 -10.04594 -10.04459
  Beta  occ. eigenvalues --  -10.04388 -10.03364 -10.02848 -10.02640 -10.02054
  Beta  occ. eigenvalues --  -10.01710 -10.01668  -0.69932  -0.68441  -0.65279
  Beta  occ. eigenvalues --   -0.61839  -0.59814  -0.57719  -0.53757  -0.49829
  Beta  occ. eigenvalues --   -0.46195  -0.44372  -0.39668  -0.38238  -0.35806
  Beta  occ. eigenvalues --   -0.34058  -0.33040  -0.32194  -0.31345  -0.30661
  Beta  occ. eigenvalues --   -0.29232  -0.28345  -0.26687  -0.25534  -0.25305
  Beta  occ. eigenvalues --   -0.24347  -0.23881  -0.23556  -0.21616  -0.20866
  Beta  occ. eigenvalues --   -0.18958  -0.16676  -0.14885  -0.13116  -0.06085
  Beta virt. eigenvalues --    0.07509   0.07997   0.08883   0.09037   0.09671
  Beta virt. eigenvalues --    0.09935   0.10068   0.10531   0.11297   0.11754
  Beta virt. eigenvalues --    0.12046   0.12641   0.12653   0.12822   0.13493

 Mulliken charges and spin densities:
               1          2
     1  C    0.392933  -1.038456
     2  C   -1.241469   0.886841
     3  C    1.208052   0.110969
     4  C   -0.193659  -0.658744
     5  C   -0.283055  -0.134396
     6  C    0.774896   0.064508
     7  C   -0.043593  -0.284328
     8  C   -0.249871   0.344619
     9  C   -0.349617  -0.172252
    10  C    0.052425   0.075366
    11  C   -0.847375   0.225352
    12  C   -0.658202  -0.062005
    13  H    0.096244   0.036821
    14  H   -0.432945   0.563183
    15  H   -0.000872   0.128879
    16  H   -0.060958   0.222529
    17  H   -0.091199   0.211275
    18  H    0.083538   0.028908
    19  H    0.043283  -0.059449
    20  H    0.043706   0.084956
    21  H   -0.001568   0.121402
    22  H    0.134294   0.012091
    23  H    0.093478  -0.001062
    24  H    0.015770   0.077634
    25  H    0.138722   0.002890
    26  H    0.052846   0.025605
    27  H    0.128638  -0.023232
    28  H   -0.028437   0.153189
    29  H    0.147783  -0.011043
    30  H    0.076212   0.067951
 Sum of Mulliken charges =  -1.00000   1.00000

 Dipole moment (field-independent basis, Debye):
    X=             -3.3591    Y=             -1.5246    Z=              1.1344  Tot=              3.8594
 Quadrupole moment (field-independent basis, Debye-Ang):
   XX=           -152.7833   YY=           -100.1252   ZZ=            -91.3274
   XY=             -5.7577   XZ=              1.2464   YZ=             -2.4896

 Summary of Natural Population Analysis:

                                       Natural Population
                Natural  -----------------------------------------------
    Atom  No    Charge         Core      Valence    Rydberg      Total
 -----------------------------------------------------------------------
      C    1   -0.28163      0.99966     2.27663    0.00534     3.28163
      C    2   -0.20004      0.99961     2.19091    0.00953     3.20004
      C    3    0.03625      0.99951     1.95436    0.00988     2.96375
      C    4   -0.12322      0.99946     2.11421    0.00955     3.12322
      C    5   -0.07274      0.99947     2.06476    0.00851     3.07274
      C    6    0.00100      0.99948     1.98752    0.01199     2.99900
      C    7   -0.21294      0.99959     2.20226    0.01110     3.21294
      C    8   -0.06569      0.99957     2.05436    0.01176     3.06569
      C    9   -0.20082      0.99956     2.19437    0.00689     3.20082
      C   10   -0.10510      0.99955     2.09565    0.00990     3.10510
      C   11   -0.14914      0.99959     2.14187    0.00769     3.14914
      C   12   -0.30240      0.99963     2.29726    0.00551     3.30240
      H   13    0.09562      0.00000     0.40349    0.00090     0.40438
      H   14    0.09558      0.00000     0.40257    0.00184     0.40442
      H   15    0.09232      0.00000     0.40680    0.00088     0.40768
      H   16    0.09730      0.00000     0.40164    0.00105     0.40270
      H   17    0.09445      0.00000     0.40377    0.00178     0.40555
      H   18    0.09854      0.00000     0.39939    0.00207     0.40146
      H   19    0.08402      0.00000     0.41440    0.00158     0.41598
      H   20    0.09688      0.00000     0.40143    0.00169     0.40312
      H   21    0.10234      0.00000     0.39659    0.00107     0.39766
      H   22    0.08967      0.00000     0.40931    0.00102     0.41033
      H   23    0.08759      0.00000     0.41137    0.00105     0.41241
      H   24    0.08615      0.00000     0.41245    0.00140     0.41385
      H   25    0.08741      0.00000     0.41106    0.00153     0.41259
      H   26    0.08241      0.00000     0.41630    0.00129     0.41759
      H   27    0.08933      0.00000     0.40950    0.00117     0.41067
      H   28    0.09782      0.00000     0.40110    0.00108     0.40218
      H   29    0.09844      0.00000     0.40060    0.00096     0.40156
      H   30    0.10059      0.00000     0.39867    0.00074     0.39941
 =======================================================================
   * Total *   -0.00000     11.99467    32.87461    0.13072    45.00000

 Normal termination of Gaussian 16 at Wed Dec  9 17:59:58 2020.
