 Gaussian 16, Revision A.03,

 -----------------------------------------------------------
 # opt freq B3LYP/6-31G(d) empiricaldispersion=gd3bj scf=xqc
 -----------------------------------------------------------

 -------------------------------
 CID_147733354_JID_7222_neutraal
 -------------------------------
 Symbolic Z-matrix:
 Charge =  0 Multiplicity = 1

 SCF Done:  E(RB3LYP) =  -727.814873161     A.U. after   16 cycles
 SCF Done:  E(RB3LYP) =  -727.850383663     A.U. after   14 cycles
 SCF Done:  E(RB3LYP) =  -727.859382304     A.U. after   13 cycles
 SCF Done:  E(RB3LYP) =  -727.866332053     A.U. after   14 cycles
 SCF Done:  E(RB3LYP) =  -727.867487931     A.U. after   13 cycles
 SCF Done:  E(RB3LYP) =  -727.867827449     A.U. after   13 cycles
 SCF Done:  E(RB3LYP) =  -727.867890198     A.U. after   11 cycles
 SCF Done:  E(RB3LYP) =  -727.867903800     A.U. after   10 cycles
 SCF Done:  E(RB3LYP) =  -727.867907621     A.U. after    9 cycles
 SCF Done:  E(RB3LYP) =  -727.867909045     A.U. after    8 cycles
 SCF Done:  E(RB3LYP) =  -727.867909737     A.U. after    7 cycles
 SCF Done:  E(RB3LYP) =  -727.867910436     A.U. after    8 cycles
 SCF Done:  E(RB3LYP) =  -727.867910536     A.U. after    7 cycles
 Optimization completed.
    -- Stationary point found.
 Normal termination of Gaussian 16 at Fri Dec 11 11:56:59 2020.

 --------------------------------------------------------------------
 #N Geom=AllCheck Guess=TCheck SCRF=Check GenChk RB3LYP/6-31G(d) Freq
 --------------------------------------------------------------------

 Structure from the checkpoint file:  "JID_7222.chk"
 -------------------------------
 CID_147733354_JID_7222_neutraal
 -------------------------------
 Charge =  0 Multiplicity = 1

 SCF Done:  E(RB3LYP) =  -727.867910536     A.U. after    1 cycles

  Exact polarizability: 246.395   5.764 163.880  -1.051  -3.201  99.597
 Approx polarizability: 356.912  22.159 266.411  -0.450 -12.553 156.898

                      1                      2                      3
                      A                      A                      A
 Frequencies --     33.7963                48.2569                75.3897
 Red. masses --      4.5020                 4.9618                 3.5569
 Frc consts  --      0.0030                 0.0068                 0.0119
 IR Inten    --      1.9370                 2.3949                 0.5470

                      4                      5                      6
                      A                      A                      A
 Frequencies --     89.2079               133.9779               143.9890
 Red. masses --      4.9891                 3.6893                 2.8516
 Frc consts  --      0.0234                 0.0390                 0.0348
 IR Inten    --      2.8632                 2.4943                 3.6356

                      7                      8                      9
                      A                      A                      A
 Frequencies --    167.1162               171.7552               191.4093
 Red. masses --      2.0805                 1.2170                 1.6051
 Frc consts  --      0.0342                 0.0212                 0.0346
 IR Inten    --      1.7421                 0.1171                 2.1821

                     10                     11                     12
                      A                      A                      A
 Frequencies --    201.9626               225.7872               235.9161
 Red. masses --      3.0819                 2.0495                 2.7606
 Frc consts  --      0.0741                 0.0616                 0.0905
 IR Inten    --      0.7582                 3.8026                 0.1725

                     13                     14                     15
                      A                      A                      A
 Frequencies --    245.4420               261.4776               322.4732
 Red. masses --      1.4084                 2.6837                 3.9433
 Frc consts  --      0.0500                 0.1081                 0.2416
 IR Inten    --      0.1293                 2.4054                 3.7903

                     16                     17                     18
                      A                      A                      A
 Frequencies --    346.4006               380.0998               392.7709
 Red. masses --      5.0959                 3.8686                 4.0403
 Frc consts  --      0.3603                 0.3293                 0.3672
 IR Inten    --      2.1306                 1.9179                 5.7967

                     19                     20                     21
                      A                      A                      A
 Frequencies --    420.2317               445.9331               465.1365
 Red. masses --      3.0534                 3.8889                 5.5198
 Frc consts  --      0.3177                 0.4556                 0.7036
 IR Inten    --      0.2063                 1.8857                 4.0645

                     22                     23                     24
                      A                      A                      A
 Frequencies --    493.7610               542.1866               571.1427
 Red. masses --      4.6146                 3.5455                 3.7597
 Frc consts  --      0.6629                 0.6141                 0.7226
 IR Inten    --      2.5342                 2.0370                 1.9299

                     25                     26                     27
                      A                      A                      A
 Frequencies --    594.6784               601.1829               627.9490
 Red. masses --      3.8414                 4.1109                 4.8641
 Frc consts  --      0.8004                 0.8754                 1.1301
 IR Inten    --      0.2638                 3.2009                 2.4305

                     28                     29                     30
                      A                      A                      A
 Frequencies --    664.5762               721.2316               742.2039
 Red. masses --      5.3989                 5.3943                 3.7182
 Frc consts  --      1.4049                 1.6532                 1.2068
 IR Inten    --      2.9681                 8.1946                 6.5867

                     31                     32                     33
                      A                      A                      A
 Frequencies --    782.2138               834.2000               845.9675
 Red. masses --      4.0760                 3.0830                 1.3997
 Frc consts  --      1.4694                 1.2640                 0.5902
 IR Inten    --     15.6687                 0.7013                 8.7380

                     34                     35                     36
                      A                      A                      A
 Frequencies --    867.6671               907.1588               918.4399
 Red. masses --      2.3723                 3.2497                 1.5294
 Frc consts  --      1.0523                 1.5757                 0.7601
 IR Inten    --      0.5942                 5.5526                14.7242

                     37                     38                     39
                      A                      A                      A
 Frequencies --    938.9025               989.0888              1024.3118
 Red. masses --      1.4882                 1.8845                 2.2027
 Frc consts  --      0.7729                 1.0862                 1.3617
 IR Inten    --      6.5298                 0.0972                 1.7309

                     40                     41                     42
                      A                      A                      A
 Frequencies --   1034.2544              1046.0383              1066.7775
 Red. masses --      1.6910                 4.4776                 2.8125
 Frc consts  --      1.0658                 2.8866                 1.8857
 IR Inten    --     15.8793                23.5550                 6.9470

                     43                     44                     45
                      A                      A                      A
 Frequencies --   1076.5435              1092.3376              1111.1767
 Red. masses --      1.5346                 1.9489                 1.9941
 Frc consts  --      1.0479                 1.3701                 1.4507
 IR Inten    --      4.1842                 7.9590                 4.4103

                     46                     47                     48
                      A                      A                      A
 Frequencies --   1118.2277              1125.8134              1186.8914
 Red. masses --      2.6978                 2.3306                 1.2923
 Frc consts  --      1.9875                 1.7404                 1.0726
 IR Inten    --     36.9587                10.8094                 2.4104

                     49                     50                     51
                      A                      A                      A
 Frequencies --   1188.5266              1198.5373              1212.8318
 Red. masses --      1.5361                 1.6401                 1.7089
 Frc consts  --      1.2785                 1.3881                 1.4810
 IR Inten    --     12.2251                 5.0944                10.8566

                     52                     53                     54
                      A                      A                      A
 Frequencies --   1237.4018              1274.1090              1293.8563
 Red. masses --      1.5775                 1.9908                 1.5820
 Frc consts  --      1.4231                 1.9041                 1.5604
 IR Inten    --      1.9527                24.8652                92.6131

                     55                     56                     57
                      A                      A                      A
 Frequencies --   1306.8631              1323.0290              1335.4725
 Red. masses --      3.5105                 1.5119                 1.3264
 Frc consts  --      3.5325                 1.5593                 1.3938
 IR Inten    --    250.1107                34.7302                 7.8678

                     58                     59                     60
                      A                      A                      A
 Frequencies --   1346.6544              1376.0408              1400.1690
 Red. masses --      1.4132                 1.6107                 1.7846
 Frc consts  --      1.5099                 1.7969                 2.0614
 IR Inten    --      3.6692                 7.3737                 0.4951

                     61                     62                     63
                      A                      A                      A
 Frequencies --   1411.4796              1425.9702              1433.4333
 Red. masses --      2.6918                 2.0674                 1.2419
 Frc consts  --      3.1597                 2.4769                 1.5035
 IR Inten    --     85.6258                25.7290                 3.6501

                     64                     65                     66
                      A                      A                      A
 Frequencies --   1444.2504              1494.8998              1501.0277
 Red. masses --      1.2828                 1.2510                 1.0943
 Frc consts  --      1.5766                 1.6471                 1.4526
 IR Inten    --      1.6561                 7.1063                 2.3737

                     67                     68                     69
                      A                      A                      A
 Frequencies --   1501.6702              1505.3591              1517.9466
 Red. masses --      1.0460                 1.0496                 1.0929
 Frc consts  --      1.3897                 1.4013                 1.4837
 IR Inten    --      6.6786                 5.3697                28.4121

                     70                     71                     72
                      A                      A                      A
 Frequencies --   1522.7385              1526.5814              1529.3354
 Red. masses --      1.0431                 1.0537                 1.0505
 Frc consts  --      1.4250                 1.4468                 1.4476
 IR Inten    --      6.6615                 9.4585                 1.8700

                     73                     74                     75
                      A                      A                      A
 Frequencies --   1628.4793              1656.8537              1708.6175
 Red. masses --      7.3031                 7.3723                 6.5334
 Frc consts  --     11.4110                11.9239                11.2377
 IR Inten    --      4.7586                20.4625                42.2652

                     76                     77                     78
                      A                      A                      A
 Frequencies --   1728.8515              2361.6239              2932.6515
 Red. masses --      8.1943                12.6628                 1.0800
 Frc consts  --     14.4304                41.6102                 5.4724
 IR Inten    --     90.7162                 7.7986                19.8211

                     79                     80                     81
                      A                      A                      A
 Frequencies --   2992.5673              3050.1283              3057.1783
 Red. masses --      1.0717                 1.0358                 1.0833
 Frc consts  --      5.6545                 5.6773                 5.9653
 IR Inten    --     26.0546                32.8505                 8.3648

                     82                     83                     84
                      A                      A                      A
 Frequencies --   3066.8170              3069.1879              3100.9637
 Red. masses --      1.0293                 1.0337                 1.0894
 Frc consts  --      5.7038                 5.7368                 6.1720
 IR Inten    --     37.8259                20.1082                10.6688

                     85                     86                     87
                      A                      A                      A
 Frequencies --   3103.6228              3132.5878              3137.1377
 Red. masses --      1.0998                 1.1034                 1.1066
 Frc consts  --      6.2417                 6.3795                 6.4165
 IR Inten    --     12.4467                18.4322                23.5647

                     88                     89                     90
                      A                      A                      A
 Frequencies --   3146.2283              3150.8337              3168.4860
 Red. masses --      1.1044                 1.1036                 1.0884
 Frc consts  --      6.4413                 6.4554                 6.4379
 IR Inten    --     22.2010                13.8198                14.7334

                     91                     92                     93
                      A                      A                      A
 Frequencies --   3170.7068              3171.6115              3183.9353
 Red. masses --      1.0903                 1.1070                 1.0924
 Frc consts  --      6.4580                 6.5609                 6.5249
 IR Inten    --     35.9259                28.7456                32.6014

 - Thermochemistry -
 -------------------
 Temperature   298.150 Kelvin.  Pressure   1.00000 Atm.
 Atom     1 has atomic number  6 and mass  12.00000

 Molecular mass:   228.12626 amu.
 Principal axes and moments of inertia in atomic units:
                           1         2         3
     Eigenvalues --  2021.769286991.139358281.20718
           X            0.99990   0.00596  -0.01281
           Y           -0.00571   0.99979   0.01963
           Z            0.01293  -0.01955   0.99973
 This molecule is an asymmetric top.
 Rotational symmetry number  1.
 Warning -- assumption of classical behavior for rotation
           may cause significant error
 Rotational temperatures (Kelvin)      0.04284     0.01239     0.01046
 Rotational constants (GHZ):           0.89265     0.25815     0.21793
 Zero-point vibrational energy     721053.4 (Joules/Mol)
                                  172.33589 (Kcal/Mol)
 Warning -- explicit consideration of  26 degrees of freedom as
           vibrations may cause significant error
 Vibrational temperatures:     48.63    69.43   108.47   128.35   192.76
          (Kelvin)            207.17   240.44   247.12   275.40   290.58
                              324.86   339.43   353.14   376.21   463.97
                              498.39   546.88   565.11   604.62   641.60
                              669.23   710.41   780.09   821.75   855.61
                              864.97   903.48   956.18  1037.69  1067.87
                             1125.43  1200.23  1217.16  1248.38  1305.20
                             1321.43  1350.87  1423.08  1473.76  1488.06
                             1505.02  1534.85  1548.91  1571.63  1598.74
                             1608.88  1619.79  1707.67  1710.02  1724.43
                             1744.99  1780.35  1833.16  1861.57  1880.28
                             1903.54  1921.45  1937.54  1979.82  2014.53
                             2030.80  2051.65  2062.39  2077.95  2150.83
                             2159.64  2160.57  2165.88  2183.99  2190.88
                             2196.41  2200.37  2343.02  2383.84  2458.32
                             2487.43  3397.85  4219.43  4305.64  4388.45
                             4398.60  4412.47  4415.88  4461.60  4465.42
                             4507.10  4513.64  4526.72  4533.35  4558.74
                             4561.94  4563.24  4580.97

 Zero-point correction=                           0.274635 (Hartree/Particle)
 Thermal correction to Energy=                    0.290942
 Thermal correction to Enthalpy=                  0.291887
 Thermal correction to Gibbs Free Energy=         0.230694
 Sum of electronic and zero-point Energies=           -727.593276
 Sum of electronic and thermal Energies=              -727.576968
 Sum of electronic and thermal Enthalpies=            -727.576024
 Sum of electronic and thermal Free Energies=         -727.637217

                     E (Thermal)             CV                S
                      KCal/Mol        Cal/Mol-Kelvin    Cal/Mol-Kelvin
 Total                  182.569             61.679            128.791
 Electronic               0.000              0.000              0.000
 Translational            0.889              2.981             42.176
 Rotational               0.889              2.981             33.126
 Vibrational            180.792             55.717             53.489
 Vibration     1          0.594              1.983              5.593
 Vibration     2          0.595              1.978              4.888
 Vibration     3          0.599              1.965              4.007
 Vibration     4          0.602              1.957              3.677
 Vibration     5          0.613              1.919              2.888
 Vibration     6          0.616              1.909              2.750
 Vibration     7          0.624              1.883              2.468
 Vibration     8          0.626              1.877              2.416
 Vibration     9          0.634              1.852              2.214
 Vibration    10          0.639              1.837              2.115
 Vibration    11          0.650              1.802              1.912
 Vibration    12          0.655              1.786              1.833
 Vibration    13          0.660              1.770              1.763
 Vibration    14          0.669              1.743              1.652
 Vibration    15          0.707              1.630              1.298
 Vibration    16          0.724              1.583              1.183
 Vibration    17          0.750              1.513              1.039
 Vibration    18          0.760              1.486              0.990
 Vibration    19          0.783              1.426              0.891
 Vibration    20          0.805              1.370              0.808
 Vibration    21          0.823              1.327              0.751
 Vibration    22          0.849              1.264              0.674
 Vibration    23          0.897              1.157              0.561
 Vibration    24          0.927              1.094              0.502
 Vibration    25          0.952              1.043              0.459
 Vibration    26          0.959              1.029              0.448

 Optimization completed.
    -- Stationary point found.
 Normal termination of Gaussian 16 at Fri Dec 11 12:09:19 2020.

 ----------------------------------------------------------------------
 # B3LYP/6-311++G(d,p) empiricaldispersion=gd3bj scf=xqc pop=npa geom=c
 heck
 ----------------------------------------------------------------------

 ---------------------------------------
 CID_147733354_JID_7222_Energie_neutraal
 ---------------------------------------
 Structure from the checkpoint file:  "JID_7222.chk"
 Charge =  0 Multiplicity = 1

 SCF Done:  E(RB3LYP) =  -728.061462152     A.U. after   16 cycles
 Normal termination of Gaussian 16 at Fri Dec 11 12:15:28 2020.

 ----------------------------------------------------------------------
 # B3LYP/6-311++G(d,p) empiricaldispersion=gd3bj scf=xqc pop=npa geom=c
 heck
 ----------------------------------------------------------------------

 -------------------------------------
 CID_147733354_JID_7222_Energie_kation
 -------------------------------------
 Structure from the checkpoint file:  "JID_7222.chk"
 Charge =  1 Multiplicity = 2

 SCF Done:  E(UB3LYP) =  -727.791165784     A.U. after   21 cycles
 Normal termination of Gaussian 16 at Fri Dec 11 12:26:37 2020.
 Gaussian 16:  ES64L-G16RevA.03 25-Dec-2016

 ----------------------------------------------------------------------
 # B3LYP/6-311++G(d,p) empiricaldispersion=gd3bj scf=xqc pop=npa geom=c
 heck
 ----------------------------------------------------------------------

 ------------------------------------
 CID_147733354_JID_7222_Energie_anion
 ------------------------------------
 Structure from the checkpoint file:  "JID_7222.chk"
 Charge = -1 Multiplicity = 2

                         Standard orientation:
 ---------------------------------------------------------------------
 Center     Atomic      Atomic             Coordinates (Angstroms)
 Number     Number       Type             X           Y           Z
 ---------------------------------------------------------------------
      1          6           0        4.345760   -1.169352   -0.075704
      2          6           0        2.879937   -0.852759   -0.108564
      3          6           0        1.907072   -1.794755   -0.138023
      4          6           0        0.515080   -1.431414   -0.156824
      5          6           0       -0.503497   -2.320718   -0.046232
      6          6           0       -1.883475   -1.872214   -0.042495
      7          6           0       -2.198358   -0.568514    0.108027
      8          6           0       -1.099892    0.453691    0.286532
      9          6           0        0.185744    0.030287   -0.425729
     10          7           0        1.239801    0.990691   -0.125195
     11          6           0        2.437824    0.555495   -0.034936
     12          8           0        3.468275    1.406315    0.189186
     13          6           0        3.126006    2.790146    0.295680
     14          6           0       -3.639052   -0.114694    0.237434
     15          6           0       -3.947556    0.472863    1.634702
     16          6           0       -3.959039    0.875760   -0.806198
     17          7           0       -4.188813    1.670296   -1.620875
     18          1           0        4.814374   -0.779230    0.834974
     19          1           0        4.869913   -0.701179   -0.917342
     20          1           0        4.509875   -2.250096   -0.120764
     21          1           0        2.169497   -2.850896   -0.110860
     22          1           0       -0.296073   -3.385269    0.036271
     23          1           0       -2.671381   -2.618729   -0.118504
     24          1           0       -0.884003    0.581809    1.360933
     25          1           0       -1.400876    1.437166   -0.087908
     26          1           0       -0.009892    0.101042   -1.512915
     27          1           0        2.640145    3.139514   -0.619917
     28          1           0        2.442515    2.955561    1.133737
     29          1           0        4.070379    3.311813    0.457873
     30          1           0       -4.292832   -0.979970    0.071206
     31          1           0       -3.327767    1.351192    1.834111
     32          1           0       -4.997708    0.770428    1.705312
     33          1           0       -3.738606   -0.283500    2.396774
 ---------------------------------------------------------------------

 SCF Done:  E(UB3LYP) =  -728.083826617     A.U. after   26 cycles

 The electronic state is 2-A.
 Alpha  occ. eigenvalues --  -19.02705 -14.19504 -14.13833 -10.11190 -10.10542
 Alpha  occ. eigenvalues --  -10.10486 -10.09490 -10.07213 -10.05978 -10.04182
 Alpha  occ. eigenvalues --  -10.03161 -10.02981 -10.02848 -10.02254 -10.02181
 Alpha  occ. eigenvalues --  -10.01759 -10.00954  -0.94934  -0.79481  -0.77554
 Alpha  occ. eigenvalues --   -0.71860  -0.67710  -0.66706  -0.61634  -0.60284
 Alpha  occ. eigenvalues --   -0.58619  -0.56306  -0.53849  -0.48822  -0.46931
 Alpha  occ. eigenvalues --   -0.44826  -0.40372  -0.39774  -0.37967  -0.37002
 Alpha  occ. eigenvalues --   -0.35181  -0.34720  -0.33200  -0.32137  -0.31002
 Alpha  occ. eigenvalues --   -0.30159  -0.29380  -0.28983  -0.28109  -0.27448
 Alpha  occ. eigenvalues --   -0.26769  -0.26353  -0.25148  -0.24702  -0.23867
 Alpha  occ. eigenvalues --   -0.23075  -0.22595  -0.21942  -0.21475  -0.20353
 Alpha  occ. eigenvalues --   -0.18684  -0.18626  -0.14790  -0.12601  -0.11196
 Alpha  occ. eigenvalues --   -0.06018   0.03275
 Alpha virt. eigenvalues --    0.07505   0.08150   0.08965   0.09503   0.10251
 Alpha virt. eigenvalues --    0.10835   0.11443   0.11607   0.12079   0.12415
 Alpha virt. eigenvalues --    0.12797   0.13292   0.13408   0.13841   0.14218

  Beta  occ. eigenvalues --  -19.02680 -14.19471 -14.13616 -10.11179 -10.10570
  Beta  occ. eigenvalues --  -10.10487 -10.09465 -10.07165 -10.05997 -10.04208
  Beta  occ. eigenvalues --  -10.03162 -10.02911 -10.02553 -10.02119 -10.01870
  Beta  occ. eigenvalues --  -10.01607 -10.00733  -0.94869  -0.79411  -0.77218
  Beta  occ. eigenvalues --   -0.71523  -0.67394  -0.66266  -0.61346  -0.60046
  Beta  occ. eigenvalues --   -0.58508  -0.56103  -0.53656  -0.48708  -0.46463
  Beta  occ. eigenvalues --   -0.44392  -0.40223  -0.39618  -0.37809  -0.36715
  Beta  occ. eigenvalues --   -0.35036  -0.34564  -0.32946  -0.31967  -0.30908
  Beta  occ. eigenvalues --   -0.29983  -0.29039  -0.28807  -0.28018  -0.27324
  Beta  occ. eigenvalues --   -0.26618  -0.26024  -0.25053  -0.24547  -0.23631
  Beta  occ. eigenvalues --   -0.22960  -0.22334  -0.21834  -0.21312  -0.20206
  Beta  occ. eigenvalues --   -0.18446  -0.17433  -0.13761  -0.11736  -0.10671
  Beta  occ. eigenvalues --   -0.04190
  Beta virt. eigenvalues --    0.07362   0.08113   0.08890   0.09021   0.09511
  Beta virt. eigenvalues --    0.10223   0.10890   0.11414   0.11581   0.12089
  Beta virt. eigenvalues --    0.12768   0.13078   0.13327   0.13464   0.13902

 Mulliken charges and spin densities:
               1          2
     1  C   -0.384958  -0.025902
     2  C    0.729232   0.202241
     3  C   -0.074444   0.072120
     4  C    0.176281   0.106617
     5  C   -0.394421   0.243499
     6  C   -0.616941   0.023576
     7  C    1.043099   0.231082
     8  C   -0.716711  -0.084619
     9  C   -0.669927  -0.003349
    10  N   -0.072053   0.107814
    11  C   -0.923852  -0.050904
    12  O   -0.130678   0.007065
    13  C   -0.252684  -0.005462
    14  C    0.598493   0.073103
    15  C   -0.579809  -0.080233
    16  C   -0.529747   0.021474
    17  N   -0.339391   0.011301
    18  H    0.134217   0.018379
    19  H    0.142411   0.010872
    20  H    0.121431  -0.001092
    21  H    0.069629  -0.004512
    22  H    0.078282  -0.010781
    23  H    0.102996   0.002047
    24  H    0.139283   0.009086
    25  H    0.187846   0.003259
    26  H    0.149645   0.045017
    27  H    0.159488   0.004650
    28  H    0.169101  -0.000591
    29  H    0.113339   0.000604
    30  H    0.171829   0.007434
    31  H    0.158996   0.016736
    32  H    0.092771   0.047233
    33  H    0.147248   0.002235
 Sum of Mulliken charges =  -1.00000   1.00000

 Dipole moment (field-independent basis, Debye):
    X=              1.0307    Y=             -0.3684    Z=              2.9988  Tot=              3.1923
 Quadrupole moment (field-independent basis, Debye-Ang):
   XX=           -150.3346   YY=           -119.9166   ZZ=           -116.8522
   XY=             13.2460   XZ=            -12.0848   YZ=              5.5246

 Summary of Natural Population Analysis:

                                       Natural Population
                Natural  -----------------------------------------------
    Atom  No    Charge         Core      Valence    Rydberg      Total
 -----------------------------------------------------------------------
      C    1   -0.29165      0.99965     2.28752    0.00447     3.29165
      C    2    0.00979      0.99947     1.98161    0.00913     2.99021
      C    3   -0.07177      0.99947     2.06345    0.00886     3.07177
      C    4    0.00573      0.99949     1.98589    0.00889     2.99427
      C    5   -0.07277      0.99950     2.06362    0.00966     3.07277
      C    6   -0.12380      0.99947     2.11633    0.00801     3.12380
      C    7    0.07034      0.99947     1.91811    0.01208     2.92966
      C    8   -0.20473      0.99958     2.19224    0.01290     3.20473
      C    9   -0.01912      0.99955     2.00515    0.01442     3.01912
      N   10   -0.25792      0.99963     2.74665    0.01164     3.75792
      C   11    0.28779      0.99946     1.69616    0.01660     2.71221
      O   12   -0.28056      0.99986     3.27209    0.00861     4.28056
      C   13   -0.10329      0.99961     2.09524    0.00844     3.10329
      C   14   -0.16911      0.99948     2.16068    0.00894     3.16911
      C   15   -0.26910      0.99965     2.26454    0.00491     3.26910
      C   16    0.16913      0.99965     1.80924    0.02199     2.83087
      N   17   -0.19806      0.99979     2.68653    0.01174     3.69806
      H   18    0.10093      0.00000     0.39780    0.00127     0.39907
      H   19    0.09965      0.00000     0.39905    0.00130     0.40035
      H   20    0.09235      0.00000     0.40674    0.00091     0.40765
      H   21    0.08587      0.00000     0.41242    0.00171     0.41413
      H   22    0.08537      0.00000     0.41266    0.00197     0.41463
      H   23    0.08786      0.00000     0.41090    0.00124     0.41214
      H   24    0.10001      0.00000     0.39829    0.00170     0.39999
      H   25    0.10377      0.00000     0.39430    0.00193     0.39623
      H   26    0.09412      0.00000     0.40347    0.00241     0.40588
      H   27    0.08888      0.00000     0.40984    0.00128     0.41112
      H   28    0.08853      0.00000     0.41022    0.00125     0.41147
      H   29    0.07961      0.00000     0.41957    0.00082     0.42039
      H   30    0.11354      0.00000     0.38446    0.00200     0.38646
      H   31    0.10238      0.00000     0.39677    0.00084     0.39762
      H   32    0.09486      0.00000     0.40373    0.00141     0.40514
      H   33    0.10135      0.00000     0.39791    0.00074     0.39865
 =======================================================================
   * Total *    0.00000     16.99277    43.80316    0.20407    61.00000

 Normal termination of Gaussian 16 at Fri Dec 11 12:41:34 2020.
