 Gaussian 16, Revision A.03,

 -----------------------------------------------------------
 # opt freq B3LYP/6-31G(d) empiricaldispersion=gd3bj scf=xqc
 -----------------------------------------------------------

 ------------------------------
 CID_80317720_JID_4825_neutraal
 ------------------------------
 Symbolic Z-matrix:
 Charge =  0 Multiplicity = 1

 SCF Done:  E(RB3LYP) =  -1002.07025984     A.U. after   15 cycles
 SCF Done:  E(RB3LYP) =  -1002.07390299     A.U. after   13 cycles
 SCF Done:  E(RB3LYP) =  -1002.07426954     A.U. after   13 cycles
 SCF Done:  E(RB3LYP) =  -1002.07420847     A.U. after   13 cycles
 SCF Done:  E(RB3LYP) =  -1002.07449682     A.U. after   12 cycles
 SCF Done:  E(RB3LYP) =  -1002.07473503     A.U. after   12 cycles
 SCF Done:  E(RB3LYP) =  -1002.07478847     A.U. after   12 cycles
 SCF Done:  E(RB3LYP) =  -1002.07482309     A.U. after   12 cycles
 SCF Done:  E(RB3LYP) =  -1002.07484097     A.U. after   11 cycles
 SCF Done:  E(RB3LYP) =  -1002.07485495     A.U. after   12 cycles
 SCF Done:  E(RB3LYP) =  -1002.07485852     A.U. after    9 cycles
 SCF Done:  E(RB3LYP) =  -1002.07485995     A.U. after    9 cycles
 SCF Done:  E(RB3LYP) =  -1002.07486075     A.U. after    9 cycles
 SCF Done:  E(RB3LYP) =  -1002.07486169     A.U. after   10 cycles
 SCF Done:  E(RB3LYP) =  -1002.07486209     A.U. after    9 cycles
 SCF Done:  E(RB3LYP) =  -1002.07486219     A.U. after    8 cycles
 Optimization completed.
    -- Stationary point found.
 Normal termination of Gaussian 16 at Thu Dec 10 10:37:41 2020.

 --------------------------------------------------------------------
 #N Geom=AllCheck Guess=TCheck SCRF=Check GenChk RB3LYP/6-31G(d) Freq
 --------------------------------------------------------------------

 Structure from the checkpoint file:  "JID_4825.chk"
 ------------------------------
 CID_80317720_JID_4825_neutraal
 ------------------------------
 Charge =  0 Multiplicity = 1

 SCF Done:  E(RB3LYP) =  -1002.07486219     A.U. after    1 cycles

  Exact polarizability: 152.802  -1.583 126.831  -2.387   8.427  87.444
 Approx polarizability: 220.511  -3.639 219.810  -6.888  27.003 159.783

                      1                      2                      3
                      A                      A                      A
 Frequencies --     19.1618                37.4835                43.8957
 Red. masses --      6.7622                 5.6205                 6.0692
 Frc consts  --      0.0015                 0.0047                 0.0069
 IR Inten    --      1.2608                13.6459                 0.9651

                      4                      5                      6
                      A                      A                      A
 Frequencies --    100.1725               123.5554               159.5744
 Red. masses --      5.9524                 1.0841                 7.1164
 Frc consts  --      0.0352                 0.0098                 0.1068
 IR Inten    --      3.2974                 0.4455                 3.5559

                      7                      8                      9
                      A                      A                      A
 Frequencies --    186.6709               228.1466               242.9929
 Red. masses --      4.4996                 4.1085                 3.3178
 Frc consts  --      0.0924                 0.1260                 0.1154
 IR Inten    --      2.2506                 2.2732                 2.2871

                     10                     11                     12
                      A                      A                      A
 Frequencies --    275.1814               315.3402               347.8686
 Red. masses --      3.9452                 4.3648                 3.3098
 Frc consts  --      0.1760                 0.2557                 0.2360
 IR Inten    --      0.6330                 0.3819                 3.5723

                     13                     14                     15
                      A                      A                      A
 Frequencies --    378.8307               483.3031               547.3288
 Red. masses --      3.1379                 6.6361                 5.3851
 Frc consts  --      0.2653                 0.9133                 0.9505
 IR Inten    --      0.6412                 3.2366                 1.4878

                     16                     17                     18
                      A                      A                      A
 Frequencies --    563.7776               633.4105               647.6755
 Red. masses --      6.6678                 4.3720                 4.6382
 Frc consts  --      1.2487                 1.0335                 1.1463
 IR Inten    --      2.6976                 1.0229                 2.5818

                     19                     20                     21
                      A                      A                      A
 Frequencies --    664.7466               702.4515               714.9571
 Red. masses --      5.9763                 4.9209                 8.8185
 Frc consts  --      1.5559                 1.4306                 2.6559
 IR Inten    --      0.1853                25.9745                 0.0918

                     22                     23                     24
                      A                      A                      A
 Frequencies --    753.2317               774.3884               797.4157
 Red. masses --      1.4727                 3.3506                 4.4459
 Frc consts  --      0.4923                 1.1838                 1.6656
 IR Inten    --     27.8471                32.9954                73.6134

                     25                     26                     27
                      A                      A                      A
 Frequencies --    840.7340               865.5868               941.9917
 Red. masses --      1.3898                 4.2054                 2.6068
 Frc consts  --      0.5788                 1.8564                 1.3629
 IR Inten    --     19.4223                 7.8809                12.0129

                     28                     29                     30
                      A                      A                      A
 Frequencies --    996.2261              1020.9999              1022.1774
 Red. masses --      5.9930                 1.7898                 2.0286
 Frc consts  --      3.5044                 1.0993                 1.2488
 IR Inten    --     13.5509                 0.1895                 7.0040

                     31                     32                     33
                      A                      A                      A
 Frequencies --   1042.4255              1060.6080              1079.7173
 Red. masses --      3.0012                 2.8895                 1.5068
 Frc consts  --      1.9214                 1.9150                 1.0349
 IR Inten    --      2.3992                64.2541                 3.2481

                     34                     35                     36
                      A                      A                      A
 Frequencies --   1121.6623              1147.6145              1184.0119
 Red. masses --      3.2175                 2.1373                 1.4654
 Frc consts  --      2.3851                 1.6585                 1.2104
 IR Inten    --      9.0613                63.8112                 9.8473

                     37                     38                     39
                      A                      A                      A
 Frequencies --   1222.6127              1314.2150              1321.2662
 Red. masses --      2.8765                 6.3407                 1.6164
 Frc consts  --      2.5334                 6.4524                 1.6626
 IR Inten    --     11.2947                27.7448                27.5389

                     40                     41                     42
                      A                      A                      A
 Frequencies --   1353.0623              1379.5295              1413.6565
 Red. masses --      3.9019                 1.7370                 5.9288
 Frc consts  --      4.2088                 1.9476                 6.9808
 IR Inten    --      9.3752                54.4476                 1.9080

                     43                     44                     45
                      A                      A                      A
 Frequencies --   1436.6631              1443.0680              1489.4696
 Red. masses --      1.3327                 1.2621                 1.6396
 Frc consts  --      1.6207                 1.5485                 2.1431
 IR Inten    --      2.5205                 0.7932                19.8704

                     46                     47                     48
                      A                      A                      A
 Frequencies --   1506.0580              1509.8835              1514.3831
 Red. masses --      1.0439                 1.3010                 1.8077
 Frc consts  --      1.3951                 1.7474                 2.4425
 IR Inten    --      6.9978                 6.6910                34.6112

                     49                     50                     51
                      A                      A                      A
 Frequencies --   1538.9137              1569.5557              1591.5448
 Red. masses --      4.8194                 4.9983                 4.9475
 Frc consts  --      6.7247                 7.2548                 7.3837
 IR Inten    --     21.1408                31.5864                34.9886

                     52                     53                     54
                      A                      A                      A
 Frequencies --   1814.9946              2900.7576              3057.4702
 Red. masses --      9.8877                 1.0832                 1.0367
 Frc consts  --     19.1909                 5.3699                 5.7100
 IR Inten    --    275.8913               117.7518                19.9908

                     55                     56                     57
                      A                      A                      A
 Frequencies --   3096.4785              3114.2428              3145.2643
 Red. masses --      1.0630                 1.1014                 1.1020
 Frc consts  --      6.0048                 6.2939                 6.4230
 IR Inten    --     10.3003                12.7647                12.8128

                     58                     59                     60
                      A                      A                      A
 Frequencies --   3163.8752              3277.9611              3304.1847
 Red. masses --      1.1031                 1.0948                 1.0994
 Frc consts  --      6.5060                 6.9311                 7.0719
 IR Inten    --      0.4314                 1.4631                 5.5734

 - Thermochemistry -
 -------------------
 Temperature   298.150 Kelvin.  Pressure   1.00000 Atm.
 Atom     1 has atomic number  6 and mass  12.00000

 Molecular mass:   208.04188 amu.
 Principal axes and moments of inertia in atomic units:
                           1         2         3
     Eigenvalues --  1485.549685707.119646477.10253
           X            0.99986  -0.01665   0.00215
           Y            0.01666   0.99984  -0.00654
           Z           -0.00204   0.00657   0.99998
 This molecule is an asymmetric top.
 Rotational symmetry number  1.
 Warning -- assumption of classical behavior for rotation
           may cause significant error
 Rotational temperatures (Kelvin)      0.05830     0.01518     0.01337
 Rotational constants (GHZ):           1.21486     0.31623     0.27863
 Zero-point vibrational energy     421949.4 (Joules/Mol)
                                  100.84832 (Kcal/Mol)
 Warning -- explicit consideration of  16 degrees of freedom as
           vibrations may cause significant error
 Vibrational temperatures:     27.57    53.93    63.16   144.13   177.77
          (Kelvin)            229.59   268.58   328.25   349.61   395.92
                              453.70   500.51   545.05   695.37   787.48
                              811.15   911.34   931.86   956.42  1010.67
                             1028.66  1083.73  1114.17  1147.30  1209.63
                             1245.39  1355.32  1433.35  1468.99  1470.69
                             1499.82  1525.98  1553.47  1613.82  1651.16
                             1703.53  1759.07  1890.86  1901.01  1946.75
                             1984.84  2033.94  2067.04  2076.25  2143.01
                             2166.88  2172.39  2178.86  2214.15  2258.24
                             2289.88  2611.37  4173.54  4399.02  4455.14
                             4480.70  4525.33  4552.11  4716.25  4753.98

 Zero-point correction=                           0.160712 (Hartree/Particle)
 Thermal correction to Energy=                    0.173375
 Thermal correction to Enthalpy=                  0.174320
 Thermal correction to Gibbs Free Energy=         0.118694
 Sum of electronic and zero-point Energies=          -1001.914150
 Sum of electronic and thermal Energies=             -1001.901487
 Sum of electronic and thermal Enthalpies=           -1001.900543
 Sum of electronic and thermal Free Energies=        -1001.956168

                     E (Thermal)             CV                S
                      KCal/Mol        Cal/Mol-Kelvin    Cal/Mol-Kelvin
 Total                  108.795             45.434            117.074
 Electronic               0.000              0.000              0.000
 Translational            0.889              2.981             41.902
 Rotational               0.889              2.981             32.374
 Vibrational            107.017             39.472             42.798
 Vibration     1          0.593              1.986              6.719
 Vibration     2          0.594              1.982              5.388
 Vibration     3          0.595              1.980              5.075
 Vibration     4          0.604              1.949              3.451
 Vibration     5          0.610              1.929              3.044
 Vibration     6          0.621              1.892              2.555
 Vibration     7          0.632              1.858              2.261
 Vibration     8          0.651              1.798              1.893
 Vibration     9          0.659              1.774              1.781
 Vibration    10          0.677              1.719              1.563
 Vibration    11          0.703              1.644              1.334
 Vibration    12          0.725              1.580              1.176
 Vibration    13          0.749              1.515              1.044
 Vibration    14          0.839              1.287              0.701
 Vibration    15          0.903              1.146              0.550
 Vibration    16          0.920              1.110              0.516

                           ! Non-Optimized Parameters !
 Normal termination of Gaussian 16 at Thu Dec 10 10:42:53 2020.

 ----------------------------------------------------------------------
 # B3LYP/6-311++G(d,p) empiricaldispersion=gd3bj scf=xqc pop=npa geom=c
 heck
 ----------------------------------------------------------------------

 --------------------------------------
 CID_80317720_JID_4825_Energie_neutraal
 --------------------------------------
 Structure from the checkpoint file:  "JID_4825.chk"
 Charge =  0 Multiplicity = 1

 SCF Done:  E(RB3LYP) =  -1002.26409886     A.U. after   16 cycles
 Normal termination of Gaussian 16 at Thu Dec 10 10:45:22 2020.

 ----------------------------------------------------------------------
 # B3LYP/6-311++G(d,p) empiricaldispersion=gd3bj scf=xqc pop=npa geom=c
 heck
 ----------------------------------------------------------------------

 ------------------------------------
 CID_80317720_JID_4825_Energie_kation
 ------------------------------------
 Structure from the checkpoint file:  "JID_4825.chk"
 Charge =  1 Multiplicity = 2

 SCF Done:  E(UB3LYP) =  -1001.93725944     A.U. after   30 cycles
 Normal termination of Gaussian 16 at Thu Dec 10 10:50:28 2020.
 Gaussian 16:  ES64L-G16RevA.03 25-Dec-2016

 ----------------------------------------------------------------------
 # B3LYP/6-311++G(d,p) empiricaldispersion=gd3bj scf=xqc pop=npa geom=c
 heck
 ----------------------------------------------------------------------

 -----------------------------------
 CID_80317720_JID_4825_Energie_anion
 -----------------------------------
 Structure from the checkpoint file:  "JID_4825.chk"
 Charge = -1 Multiplicity = 2

                         Standard orientation:
 ---------------------------------------------------------------------
 Center     Atomic      Atomic             Coordinates (Angstroms)
 Number     Number       Type             X           Y           Z
 ---------------------------------------------------------------------
      1          6           0       -3.468712    2.344238    0.271593
      2          6           0       -2.852608    1.001723    0.020856
      3          6           0       -3.209870    0.119374   -0.963545
      4         16           0       -2.238482   -1.312855   -0.887138
      5          6           0       -1.410324   -0.621868    0.489757
      6          7           0       -1.826146    0.563624    0.836479
      7          6           0       -0.252322   -1.302152    1.158973
      8          7           0        1.022962   -0.807120    0.647973
      9          6           0        1.477755    0.459398    0.582402
     10          6           0        2.732778    0.341816    0.006911
     11          7           0        2.967468   -0.988385   -0.246419
     12          7           0        1.943494   -1.680524    0.135453
     13          6           0        3.674263    1.424357   -0.299822
     14          8           0        4.766650    1.279993   -0.807602
     15          1           0       -3.892453    2.392715    1.280874
     16          1           0       -2.714829    3.135935    0.196191
     17          1           0       -4.263486    2.553885   -0.449038
     18          1           0       -3.985185    0.229785   -1.708650
     19          1           0       -0.305027   -1.115106    2.235260
     20          1           0       -0.243576   -2.378899    0.983494
     21          1           0        0.890313    1.299237    0.920372
     22          1           0        3.296548    2.433683   -0.020635
 ---------------------------------------------------------------------

 SCF Done:  E(UB3LYP) =  -1002.27707098     A.U. after   32 cycles

 The electronic state is 2-A.
 Alpha  occ. eigenvalues --  -88.75136 -18.96074 -14.27318 -14.24817 -14.21005
 Alpha  occ. eigenvalues --  -14.18116 -10.11194 -10.10309 -10.09530 -10.09154
 Alpha  occ. eigenvalues --  -10.08050 -10.07367 -10.07184 -10.06542  -7.83807
 Alpha  occ. eigenvalues --   -5.80084  -5.79739  -5.79431  -0.97251  -0.89580
 Alpha  occ. eigenvalues --   -0.84134  -0.79615  -0.68613  -0.67375  -0.67290
 Alpha  occ. eigenvalues --   -0.62695  -0.55967  -0.53904  -0.48854  -0.46443
 Alpha  occ. eigenvalues --   -0.45290  -0.42242  -0.39316  -0.37896  -0.35180
 Alpha  occ. eigenvalues --   -0.33484  -0.33205  -0.32792  -0.32179  -0.31287
 Alpha  occ. eigenvalues --   -0.28758  -0.28189  -0.27354  -0.26780  -0.25256
 Alpha  occ. eigenvalues --   -0.24226  -0.21826  -0.17538  -0.16543  -0.15599
 Alpha  occ. eigenvalues --   -0.15094  -0.13939  -0.12632  -0.11573   0.04185
 Alpha virt. eigenvalues --    0.06736   0.07063   0.08964   0.09129   0.10108
 Alpha virt. eigenvalues --    0.10445   0.11037   0.11850   0.12085   0.13316
 Alpha virt. eigenvalues --    0.13679   0.14479   0.14666   0.14758   0.14951

  Beta  occ. eigenvalues --  -88.75088 -18.95728 -14.27212 -14.24872 -14.20987
  Beta  occ. eigenvalues --  -14.17997 -10.11221 -10.10099 -10.09191 -10.09109
  Beta  occ. eigenvalues --  -10.07789 -10.07364 -10.07004 -10.06544  -7.83764
  Beta  occ. eigenvalues --   -5.80066  -5.79722  -5.79264  -0.97193  -0.88953
  Beta  occ. eigenvalues --   -0.83788  -0.79443  -0.68336  -0.67112  -0.67029
  Beta  occ. eigenvalues --   -0.62574  -0.55690  -0.53477  -0.48551  -0.46116
  Beta  occ. eigenvalues --   -0.44987  -0.41925  -0.39009  -0.37651  -0.34997
  Beta  occ. eigenvalues --   -0.33256  -0.32979  -0.32670  -0.31955  -0.31191
  Beta  occ. eigenvalues --   -0.28335  -0.27943  -0.27155  -0.26045  -0.24002
  Beta  occ. eigenvalues --   -0.23737  -0.21811  -0.17012  -0.15632  -0.15329
  Beta  occ. eigenvalues --   -0.14954  -0.13091  -0.11547  -0.11221
  Beta virt. eigenvalues --    0.07018   0.08643   0.09071   0.09231   0.09761
  Beta virt. eigenvalues --    0.10093   0.10627   0.11182   0.12021   0.12417
  Beta virt. eigenvalues --    0.13342   0.13717   0.14473   0.14666   0.14782

 Mulliken charges and spin densities:
               1          2
     1  C   -0.713320   0.002304
     2  C   -0.837844  -0.041867
     3  C    0.548070   0.135483
     4  S   -0.540722   0.107537
     5  C    0.476723   0.273849
     6  N    0.057354   0.068993
     7  C   -0.221942  -0.250843
     8  N    0.258026   0.018883
     9  C   -0.617048   0.255551
    10  C    0.401993  -0.020054
    11  N   -0.224447   0.009436
    12  N    0.060632  -0.021677
    13  C   -0.340341   0.161285
    14  O   -0.338865   0.109167
    15  H    0.147630  -0.002434
    16  H    0.142010   0.000897
    17  H    0.123537  -0.000392
    18  H    0.216072  -0.008613
    19  H    0.004950   0.198656
    20  H    0.164859   0.026190
    21  H    0.198343  -0.010035
    22  H    0.034330  -0.012314
 Sum of Mulliken charges =  -1.00000   1.00000

 Dipole moment (field-independent basis, Debye):
    X=             -8.7250    Y=              1.1853    Z=              1.4424  Tot=              8.9225
 Quadrupole moment (field-independent basis, Debye-Ang):
   XX=           -160.5820   YY=           -102.3231   ZZ=            -99.7000
   XY=             -4.0934   XZ=             11.8482   YZ=             -0.8483

 Summary of Natural Population Analysis:

                                       Natural Population
                Natural  -----------------------------------------------
    Atom  No    Charge         Core      Valence    Rydberg      Total
 -----------------------------------------------------------------------
      C    1   -0.29054      0.99963     2.28643    0.00449     3.29054
      C    2    0.04997      0.99951     1.93831    0.01221     2.95003
      C    3   -0.18768      0.99946     2.17925    0.00897     3.18768
      S    4    0.19588      4.99943     2.78429    0.02040     7.80412
      C    5    0.09204      0.99961     1.88879    0.01956     2.90796
      N    6   -0.24521      0.99963     2.73407    0.01152     3.74521
      C    7   -0.10811      0.99955     2.09469    0.01387     3.10811
      N    8   -0.09636      0.99965     2.58192    0.01479     3.59636
      C    9    0.04374      0.99951     1.94474    0.01201     2.95626
      C   10   -0.01956      0.99954     2.00774    0.01227     3.01956
      N   11   -0.11777      0.99973     2.60298    0.01507     3.61777
      N   12   -0.05864      0.99978     2.54396    0.01490     3.55864
      C   13    0.22104      0.99969     1.75898    0.02029     2.77896
      O   14   -0.24964      0.99988     3.24151    0.00825     4.24964
      H   15    0.10079      0.00000     0.39803    0.00118     0.39921
      H   16    0.10225      0.00000     0.39661    0.00114     0.39775
      H   17    0.09649      0.00000     0.40269    0.00082     0.40351
      H   18    0.10179      0.00000     0.39726    0.00094     0.39821
      H   19    0.11088      0.00000     0.38707    0.00205     0.38912
      H   20    0.11189      0.00000     0.38663    0.00148     0.38811
      H   21    0.11227      0.00000     0.38657    0.00116     0.38773
      H   22    0.03448      0.00000     0.46304    0.00249     0.46552
 =======================================================================
   * Total *    0.00000     17.99461    35.80555    0.19985    54.00000

 Normal termination of Gaussian 16 at Thu Dec 10 10:55:44 2020.
