 Gaussian 16, Revision A.03,

 -----------------------------------------------------------
 # opt freq B3LYP/6-31G(d) empiricaldispersion=gd3bj scf=xqc
 -----------------------------------------------------------

 -------------------------------
 CID_147599209_JID_5051_neutraal
 -------------------------------
 Symbolic Z-matrix:
 Charge =  0 Multiplicity = 1

 SCF Done:  E(RB3LYP) =  -704.826551832     A.U. after   14 cycles
 SCF Done:  E(RB3LYP) =  -704.834581864     A.U. after   12 cycles
 SCF Done:  E(RB3LYP) =  -704.836103654     A.U. after   13 cycles
 SCF Done:  E(RB3LYP) =  -704.840212283     A.U. after   12 cycles
 SCF Done:  E(RB3LYP) =  -704.841788007     A.U. after   13 cycles
 SCF Done:  E(RB3LYP) =  -704.842688743     A.U. after   13 cycles
 SCF Done:  E(RB3LYP) =  -704.843961222     A.U. after   12 cycles
 SCF Done:  E(RB3LYP) =  -704.845093500     A.U. after   13 cycles
 SCF Done:  E(RB3LYP) =  -704.846121704     A.U. after   12 cycles
 SCF Done:  E(RB3LYP) =  -704.846391324     A.U. after   12 cycles
 SCF Done:  E(RB3LYP) =  -704.848346195     A.U. after    9 cycles
 SCF Done:  E(RB3LYP) =  -704.848348331     A.U. after    9 cycles
 SCF Done:  E(RB3LYP) =  -704.848348793     A.U. after    8 cycles
 SCF Done:  E(RB3LYP) =  -704.848348987     A.U. after    7 cycles
 SCF Done:  E(RB3LYP) =  -704.848349097     A.U. after    7 cycles
 Optimization completed.
    -- Stationary point found.
 Normal termination of Gaussian 16 at Thu Dec 10 14:55:00 2020.

 --------------------------------------------------------------------
 #N Geom=AllCheck Guess=TCheck SCRF=Check GenChk RB3LYP/6-31G(d) Freq
 --------------------------------------------------------------------

 Structure from the checkpoint file:  "JID_5051.chk"
 -------------------------------
 CID_147599209_JID_5051_neutraal
 -------------------------------
 Charge =  0 Multiplicity = 1

 SCF Done:  E(RB3LYP) =  -704.848349097     A.U. after    1 cycles

  Exact polarizability: 186.916   1.388 149.781   0.822  -3.493  74.475
 Approx polarizability: 264.124   8.773 252.202   3.922 -10.324 110.318

                      1                      2                      3
                      A                      A                      A
 Frequencies --     53.8749                58.9251                76.1827
 Red. masses --      3.1997                 7.3225                 2.6092
 Frc consts  --      0.0055                 0.0150                 0.0089
 IR Inten    --      0.4708                 1.3101                 0.6777

                      4                      5                      6
                      A                      A                      A
 Frequencies --    112.5893               125.7350               151.4835
 Red. masses --      2.0687                 3.3598                 1.6073
 Frc consts  --      0.0155                 0.0313                 0.0217
 IR Inten    --      3.8100                 2.1917                 0.6042

                      7                      8                      9
                      A                      A                      A
 Frequencies --    167.4581               191.3881               202.2981
 Red. masses --      3.6351                 1.4887                 1.4807
 Frc consts  --      0.0601                 0.0321                 0.0357
 IR Inten    --      0.6022                 0.4487                 1.6900

                     10                     11                     12
                      A                      A                      A
 Frequencies --    218.4757               232.8211               239.6815
 Red. masses --      2.0524                 2.3037                 2.5564
 Frc consts  --      0.0577                 0.0736                 0.0865
 IR Inten    --      2.8314                 6.5327                 1.3602

                     13                     14                     15
                      A                      A                      A
 Frequencies --    272.5602               285.1137               295.0690
 Red. masses --      3.0591                 2.8918                 1.4461
 Frc consts  --      0.1339                 0.1385                 0.0742
 IR Inten    --      2.8029                 7.1601               171.6193

                     16                     17                     18
                      A                      A                      A
 Frequencies --    322.4987               356.6177               417.8510
 Red. masses --      2.9513                 2.9777                 3.3111
 Frc consts  --      0.1808                 0.2231                 0.3406
 IR Inten    --     15.5039                 0.8124                 4.7318

                     19                     20                     21
                      A                      A                      A
 Frequencies --    421.1368               459.2628               480.9559
 Red. masses --      5.6899                 4.4233                 1.4248
 Frc consts  --      0.5946                 0.5497                 0.1942
 IR Inten    --      7.9694                 1.8418               123.0496

                     22                     23                     24
                      A                      A                      A
 Frequencies --    538.5053               550.5910               558.5403
 Red. masses --      3.9657                 2.4605                 5.0243
 Frc consts  --      0.6776                 0.4395                 0.9235
 IR Inten    --     16.7259                16.9358                13.8994

                     25                     26                     27
                      A                      A                      A
 Frequencies --    623.8935               634.1868               645.1495
 Red. masses --      2.9566                 2.7807                 1.9873
 Frc consts  --      0.6781                 0.6589                 0.4874
 IR Inten    --      4.7033                21.7353                55.9664

                     28                     29                     30
                      A                      A                      A
 Frequencies --    657.4728               698.5427               765.0215
 Red. masses --      4.0121                 3.6541                 3.6564
 Frc consts  --      1.0218                 1.0505                 1.2608
 IR Inten    --     47.7600                49.0593                 8.7749

                     31                     32                     33
                      A                      A                      A
 Frequencies --    777.1699               816.5537               855.6027
 Red. masses --      6.5317                 1.5159                 1.4575
 Frc consts  --      2.3244                 0.5955                 0.6286
 IR Inten    --     47.9606                85.5459                 0.8042

                     34                     35                     36
                      A                      A                      A
 Frequencies --    877.4415               936.9810               974.0406
 Red. masses --      1.5673                 4.1036                 3.3141
 Frc consts  --      0.7110                 2.1226                 1.8525
 IR Inten    --     22.9771                14.3944                19.5727

                     37                     38                     39
                      A                      A                      A
 Frequencies --   1026.3793              1085.2296              1088.5407
 Red. masses --      3.3250                 1.8213                 1.5323
 Frc consts  --      2.0637                 1.2638                 1.0698
 IR Inten    --      7.2287                11.6487                 7.5316

                     40                     41                     42
                      A                      A                      A
 Frequencies --   1118.2576              1135.3996              1155.4798
 Red. masses --      3.4024                 1.2563                 1.5064
 Frc consts  --      2.5068                 0.9542                 1.1850
 IR Inten    --     95.0274                32.3533                 8.8984

                     43                     44                     45
                      A                      A                      A
 Frequencies --   1162.6415              1175.4526              1185.0903
 Red. masses --      1.6019                 2.1831                 1.4093
 Frc consts  --      1.2758                 1.7772                 1.1662
 IR Inten    --     85.2807               168.2418                11.5902

                     46                     47                     48
                      A                      A                      A
 Frequencies --   1194.8387              1204.1187              1254.3269
 Red. masses --      1.7227                 1.6589                 3.0848
 Frc consts  --      1.4490                 1.4171                 2.8595
 IR Inten    --     43.3872               187.6989                52.6261

                     49                     50                     51
                      A                      A                      A
 Frequencies --   1281.3167              1345.7672              1358.1944
 Red. masses --      1.6647                 2.4507                 3.8028
 Frc consts  --      1.6103                 2.6150                 4.1332
 IR Inten    --     10.1121                 5.5191                22.4314

                     52                     53                     54
                      A                      A                      A
 Frequencies --   1384.4274              1417.9688              1462.5667
 Red. masses --      3.5371                 4.0438                 2.4713
 Frc consts  --      3.9943                 4.7904                 3.1146
 IR Inten    --      1.6752               283.8630                41.7562

                     55                     56                     57
                      A                      A                      A
 Frequencies --   1469.5418              1478.4136              1492.8235
 Red. masses --      1.1468                 1.3230                 1.3052
 Frc consts  --      1.4591                 1.7038                 1.7137
 IR Inten    --      3.7883                14.0829                20.0658

                     58                     59                     60
                      A                      A                      A
 Frequencies --   1499.5096              1507.2434              1520.1558
 Red. masses --      1.5849                 1.0749                 1.1390
 Frc consts  --      2.0997                 1.4388                 1.5508
 IR Inten    --     38.8529                 5.6450                 5.2201

                     61                     62                     63
                      A                      A                      A
 Frequencies --   1526.8403              1529.9921              1545.1497
 Red. masses --      1.0634                 1.0827                 1.1444
 Frc consts  --      1.4606                 1.4932                 1.6098
 IR Inten    --      3.8916                 6.4806                 1.4123

                     64                     65                     66
                      A                      A                      A
 Frequencies --   1556.2147              1571.8051              1623.0913
 Red. masses --      1.0739                 1.8606                 2.3071
 Frc consts  --      1.5324                 2.7083                 3.5810
 IR Inten    --     20.5286                55.0822                 4.8793

                     67                     68                     69
                      A                      A                      A
 Frequencies --   1643.8622              1663.2120              1815.3100
 Red. masses --      2.6494                 2.7131                 9.5752
 Frc consts  --      4.2182                 4.4219                18.5908
 IR Inten    --    128.9883                93.9605               319.4076

                     70                     71                     72
                      A                      A                      A
 Frequencies --   2985.1563              3000.6976              3020.1923
 Red. masses --      1.0537                 1.0567                 1.0409
 Frc consts  --      5.5325                 5.6061                 5.5940
 IR Inten    --     75.9645                90.7067                96.8383

                     73                     74                     75
                      A                      A                      A
 Frequencies --   3060.6932              3065.4045              3108.6345
 Red. masses --      1.0814                 1.1005                 1.0832
 Frc consts  --      5.9688                 6.0930                 6.1671
 IR Inten    --     65.8670                33.2500                40.6788

                     76                     77                     78
                      A                      A                      A
 Frequencies --   3124.0330              3150.6034              3166.7152
 Red. masses --      1.0998                 1.0976                 1.0966
 Frc consts  --      6.3239                 6.4190                 6.4793
 IR Inten    --     25.5272                14.9369                18.7475

                     79                     80                     81
                      A                      A                      A
 Frequencies --   3207.7857              3222.1527              3527.9935
 Red. masses --      1.0902                 1.0905                 1.0742
 Frc consts  --      6.6098                 6.6708                 7.8777
 IR Inten    --      3.1523                 3.1481                 1.7879

                     82                     83                     84
                      A                      A                      A
 Frequencies --   3597.5993              3701.7198              3711.2951
 Red. masses --      1.0456                 1.0641                 1.1011
 Frc consts  --      7.9734                 8.5910                 8.9353
 IR Inten    --     23.9238                72.6524                25.7428

 - Thermochemistry -
 -------------------
 Temperature   298.150 Kelvin.  Pressure   1.00000 Atm.
 Atom     1 has atomic number  6 and mass  12.00000

 Molecular mass:   209.11643 amu.
 Principal axes and moments of inertia in atomic units:
                           1         2         3
     Eigenvalues --  1791.296284525.880835873.40030
           X            0.99992  -0.01183  -0.00353
           Y            0.01183   0.99993   0.00108
           Z            0.00352  -0.00113   0.99999
 This molecule is an asymmetric top.
 Rotational symmetry number  1.
 Warning -- assumption of classical behavior for rotation
           may cause significant error
 Rotational temperatures (Kelvin)      0.04835     0.01914     0.01475
 Rotational constants (GHZ):           1.00751     0.39876     0.30727
 Zero-point vibrational energy     659031.8 (Joules/Mol)
                                  157.51238 (Kcal/Mol)
 Warning -- explicit consideration of  24 degrees of freedom as
           vibrations may cause significant error
 Vibrational temperatures:     77.51    84.78   109.61   161.99   180.90
          (Kelvin)            217.95   240.93   275.36   291.06   314.34
                              334.98   344.85   392.15   410.22   424.54
                              464.00   513.09   601.19   605.92   660.78
                              691.99   774.79   792.18   803.61   897.64
                              912.45   928.23   945.96  1005.05  1100.70
                             1118.17  1174.84  1231.02  1262.44  1348.11
                             1401.43  1476.73  1561.40  1566.17  1608.92
                             1633.59  1662.48  1672.78  1691.21  1705.08
                             1719.11  1732.46  1804.70  1843.53  1936.26
                             1954.14  1991.88  2040.14  2104.31  2114.34
                             2127.11  2147.84  2157.46  2168.59  2187.17
                             2196.78  2201.32  2223.13  2239.05  2261.48
                             2335.27  2365.15  2392.99  2611.83  4294.97
                             4317.33  4345.38  4403.65  4410.43  4472.63
                             4494.79  4533.02  4556.20  4615.29  4635.96
                             5076.00  5176.14  5325.95  5339.73

 Zero-point correction=                           0.251012 (Hartree/Particle)
 Thermal correction to Energy=                    0.266804
 Thermal correction to Enthalpy=                  0.267748
 Thermal correction to Gibbs Free Energy=         0.208630
 Sum of electronic and zero-point Energies=           -704.597337
 Sum of electronic and thermal Energies=              -704.581545
 Sum of electronic and thermal Enthalpies=            -704.580601
 Sum of electronic and thermal Free Energies=         -704.639719

                     E (Thermal)             CV                S
                      KCal/Mol        Cal/Mol-Kelvin    Cal/Mol-Kelvin
 Total                  167.422             58.986            124.425
 Electronic               0.000              0.000              0.000
 Translational            0.889              2.981             41.917
 Rotational               0.889              2.981             32.232
 Vibrational            165.645             53.024             50.276
 Vibration     1          0.596              1.976              4.670
 Vibration     2          0.596              1.974              4.493
 Vibration     3          0.599              1.965              3.987
 Vibration     4          0.607              1.939              3.224
 Vibration     5          0.611              1.927              3.010
 Vibration     6          0.619              1.901              2.654
 Vibration     7          0.624              1.883              2.464
 Vibration     8          0.634              1.852              2.214
 Vibration     9          0.639              1.837              2.112
 Vibration    10          0.646              1.813              1.972
 Vibration    11          0.654              1.791              1.857
 Vibration    12          0.657              1.780              1.805
 Vibration    13          0.676              1.724              1.580
 Vibration    14          0.683              1.701              1.503
 Vibration    15          0.689              1.683              1.445
 Vibration    16          0.708              1.630              1.297
 Vibration    17          0.732              1.562              1.137
 Vibration    18          0.781              1.431              0.899
 Vibration    19          0.784              1.424              0.888
 Vibration    20          0.817              1.340              0.768
 Vibration    21          0.837              1.292              0.707
 Vibration    22          0.894              1.165              0.569
 Vibration    23          0.906              1.138              0.543
 Vibration    24          0.914              1.121              0.527

                           ! Non-Optimized Parameters !
 Normal termination of Gaussian 16 at Thu Dec 10 15:04:33 2020.

 ----------------------------------------------------------------------
 # B3LYP/6-311++G(d,p) empiricaldispersion=gd3bj scf=xqc pop=npa geom=c
 heck
 ----------------------------------------------------------------------

 ---------------------------------------
 CID_147599209_JID_5051_Energie_neutraal
 ---------------------------------------
 Structure from the checkpoint file:  "JID_5051.chk"
 Charge =  0 Multiplicity = 1

 SCF Done:  E(RB3LYP) =  -705.062743522     A.U. after   15 cycles
 Normal termination of Gaussian 16 at Thu Dec 10 15:09:32 2020.

 ----------------------------------------------------------------------
 # B3LYP/6-311++G(d,p) empiricaldispersion=gd3bj scf=xqc pop=npa geom=c
 heck
 ----------------------------------------------------------------------

 -------------------------------------
 CID_147599209_JID_5051_Energie_kation
 -------------------------------------
 Structure from the checkpoint file:  "JID_5051.chk"
 Charge =  1 Multiplicity = 2

 SCF Done:  E(UB3LYP) =  -704.794933169     A.U. after   25 cycles
 Normal termination of Gaussian 16 at Thu Dec 10 15:22:12 2020.
 Gaussian 16:  ES64L-G16RevA.03 25-Dec-2016

 ----------------------------------------------------------------------
 # B3LYP/6-311++G(d,p) empiricaldispersion=gd3bj scf=xqc pop=npa geom=c
 heck
 ----------------------------------------------------------------------

 ------------------------------------
 CID_147599209_JID_5051_Energie_anion
 ------------------------------------
 Structure from the checkpoint file:  "JID_5051.chk"
 Charge = -1 Multiplicity = 2

                         Standard orientation:
 ---------------------------------------------------------------------
 Center     Atomic      Atomic             Coordinates (Angstroms)
 Number     Number       Type             X           Y           Z
 ---------------------------------------------------------------------
      1          6           0       -2.011790    2.478060    0.833292
      2          7           0       -1.232847    2.084639   -0.344557
      3          6           0       -0.404935    0.940286   -0.205244
      4          6           0        0.982971    1.110601   -0.172223
      5          6           0        1.834760    0.013472   -0.041148
      6          6           0        1.311759   -1.277428    0.041199
      7          6           0       -0.072113   -1.472585   -0.024535
      8          6           0       -0.952192   -0.361280   -0.128031
      9          7           0       -2.339791   -0.666584   -0.202840
     10          6           0       -3.024927   -0.968650    1.046326
     11          6           0       -3.156606   -0.020036   -1.217057
     12          7           0       -0.590148   -2.757408   -0.076108
     13          6           0        3.291704    0.274334    0.007075
     14          8           0        3.813162    1.369608   -0.084365
     15          8           0        4.034427   -0.854430    0.170728
     16          1           0       -2.813679    1.761370    1.013626
     17          1           0       -2.474981    3.449384    0.635027
     18          1           0       -1.406500    2.554458    1.750869
     19          1           0       -0.652018    2.867266   -0.630511
     20          1           0        1.415163    2.105123   -0.218207
     21          1           0        1.975907   -2.132103    0.101982
     22          1           0       -2.374577   -1.570734    1.687789
     23          1           0       -3.325764   -0.076622    1.620996
     24          1           0       -3.933308   -1.546512    0.833505
     25          1           0       -3.532675    0.973388   -0.933237
     26          1           0       -2.569890    0.094090   -2.130625
     27          1           0       -4.017883   -0.665789   -1.432988
     28          1           0       -0.087029   -3.484943    0.408896
     29          1           0       -1.596247   -2.824035   -0.052301
     30          1           0        4.960490   -0.550931    0.180886
 ---------------------------------------------------------------------

 SCF Done:  E(UB3LYP) =  -705.057461672     A.U. after   33 cycles
 SCF Done:  E(UB3LYP) =  -705.057461672     a.u. after    1 cycles

 The electronic state is 2-A.
 Alpha  occ. eigenvalues --  -19.03621 -18.96397 -14.19805 -14.19742 -14.19515
 Alpha  occ. eigenvalues --  -10.14906 -10.08625 -10.08486 -10.08338 -10.07749
 Alpha  occ. eigenvalues --  -10.07480 -10.06493 -10.03972 -10.03149 -10.02792
 Alpha  occ. eigenvalues --   -0.97163  -0.87677  -0.83029  -0.80167  -0.78484
 Alpha  occ. eigenvalues --   -0.70431  -0.62923  -0.60621  -0.60225  -0.56067
 Alpha  occ. eigenvalues --   -0.54671  -0.49959  -0.48039  -0.44857  -0.41602
 Alpha  occ. eigenvalues --   -0.39790  -0.38726  -0.36115  -0.35258  -0.35085
 Alpha  occ. eigenvalues --   -0.34272  -0.33413  -0.32951  -0.31811  -0.31435
 Alpha  occ. eigenvalues --   -0.30384  -0.29589  -0.28367  -0.27500  -0.26695
 Alpha  occ. eigenvalues --   -0.26325  -0.25002  -0.24367  -0.23683  -0.19944
 Alpha  occ. eigenvalues --   -0.18830  -0.15516  -0.14555  -0.12155  -0.09198
 Alpha  occ. eigenvalues --   -0.07809   0.04726
 Alpha virt. eigenvalues --    0.06508   0.07325   0.08147   0.08728   0.09071
 Alpha virt. eigenvalues --    0.10326   0.10837   0.11028   0.12159   0.12519
 Alpha virt. eigenvalues --    0.13059   0.13175   0.14088   0.14532   0.15018

  Beta  occ. eigenvalues --  -19.03578 -18.96176 -14.19811 -14.19728 -14.19502
  Beta  occ. eigenvalues --  -10.14673 -10.08601 -10.08458 -10.08396 -10.07772
  Beta  occ. eigenvalues --  -10.07446 -10.06261 -10.03870 -10.03095 -10.02622
  Beta  occ. eigenvalues --   -0.96932  -0.87350  -0.82912  -0.80147  -0.78434
  Beta  occ. eigenvalues --   -0.70212  -0.62603  -0.60446  -0.60152  -0.55873
  Beta  occ. eigenvalues --   -0.54413  -0.49817  -0.47916  -0.44707  -0.41503
  Beta  occ. eigenvalues --   -0.39726  -0.38610  -0.35995  -0.35090  -0.34900
  Beta  occ. eigenvalues --   -0.34199  -0.33271  -0.32905  -0.31494  -0.30702
  Beta  occ. eigenvalues --   -0.30286  -0.29486  -0.28320  -0.27397  -0.26633
  Beta  occ. eigenvalues --   -0.26256  -0.24699  -0.24201  -0.23581  -0.19461
  Beta  occ. eigenvalues --   -0.18298  -0.14962  -0.14317  -0.11864  -0.08627
  Beta  occ. eigenvalues --   -0.07221
  Beta virt. eigenvalues --    0.06814   0.07801   0.08426   0.08839   0.09068
  Beta virt. eigenvalues --    0.09369   0.10496   0.11008   0.11190   0.12258
  Beta virt. eigenvalues --    0.12625   0.13163   0.13272   0.14194   0.14544

 Mulliken charges and spin densities:
               1          2
     1  C    0.180373  -0.549712
     2  N   -0.294130   0.181485
     3  C    0.237364  -0.175323
     4  C   -0.882608   0.147975
     5  C    0.875084  -0.345366
     6  C   -0.688683   0.150552
     7  C   -0.136207   0.134099
     8  C   -0.544319   0.387691
     9  N    0.016619  -0.013285
    10  C    0.232281  -0.544715
    11  C    0.336162  -0.606404
    12  N   -0.380358   0.015777
    13  C    0.305227   0.035660
    14  O   -0.405424   0.078165
    15  O   -0.226890   0.010994
    16  H   -0.040423   0.171096
    17  H   -0.167126   0.296945
    18  H   -0.013648   0.134372
    19  H    0.228289   0.026263
    20  H    0.119402   0.029496
    21  H    0.088579   0.059294
    22  H   -0.064597   0.212408
    23  H    0.053072   0.027656
    24  H    0.010827   0.131589
    25  H    0.006210   0.106744
    26  H    0.085455   0.079131
    27  H   -0.346360   0.470143
    28  H    0.008951   0.223580
    29  H    0.143637   0.119240
    30  H    0.263238   0.004452
 Sum of Mulliken charges =  -1.00000   1.00000

 Dipole moment (field-independent basis, Debye):
    X=             -0.0525    Y=             -0.6400    Z=              0.6867  Tot=              0.9402
 Quadrupole moment (field-independent basis, Debye-Ang):
   XX=           -145.0711   YY=           -121.3808   ZZ=           -109.7051
   XY=             -6.8154   XZ=             -3.3525   YZ=             -2.6166

 Summary of Natural Population Analysis:

                                       Natural Population
                Natural  -----------------------------------------------
    Atom  No    Charge         Core      Valence    Rydberg      Total
 -----------------------------------------------------------------------
      C    1   -0.17791      0.99964     2.16967    0.00860     3.17791
      N    2   -0.33091      0.99971     2.81960    0.01161     3.83091
      C    3    0.06842      0.99944     1.92228    0.00986     2.93158
      C    4   -0.10261      0.99950     2.09481    0.00830     3.10261
      C    5   -0.06029      0.99946     2.05020    0.01062     3.06029
      C    6   -0.08338      0.99950     2.07452    0.00936     3.08338
      C    7    0.07228      0.99947     1.91699    0.01126     2.92772
      C    8    0.09326      0.99939     1.89599    0.01136     2.90674
      N    9   -0.28483      0.99970     2.77213    0.01300     3.78483
      C   10   -0.17071      0.99963     2.16300    0.00809     3.17071
      C   11   -0.16909      0.99964     2.16108    0.00837     3.16909
      N   12   -0.40624      0.99971     2.89579    0.01075     3.90624
      C   13    0.42412      0.99965     1.55108    0.02514     2.57588
      O   14   -0.30852      0.99987     3.30288    0.00577     4.30852
      O   15   -0.35292      0.99988     3.34664    0.00641     4.35292
      H   16    0.09074      0.00000     0.40685    0.00241     0.40926
      H   17    0.09061      0.00000     0.40823    0.00116     0.40939
      H   18    0.08300      0.00000     0.41557    0.00142     0.41700
      H   19    0.17404      0.00000     0.32346    0.00250     0.32596
      H   20    0.10389      0.00000     0.39483    0.00128     0.39611
      H   21    0.10100      0.00000     0.39759    0.00141     0.39900
      H   22    0.09839      0.00000     0.40045    0.00116     0.40161
      H   23    0.07875      0.00000     0.41992    0.00133     0.42125
      H   24    0.08850      0.00000     0.41046    0.00104     0.41150
      H   25    0.08428      0.00000     0.41437    0.00135     0.41572
      H   26    0.10111      0.00000     0.39789    0.00100     0.39889
      H   27    0.08821      0.00000     0.41055    0.00124     0.41179
      H   28    0.18479      0.00000     0.31380    0.00142     0.31521
      H   29    0.19130      0.00000     0.30673    0.00197     0.30870
      H   30    0.23074      0.00000     0.26508    0.00419     0.26926
 =======================================================================
   * Total *    0.00000     14.99419    40.82244    0.18337    56.00000

 Normal termination of Gaussian 16 at Thu Dec 10 15:38:09 2020.
