 Gaussian 16, Revision A.03,

 -----------------------------------------------------------
 # opt freq B3LYP/6-31G(d) empiricaldispersion=gd3bj scf=xqc
 -----------------------------------------------------------

 -------------------------------
 CID_138568164_JID_7112_neutraal
 -------------------------------
 Symbolic Z-matrix:
 Charge =  0 Multiplicity = 1

 SCF Done:  E(RB3LYP) =  -1089.07818727     A.U. after   15 cycles
 SCF Done:  E(RB3LYP) =  -1089.09788924     A.U. after   13 cycles
 SCF Done:  E(RB3LYP) =  -1089.10316243     A.U. after   13 cycles
 SCF Done:  E(RB3LYP) =  -1089.10515020     A.U. after   12 cycles
 SCF Done:  E(RB3LYP) =  -1089.10574275     A.U. after   12 cycles
 SCF Done:  E(RB3LYP) =  -1089.10646106     A.U. after   12 cycles
 SCF Done:  E(RB3LYP) =  -1089.10717904     A.U. after   12 cycles
 SCF Done:  E(RB3LYP) =  -1089.10735122     A.U. after   13 cycles
 SCF Done:  E(RB3LYP) =  -1089.10752379     A.U. after   12 cycles
 SCF Done:  E(RB3LYP) =  -1089.10767701     A.U. after   11 cycles
 SCF Done:  E(RB3LYP) =  -1089.10770684     A.U. after   10 cycles
 SCF Done:  E(RB3LYP) =  -1089.10770798     A.U. after   10 cycles
 SCF Done:  E(RB3LYP) =  -1089.10770844     A.U. after    8 cycles
 SCF Done:  E(RB3LYP) =  -1089.10770918     A.U. after    7 cycles
 SCF Done:  E(RB3LYP) =  -1089.10770942     A.U. after    7 cycles
 Optimization completed.
    -- Stationary point found.
 Normal termination of Gaussian 16 at Mon Dec 14 16:51:37 2020.

 --------------------------------------------------------------------
 #N Geom=AllCheck Guess=TCheck SCRF=Check GenChk RB3LYP/6-31G(d) Freq
 --------------------------------------------------------------------

 Structure from the checkpoint file:  "JID_7112.chk"
 -------------------------------
 CID_138568164_JID_7112_neutraal
 -------------------------------
 Charge =  0 Multiplicity = 1

 SCF Done:  E(RB3LYP) =  -1089.10770942     A.U. after    1 cycles

  Exact polarizability: 166.127  -2.236 182.808  -2.692 -12.019 137.359
 Approx polarizability: 234.040   0.092 279.682  -6.646 -29.088 245.001

                      1                      2                      3
                      A                      A                      A
 Frequencies --     35.8963                61.9753                67.5068
 Red. masses --      4.2632                 3.2316                 3.5955
 Frc consts  --      0.0032                 0.0073                 0.0097
 IR Inten    --      0.7695                 0.2195                 0.2472

                      4                      5                      6
                      A                      A                      A
 Frequencies --     83.9374               108.7108               120.2105
 Red. masses --      3.4427                 3.1909                 1.5195
 Frc consts  --      0.0143                 0.0222                 0.0129
 IR Inten    --      0.0446                 0.5460                 0.3517

                      7                      8                      9
                      A                      A                      A
 Frequencies --    141.8118               179.9863               192.5780
 Red. masses --      2.9649                 6.9593                 1.2188
 Frc consts  --      0.0351                 0.1328                 0.0266
 IR Inten    --      1.0937                 6.0655                 0.6854

                     10                     11                     12
                      A                      A                      A
 Frequencies --    209.0835               235.5326               272.6291
 Red. masses --      5.7010                 2.8364                 2.8900
 Frc consts  --      0.1468                 0.0927                 0.1266
 IR Inten    --      2.0125                 0.3191                 4.8876

                     13                     14                     15
                      A                      A                      A
 Frequencies --    283.0954               304.7549               311.6921
 Red. masses --      1.6276                 2.4617                 3.3110
 Frc consts  --      0.0769                 0.1347                 0.1895
 IR Inten    --     15.9667                 4.3737                 7.4582

                     16                     17                     18
                      A                      A                      A
 Frequencies --    330.1864               347.3100               387.9018
 Red. masses --      1.7358                 2.5169                 2.8981
 Frc consts  --      0.1115                 0.1789                 0.2569
 IR Inten    --     37.4414                36.1359                12.5159

                     19                     20                     21
                      A                      A                      A
 Frequencies --    393.5875               410.1717               466.9785
 Red. masses --      2.5253                 2.4836                 2.7124
 Frc consts  --      0.2305                 0.2462                 0.3485
 IR Inten    --      7.2390                 1.5934                 7.7191

                     22                     23                     24
                      A                      A                      A
 Frequencies --    469.8258               486.9066               516.7004
 Red. masses --      2.5212                 3.5568                 2.9789
 Frc consts  --      0.3279                 0.4968                 0.4686
 IR Inten    --     14.2909                 0.8479                11.9890

                     25                     26                     27
                      A                      A                      A
 Frequencies --    585.2416               620.1199               639.7383
 Red. masses --      4.8289                 4.2696                 4.2141
 Frc consts  --      0.9745                 0.9674                 1.0162
 IR Inten    --      2.8206                12.4538                 6.9463

                     28                     29                     30
                      A                      A                      A
 Frequencies --    655.4164               668.8999               689.5715
 Red. masses --      4.1344                 5.3815                 3.8118
 Frc consts  --      1.0464                 1.4187                 1.0679
 IR Inten    --      6.4664                 2.6861                 6.7826

                     31                     32                     33
                      A                      A                      A
 Frequencies --    755.2119               776.7633               800.1815
 Red. masses --      2.7009                 3.1103                 1.4592
 Frc consts  --      0.9076                 1.1057                 0.5505
 IR Inten    --      9.5069                 2.2403                22.2050

                     34                     35                     36
                      A                      A                      A
 Frequencies --    821.8172               846.8976               864.3560
 Red. masses --      2.8137                 3.1971                 1.4728
 Frc consts  --      1.1196                 1.3510                 0.6483
 IR Inten    --     13.9321                 2.1993                19.7709

                     37                     38                     39
                      A                      A                      A
 Frequencies --    877.0595               891.4920               914.3200
 Red. masses --      1.3153                 1.4783                 1.5377
 Frc consts  --      0.5961                 0.6922                 0.7574
 IR Inten    --      1.1583                 9.5050                12.3209

                     40                     41                     42
                      A                      A                      A
 Frequencies --    930.8246               947.9574               962.4522
 Red. masses --      1.9741                 4.6678                 2.6400
 Frc consts  --      1.0077                 2.4714                 1.4408
 IR Inten    --     34.1106                 5.2667                15.2162

                     43                     44                     45
                      A                      A                      A
 Frequencies --    977.0787              1006.3333              1019.0120
 Red. masses --      1.4779                 2.0698                 3.3082
 Frc consts  --      0.8313                 1.2350                 2.0240
 IR Inten    --      0.5532                 8.5390                15.1305

                     46                     47                     48
                      A                      A                      A
 Frequencies --   1033.5738              1050.7948              1076.1173
 Red. masses --      1.2892                 2.0756                 1.5236
 Frc consts  --      0.8115                 1.3503                 1.0395
 IR Inten    --      9.7032                26.0438                16.5309

                     49                     50                     51
                      A                      A                      A
 Frequencies --   1098.0341              1106.5894              1118.7195
 Red. masses --      3.0532                 2.2984                 1.6732
 Frc consts  --      2.1689                 1.6582                 1.2338
 IR Inten    --     39.1844                11.7464                 0.8988

                     52                     53                     54
                      A                      A                      A
 Frequencies --   1133.4572              1163.0047              1203.1766
 Red. masses --      2.3562                 2.1590                 1.9344
 Frc consts  --      1.7835                 1.7205                 1.6499
 IR Inten    --     41.6617                 6.2118                27.8422

                     55                     56                     57
                      A                      A                      A
 Frequencies --   1224.1488              1235.6645              1254.8813
 Red. masses --      1.8132                 1.5796                 1.7476
 Frc consts  --      1.6009                 1.4210                 1.6214
 IR Inten    --      9.2172                 3.9796                19.0605

                     58                     59                     60
                      A                      A                      A
 Frequencies --   1276.6847              1291.7823              1320.6700
 Red. masses --      1.3899                 1.9709                 1.4060
 Frc consts  --      1.3347                 1.9377                 1.4448
 IR Inten    --      0.2040                18.4176                 7.9086

                     61                     62                     63
                      A                      A                      A
 Frequencies --   1335.6443              1351.2360              1370.7623
 Red. masses --      1.5773                 1.7032                 1.8682
 Frc consts  --      1.6579                 1.8322                 2.0682
 IR Inten    --     16.2269                27.8157                 9.2638

                     64                     65                     66
                      A                      A                      A
 Frequencies --   1381.4374              1399.7789              1408.3498
 Red. masses --      1.4974                 1.5000                 1.4414
 Frc consts  --      1.6836                 1.7316                 1.6844
 IR Inten    --      6.0011                 0.8118                 5.8384

                     67                     68                     69
                      A                      A                      A
 Frequencies --   1416.4285              1438.6077              1442.5230
 Red. masses --      1.4086                 1.3830                 1.8613
 Frc consts  --      1.6651                 1.6864                 2.2820
 IR Inten    --     32.0745                 3.6745                14.1033

                     70                     71                     72
                      A                      A                      A
 Frequencies --   1451.5648              1454.0339              1491.3519
 Red. masses --      1.2738                 1.1992                 2.7296
 Frc consts  --      1.5813                 1.4937                 3.5769
 IR Inten    --      0.0218                48.6125                 9.9593

                     73                     74                     75
                      A                      A                      A
 Frequencies --   1500.1259              1502.9652              1512.3840
 Red. masses --      1.2075                 1.0727                 1.0569
 Frc consts  --      1.6010                 1.4276                 1.4243
 IR Inten    --      1.0021                 2.1658                 2.8906

                     76                     77                     78
                      A                      A                      A
 Frequencies --   1518.2077              1522.8791              1531.9145
 Red. masses --      1.0931                 1.0757                 1.0687
 Frc consts  --      1.4845                 1.4699                 1.4777
 IR Inten    --      9.8778                 6.3996                10.5245

                     79                     80                     81
                      A                      A                      A
 Frequencies --   1578.5945              1700.1063              1747.9282
 Red. masses --      5.2703                 7.0610                 6.5145
 Frc consts  --      7.7379                12.0245                11.7268
 IR Inten    --      7.5312                14.7788                 7.2918

                     82                     83                     84
                      A                      A                      A
 Frequencies --   2658.9937              3009.5481              3028.6268
 Red. masses --      1.0373                 1.0823                 1.0399
 Frc consts  --      4.3212                 5.7759                 5.6201
 IR Inten    --     48.0712                22.1038                18.3793

                     85                     86                     87
                      A                      A                      A
 Frequencies --   3036.1208              3061.0955              3076.5240
 Red. masses --      1.0466                 1.0625                 1.0989
 Frc consts  --      5.6843                 5.8657                 6.1281
 IR Inten    --     41.2583                11.0515                 7.4954

                     88                     89                     90
                      A                      A                      A
 Frequencies --   3081.7459              3081.8539              3104.7958
 Red. masses --      1.0949                 1.0876                 1.0917
 Frc consts  --      6.1267                 6.0861                 6.2001
 IR Inten    --     58.0223                13.7096                 6.4104

                     91                     92                     93
                      A                      A                      A
 Frequencies --   3115.0007              3123.5815              3131.9396
 Red. masses --      1.0741                 1.0980                 1.0890
 Frc consts  --      6.1405                 6.3117                 6.2937
 IR Inten    --     21.7191                 7.4815                34.9661

                     94                     95                     96
                      A                      A                      A
 Frequencies --   3154.3148              3168.1173              3196.5470
 Red. masses --      1.0840                 1.1021                 1.0925
 Frc consts  --      6.3546                 6.5176                 6.5773
 IR Inten    --     14.1767                 4.9155                 3.0140

                     97                     98                     99
                      A                      A                      A
 Frequencies --   3253.0213              3273.0570              3741.0301
 Red. masses --      1.0923                 1.1013                 1.0661
 Frc consts  --      6.8103                 6.9513                 8.7912
 IR Inten    --      9.7278                 5.0995                10.2226

 - Thermochemistry -
 -------------------
 Temperature   298.150 Kelvin.  Pressure   1.00000 Atm.
 Atom     1 has atomic number  6 and mass  12.00000

 Molecular mass:   250.11399 amu.
 Principal axes and moments of inertia in atomic units:
                           1         2         3
     Eigenvalues --  3568.482204021.465396090.19328
           X            0.99795  -0.06394  -0.00012
           Y            0.06394   0.99794  -0.00592
           Z            0.00050   0.00590   0.99998
 This molecule is an asymmetric top.
 Rotational symmetry number  1.
 Warning -- assumption of classical behavior for rotation
           may cause significant error
 Rotational temperatures (Kelvin)      0.02427     0.02154     0.01422
 Rotational constants (GHZ):           0.50574     0.44878     0.29634
 Zero-point vibrational energy     769257.1 (Joules/Mol)
                                  183.85687 (Kcal/Mol)
 Warning -- explicit consideration of  26 degrees of freedom as
           vibrations may cause significant error
 Vibrational temperatures:     51.65    89.17    97.13   120.77   156.41
          (Kelvin)            172.96   204.04   258.96   277.08   300.82
                              338.88   392.25   407.31   438.47   448.46
                              475.06   499.70   558.10   566.28   590.15
                              671.88   675.97   700.55   743.42   842.03
                              892.21   920.44   943.00   962.40   992.14
                             1086.58  1117.59  1151.28  1182.41  1218.50
                             1243.62  1261.89  1282.66  1315.50  1339.25
                             1363.90  1384.75  1405.80  1447.89  1466.13
                             1487.08  1511.86  1548.29  1579.83  1592.14
                             1609.59  1630.79  1673.30  1731.10  1761.28
                             1777.85  1805.49  1836.86  1858.59  1900.15
                             1921.69  1944.13  1972.22  1987.58  2013.97
                             2026.30  2037.92  2069.84  2075.47  2088.48
                             2092.03  2145.72  2158.35  2162.43  2175.98
                             2184.36  2191.08  2204.08  2271.25  2446.07
                             2514.88  3825.70  4330.07  4357.52  4368.30
                             4404.23  4426.43  4433.94  4434.10  4467.11
                             4481.79  4494.14  4506.16  4538.36  4558.21
                             4599.12  4680.37  4709.20  5382.51

 Zero-point correction=                           0.292995 (Hartree/Particle)
 Thermal correction to Energy=                    0.309821
 Thermal correction to Enthalpy=                  0.310766
 Thermal correction to Gibbs Free Energy=         0.248831
 Sum of electronic and zero-point Energies=          -1088.814715
 Sum of electronic and thermal Energies=             -1088.797888
 Sum of electronic and thermal Enthalpies=           -1088.796944
 Sum of electronic and thermal Free Energies=        -1088.858879

                     E (Thermal)             CV                S
                      KCal/Mol        Cal/Mol-Kelvin    Cal/Mol-Kelvin
 Total                  194.416             65.159            130.353
 Electronic               0.000              0.000              0.000
 Translational            0.889              2.981             42.451
 Rotational               0.889              2.981             32.835
 Vibrational            192.638             59.197             55.067
 Vibration     1          0.594              1.982              5.474
 Vibration     2          0.597              1.972              4.393
 Vibration     3          0.598              1.970              4.225
 Vibration     4          0.601              1.960              3.797
 Vibration     5          0.606              1.942              3.292
 Vibration     6          0.609              1.932              3.097
 Vibration     7          0.615              1.911              2.779
 Vibration     8          0.629              1.867              2.329
 Vibration     9          0.635              1.850              2.203
 Vibration    10          0.642              1.827              2.052
 Vibration    11          0.655              1.786              1.836
 Vibration    12          0.676              1.724              1.579
 Vibration    13          0.682              1.705              1.515
 Vibration    14          0.696              1.665              1.391
 Vibration    15          0.700              1.651              1.353
 Vibration    16          0.713              1.615              1.259
 Vibration    17          0.725              1.581              1.178
 Vibration    18          0.756              1.496              1.008
 Vibration    19          0.761              1.484              0.987
 Vibration    20          0.774              1.448              0.926
 Vibration    21          0.824              1.323              0.746
 Vibration    22          0.827              1.317              0.738
 Vibration    23          0.843              1.279              0.692
 Vibration    24          0.872              1.213              0.618
 Vibration    25          0.942              1.063              0.476
 Vibration    26          0.980              0.989              0.416

                           ! Non-Optimized Parameters !
 Normal termination of Gaussian 16 at Mon Dec 14 17:08:44 2020.

 ----------------------------------------------------------------------
 # B3LYP/6-311++G(d,p) empiricaldispersion=gd3bj scf=xqc pop=npa geom=c
 heck
 ----------------------------------------------------------------------

 ---------------------------------------
 CID_138568164_JID_7112_Energie_neutraal
 ---------------------------------------
 Structure from the checkpoint file:  "JID_7112.chk"
 Charge =  0 Multiplicity = 1

 SCF Done:  E(RB3LYP) =  -1089.33176502     A.U. after   17 cycles
 Normal termination of Gaussian 16 at Mon Dec 14 17:18:07 2020.

 ----------------------------------------------------------------------
 # B3LYP/6-311++G(d,p) empiricaldispersion=gd3bj scf=xqc pop=npa geom=c
 heck
 ----------------------------------------------------------------------

 -------------------------------------
 CID_138568164_JID_7112_Energie_kation
 -------------------------------------
 Structure from the checkpoint file:  "JID_7112.chk"
 Charge =  1 Multiplicity = 2

 SCF Done:  E(UB3LYP) =  -1089.04819670     A.U. after   25 cycles
 Normal termination of Gaussian 16 at Mon Dec 14 17:37:39 2020.
 Gaussian 16:  ES64L-G16RevA.03 25-Dec-2016

 ----------------------------------------------------------------------
 # B3LYP/6-311++G(d,p) empiricaldispersion=gd3bj scf=xqc pop=npa geom=c
 heck
 ----------------------------------------------------------------------

 ------------------------------------
 CID_138568164_JID_7112_Energie_anion
 ------------------------------------
 Structure from the checkpoint file:  "JID_7112.chk"
 Charge = -1 Multiplicity = 2

                         Standard orientation:
 ---------------------------------------------------------------------
 Center     Atomic      Atomic             Coordinates (Angstroms)
 Number     Number       Type             X           Y           Z
 ---------------------------------------------------------------------
      1          6           0        3.996253   -1.208655    0.129829
      2          6           0        2.796932   -0.297807    0.010584
      3          6           0        1.923011   -0.487516   -0.991680
      4          6           0        0.658131    0.237318   -1.395221
      5          6           0       -0.623076   -0.578209   -1.411008
      6          6           0       -1.058544   -1.518840   -0.563134
      7          6           0       -2.455363   -1.321869    0.021685
      8          6           0       -2.249150   -0.396572    1.276569
      9          6           0       -0.910292    0.363746    1.448727
     10          7           0       -0.586642    1.446563    0.511820
     11          6           0        0.205201    1.466300   -0.619764
     12          6           0        0.289501    2.795647   -0.999627
     13          6           0       -0.447201    3.509869   -0.032774
     14          7           0       -0.968156    2.697087    0.882755
     15          8           0       -3.392761   -0.766254   -0.883529
     16         16           0       -0.147661   -2.739659    0.358695
     17          6           0        2.709248    0.736058    1.104377
     18          1           0        4.019248   -1.969450   -0.656286
     19          1           0        4.000214   -1.719976    1.102645
     20          1           0        4.930252   -0.633514    0.077989
     21          1           0        2.158470   -1.285538   -1.697715
     22          1           0        0.843934    0.607687   -2.414071
     23          1           0       -1.424399   -0.013509   -1.882898
     24          1           0       -2.900347   -2.271440    0.335703
     25          1           0       -3.077023    0.321582    1.296087
     26          1           0       -2.347376   -1.003727    2.183337
     27          1           0       -0.945434    0.853340    2.424008
     28          1           0       -0.074974   -0.334971    1.465189
     29          1           0        0.813636    3.179443   -1.863396
     30          1           0       -0.619539    4.575945    0.037890
     31          1           0       -3.207918    0.182853   -0.958947
     32          1           0        1.089152   -2.312683    0.027798
     33          1           0        2.443490    0.258442    2.058070
     34          1           0        3.690971    1.202030    1.256034
     35          1           0        1.987996    1.525702    0.904266
 ---------------------------------------------------------------------

 SCF Done:  E(UB3LYP) =  -1089.32312593     A.U. after   33 cycles
 SCF Done:  E(UB3LYP) =  -1089.32312593     a.u. after    1 cycles

 The electronic state is 2-A.
 Alpha  occ. eigenvalues --  -88.74855 -19.03666 -14.28300 -14.22453 -10.14203
 Alpha  occ. eigenvalues --  -10.11471 -10.11048 -10.10087 -10.09404 -10.09006
 Alpha  occ. eigenvalues --  -10.08664 -10.08567 -10.06995 -10.06608 -10.06424
 Alpha  occ. eigenvalues --  -10.06251 -10.06187  -7.83599  -5.79943  -5.79579
 Alpha  occ. eigenvalues --   -5.79048  -0.94451  -0.94145  -0.75816  -0.73314
 Alpha  occ. eigenvalues --   -0.71525  -0.70251  -0.65647  -0.64418  -0.60971
 Alpha  occ. eigenvalues --   -0.59619  -0.58763  -0.55409  -0.52291  -0.50147
 Alpha  occ. eigenvalues --   -0.46057  -0.44689  -0.43832  -0.39915  -0.39376
 Alpha  occ. eigenvalues --   -0.37891  -0.37526  -0.36384  -0.35327  -0.34362
 Alpha  occ. eigenvalues --   -0.33876  -0.33158  -0.32700  -0.31955  -0.30728
 Alpha  occ. eigenvalues --   -0.29507  -0.29324  -0.28728  -0.27596  -0.27125
 Alpha  occ. eigenvalues --   -0.26548  -0.26087  -0.25091  -0.24383  -0.22999
 Alpha  occ. eigenvalues --   -0.19778  -0.19351  -0.18756  -0.15521  -0.14789
 Alpha  occ. eigenvalues --   -0.14564  -0.11099   0.04279
 Alpha virt. eigenvalues --    0.06672   0.07105   0.07237   0.08310   0.08732
 Alpha virt. eigenvalues --    0.08939   0.09057   0.09588   0.10033   0.10290
 Alpha virt. eigenvalues --    0.10404   0.11458   0.11764   0.11975   0.12361

  Beta  occ. eigenvalues --  -88.74845 -19.03658 -14.28239 -14.22392 -10.14203
  Beta  occ. eigenvalues --  -10.11461 -10.11006 -10.10064 -10.09279 -10.09020
  Beta  occ. eigenvalues --  -10.08638 -10.08570 -10.06958 -10.06567 -10.06397
  Beta  occ. eigenvalues --  -10.06185 -10.06157  -7.83587  -5.79938  -5.79569
  Beta  occ. eigenvalues --   -5.79031  -0.94376  -0.94102  -0.75697  -0.73240
  Beta  occ. eigenvalues --   -0.71384  -0.70185  -0.65575  -0.64327  -0.60873
  Beta  occ. eigenvalues --   -0.59560  -0.58697  -0.55309  -0.52244  -0.50104
  Beta  occ. eigenvalues --   -0.45949  -0.44568  -0.43756  -0.39815  -0.39299
  Beta  occ. eigenvalues --   -0.37803  -0.37463  -0.36286  -0.35234  -0.34304
  Beta  occ. eigenvalues --   -0.33837  -0.33086  -0.32636  -0.31900  -0.30655
  Beta  occ. eigenvalues --   -0.29435  -0.29281  -0.28687  -0.27549  -0.27073
  Beta  occ. eigenvalues --   -0.26489  -0.26027  -0.25018  -0.24323  -0.22921
  Beta  occ. eigenvalues --   -0.19612  -0.19253  -0.18616  -0.15329  -0.14540
  Beta  occ. eigenvalues --   -0.14461  -0.10734
  Beta virt. eigenvalues --    0.06528   0.07368   0.07478   0.07918   0.08653
  Beta virt. eigenvalues --    0.09069   0.09083   0.09253   0.09980   0.10433
  Beta virt. eigenvalues --    0.10490   0.10541   0.11711   0.12027   0.12195

 Mulliken charges and spin densities:
               1          2
     1  C    1.657330  -2.307921
     2  C   -0.945756   1.355498
     3  C   -0.003104  -0.534572
     4  C    0.733500  -0.930836
     5  C   -0.414721  -0.476158
     6  C    0.652427   0.385752
     7  C   -0.499946  -0.070250
     8  C   -0.355223  -0.127730
     9  C    0.104774  -0.118074
    10  N    0.297142   0.089724
    11  C   -1.126749   0.912729
    12  C    0.869668  -0.872077
    13  C   -0.093464  -0.226146
    14  N   -0.011755   0.052230
    15  O   -0.182211  -0.006821
    16  S    0.068575  -0.208098
    17  C   -0.842195   0.123303
    18  H   -0.451015   0.600718
    19  H   -0.146531   0.293647
    20  H   -0.134976   0.274792
    21  H   -0.314414   0.542034
    22  H   -0.327534   0.558410
    23  H   -0.094948   0.192136
    24  H    0.124678   0.091603
    25  H    0.129160   0.068356
    26  H   -0.049731   0.175233
    27  H   -0.104979   0.359071
    28  H    0.232040  -0.186944
    29  H   -0.220002   0.386673
    30  H    0.074162   0.064627
    31  H    0.244364   0.007398
    32  H    0.093999   0.082668
    33  H   -0.005679   0.170451
    34  H   -0.175691   0.323446
    35  H    0.218808  -0.044872
 Sum of Mulliken charges =  -1.00000   1.00000

 Dipole moment (field-independent basis, Debye):
    X=             -3.2558    Y=              2.1081    Z=              1.7700  Tot=              4.2635
 Quadrupole moment (field-independent basis, Debye-Ang):
   XX=           -170.0653   YY=           -155.1273   ZZ=           -151.3230
   XY=              5.9308   XZ=              1.2101   YZ=             -5.7852

 Summary of Natural Population Analysis:

                                       Natural Population
                Natural  -----------------------------------------------
    Atom  No    Charge         Core      Valence    Rydberg      Total
 -----------------------------------------------------------------------
      C    1   -0.29371      0.99962     2.28813    0.00595     3.29371
      C    2   -0.00486      0.99948     1.99588    0.00951     3.00486
      C    3   -0.10605      0.99945     2.09352    0.01308     3.10605
      C    4   -0.14966      0.99951     2.13518    0.01497     3.14966
      C    5   -0.09967      0.99935     2.08571    0.01460     3.09967
      C    6   -0.07300      0.99931     2.06080    0.01289     3.07300
      C    7    0.05507      0.99948     1.93050    0.01495     2.94493
      C    8   -0.20225      0.99960     2.19433    0.00832     3.20225
      C    9   -0.09223      0.99958     2.08094    0.01171     3.09223
      N   10   -0.11568      0.99960     2.60224    0.01383     3.61568
      C   11    0.10523      0.99950     1.88067    0.01461     2.89477
      C   12   -0.16132      0.99946     2.15345    0.00840     3.16132
      C   13   -0.02036      0.99963     2.00655    0.01418     3.02036
      N   14   -0.14998      0.99974     2.63967    0.01057     3.64998
      O   15   -0.36400      0.99989     3.35801    0.00610     4.36400
      S   16    0.00544      4.99952     2.97886    0.01619     7.99456
      C   17   -0.30232      0.99961     2.29660    0.00611     3.30232
      H   18    0.10371      0.00000     0.39490    0.00139     0.39629
      H   19    0.10127      0.00000     0.39728    0.00145     0.39873
      H   20    0.10192      0.00000     0.39683    0.00125     0.39808
      H   21    0.10251      0.00000     0.39567    0.00182     0.39749
      H   22    0.11665      0.00000     0.38126    0.00209     0.38335
      H   23    0.09822      0.00000     0.40021    0.00157     0.40178
      H   24    0.08812      0.00000     0.41018    0.00170     0.41188
      H   25    0.10474      0.00000     0.39403    0.00123     0.39526
      H   26    0.10717      0.00000     0.39178    0.00105     0.39283
      H   27    0.11065      0.00000     0.38777    0.00158     0.38935
      H   28    0.10874      0.00000     0.38874    0.00252     0.39126
      H   29    0.10870      0.00000     0.39044    0.00087     0.39130
      H   30    0.09453      0.00000     0.40470    0.00077     0.40547
      H   31    0.22815      0.00000     0.26900    0.00285     0.27185
      H   32    0.07670      0.00000     0.42003    0.00328     0.42330
      H   33    0.10371      0.00000     0.39506    0.00123     0.39629
      H   34    0.10226      0.00000     0.39681    0.00093     0.39774
      H   35    0.11161      0.00000     0.38702    0.00138     0.38839
 =======================================================================
   * Total *   -0.00000     20.99234    45.78274    0.22492    67.00000

 Normal termination of Gaussian 16 at Mon Dec 14 18:02:47 2020.
