 Gaussian 16, Revision A.03,

 -----------------------------------------------------------
 # opt freq B3LYP/6-31G(d) empiricaldispersion=gd3bj scf=xqc
 -----------------------------------------------------------

 ------------------------------
 CID_72956251_JID_1143_neutraal
 ------------------------------
 Symbolic Z-matrix:
 Charge =  0 Multiplicity = 1

 SCF Done:  E(RB3LYP) =  -536.568572826     A.U. after   15 cycles
 SCF Done:  E(RB3LYP) =  -536.573732123     A.U. after   12 cycles
 SCF Done:  E(RB3LYP) =  -536.574210493     A.U. after   11 cycles
 SCF Done:  E(RB3LYP) =  -536.574272629     A.U. after   10 cycles
 SCF Done:  E(RB3LYP) =  -536.574279900     A.U. after    9 cycles
 SCF Done:  E(RB3LYP) =  -536.574280057     A.U. after    9 cycles
 SCF Done:  E(RB3LYP) =  -536.574281784     A.U. after    8 cycles
 Optimization completed.
    -- Stationary point found.

 1\1\GINC-NODE111\FOpt\RB3LYP\6-31G(d)\C8H10O3\VSC10255\08-Dec-2020\0\\
 # opt freq B3LYP/6-31G(d) empiricaldispersion=gd3bj scf=xqc\\CID_72956
 251_JID_1143_neutraal\\0,1\C,-2.3469887297,0.0298583324,0.5584424188\C
 ,-1.5084217206,1.1488417188,-0.1019111843\C,-0.0682670144,0.7545397842
 ,-0.0845803852\C,1.0267221361,1.3246536651,0.427838371\C,2.1712184243,
 0.3957701746,0.2782830282\O,3.3220553097,0.5246007057,0.6079280253\O,1
 .6998926119,-0.7549882128,-0.3314013312\C,0.3032127123,-0.6110590677,-
 0.6026519605\C,-0.5371339904,-1.6894219489,0.0863379907\C,-2.033583041

 Normal termination of Gaussian 16 at Tue Dec  8 19:12:13 2020.

 --------------------------------------------------------------------
 #N Geom=AllCheck Guess=TCheck SCRF=Check GenChk RB3LYP/6-31G(d) Freq
 --------------------------------------------------------------------

 Structure from the checkpoint file:  "JID_1143.chk"
 ------------------------------
 CID_72956251_JID_1143_neutraal
 ------------------------------
 Charge =  0 Multiplicity = 1

 SCF Done:  E(RB3LYP) =  -536.574281784     A.U. after    1 cycles

  Exact polarizability: 114.541   0.273  79.032   9.907  -1.805  66.937
 Approx polarizability: 169.216   1.232 112.001  25.709  -3.231 108.311

                      1                      2                      3
                      A                      A                      A
 Frequencies --     80.4162               151.7402               177.8581
 Red. masses --      6.6716                 3.2261                 3.8385
 Frc consts  --      0.0254                 0.0438                 0.0715
 IR Inten    --      3.0919                 2.3951                 1.6167

                      4                      5                      6
                      A                      A                      A
 Frequencies --    226.3006               273.0924               313.6145
 Red. masses --      3.6688                 2.1199                 1.9062
 Frc consts  --      0.1107                 0.0932                 0.1105
 IR Inten    --      7.8700                12.8859                29.2602

                      7                      8                      9
                      A                      A                      A
 Frequencies --    331.8788               373.9780               417.2145
 Red. masses --      2.1756                 4.0996                 2.9347
 Frc consts  --      0.1412                 0.3378                 0.3010
 IR Inten    --     55.0901                16.2443                 1.9358

                     10                     11                     12
                      A                      A                      A
 Frequencies --    473.7532               490.7853               534.6797
 Red. masses --      3.7403                 2.8000                 4.0783
 Frc consts  --      0.4946                 0.3974                 0.6869
 IR Inten    --      1.2383                 2.6542                 6.2023

                     13                     14                     15
                      A                      A                      A
 Frequencies --    587.8423               690.3366               728.8676
 Red. masses --      4.2195                 2.9984                 7.3453
 Frc consts  --      0.8591                 0.8419                 2.2991
 IR Inten    --      2.6888                 7.0703                 4.0639

                     16                     17                     18
                      A                      A                      A
 Frequencies --    735.3701               801.4284               857.6706
 Red. masses --      4.0843                 1.9306                 2.7363
 Frc consts  --      1.3013                 0.7306                 1.1859
 IR Inten    --      2.6278                 0.3782                 7.8114

                     19                     20                     21
                      A                      A                      A
 Frequencies --    876.8008               892.2922               910.5397
 Red. masses --      1.4911                 2.7542                 3.0809
 Frc consts  --      0.6754                 1.2920                 1.5050
 IR Inten    --     23.4856                11.7890                40.6508

                     22                     23                     24
                      A                      A                      A
 Frequencies --    959.0638               979.4576              1040.6394
 Red. masses --      1.5758                 2.2015                 4.6588
 Frc consts  --      0.8540                 1.2443                 2.9725
 IR Inten    --      3.9578                 1.3130               105.7293

                     25                     26                     27
                      A                      A                      A
 Frequencies --   1082.7001              1092.7647              1112.2550
 Red. masses --      2.0823                 2.4449                 2.4865
 Frc consts  --      1.4382                 1.7201                 1.8124
 IR Inten    --     76.5372                20.6949                12.0999

                     28                     29                     30
                      A                      A                      A
 Frequencies --   1124.9297              1146.4983              1162.8954
 Red. masses --      3.3913                 1.5185                 2.5648
 Frc consts  --      2.5285                 1.1760                 2.0435
 IR Inten    --      7.6131                18.7549                60.7608

                     31                     32                     33
                      A                      A                      A
 Frequencies --   1188.7781              1199.7215              1238.8394
 Red. masses --      1.8544                 1.3329                 1.3941
 Frc consts  --      1.5440                 1.1303                 1.2606
 IR Inten    --     26.7050                 2.9999                 4.7664

                     34                     35                     36
                      A                      A                      A
 Frequencies --   1286.2796              1321.8468              1330.0847
 Red. masses --      1.3383                 1.4525                 1.5192
 Frc consts  --      1.3046                 1.4953                 1.5835
 IR Inten    --     19.0702                 9.1563                17.8135

                     37                     38                     39
                      A                      A                      A
 Frequencies --   1362.4669              1372.5631              1380.8878
 Red. masses --      1.4454                 1.3497                 2.1035
 Frc consts  --      1.5809                 1.4981                 2.3633
 IR Inten    --      2.0242                15.0826                 0.1883

                     40                     41                     42
                      A                      A                      A
 Frequencies --   1394.4886              1403.3517              1450.3671
 Red. masses --      1.5163                 1.4313                 1.2485
 Frc consts  --      1.7373                 1.6607                 1.5474
 IR Inten    --     14.1402                 5.1773                55.2701

                     43                     44                     45
                      A                      A                      A
 Frequencies --   1509.9261              1514.1446              1528.3641
 Red. masses --      1.0893                 1.1000                 1.0937
 Frc consts  --      1.4632                 1.4859                 1.5052
 IR Inten    --      5.5551                 5.2602                 5.4711

                     46                     47                     48
                      A                      A                      A
 Frequencies --   1723.5222              1877.8443              3026.2022
 Red. masses --      8.2597                12.6593                 1.0722
 Frc consts  --     14.4560                26.3015                 5.7851
 IR Inten    --     37.3819               509.6991                 6.7789

                     49                     50                     51
                      A                      A                      A
 Frequencies --   3033.0001              3035.0249              3041.7018
 Red. masses --      1.0779                 1.0697                 1.0731
 Frc consts  --      5.8419                 5.8055                 5.8493
 IR Inten    --      6.9947                20.4452                 4.4479

                     52                     53                     54
                      A                      A                      A
 Frequencies --   3058.2456              3109.3687              3110.3140
 Red. masses --      1.0776                 1.0927                 1.0988
 Frc consts  --      5.9383                 6.2244                 6.2631
 IR Inten    --     66.1713                30.6404                20.4370

                     55                     56                     57
                      A                      A                      A
 Frequencies --   3120.1402              3261.7940              3722.4902
 Red. masses --      1.0989                 1.0975                 1.0658
 Frc consts  --      6.3029                 6.8795                 8.7018
 IR Inten    --     24.3330                 0.9011                10.6351

 - Thermochemistry -
 -------------------
 Temperature   298.150 Kelvin.  Pressure   1.00000 Atm.
 Atom     1 has atomic number  6 and mass  12.00000

 Molecular mass:   154.06299 amu.
 Principal axes and moments of inertia in atomic units:
                           1         2         3
     Eigenvalues --   712.351772494.961092966.43922
           X            0.99999  -0.00138  -0.00321
           Y            0.00137   1.00000  -0.00182
           Z            0.00322   0.00181   0.99999
 This molecule is an asymmetric top.
 Rotational symmetry number  1.
 Warning -- assumption of classical behavior for rotation
           may cause significant error
 Rotational temperatures (Kelvin)      0.12159     0.03472     0.02920
 Rotational constants (GHZ):           2.53350     0.72335     0.60839
 Zero-point vibrational energy     455953.2 (Joules/Mol)
                                  108.97543 (Kcal/Mol)
 Warning -- explicit consideration of  13 degrees of freedom as
           vibrations may cause significant error
 Vibrational temperatures:    115.70   218.32   255.90   325.60   392.92
          (Kelvin)            451.22   477.50   538.07   600.28   681.63
                              706.13   769.28   845.77   993.24  1048.68
                             1058.03  1153.08  1234.00  1261.52  1283.81
                             1310.06  1379.88  1409.22  1497.25  1557.76
                             1572.24  1600.29  1618.52  1649.56  1673.15
                             1710.39  1726.13  1782.41  1850.67  1901.84
                             1913.70  1960.29  1974.81  1986.79  2006.36
                             2019.11  2086.75  2172.45  2178.52  2198.98
                             2479.76  2701.80  4354.03  4363.81  4366.72
                             4376.33  4400.13  4473.69  4475.05  4489.19
                             4692.99  5355.83

 Zero-point correction=                           0.173663 (Hartree/Particle)
 Thermal correction to Energy=                    0.182758
 Thermal correction to Enthalpy=                  0.183702
 Thermal correction to Gibbs Free Energy=         0.139477
 Sum of electronic and zero-point Energies=           -536.400618
 Sum of electronic and thermal Energies=              -536.391524
 Sum of electronic and thermal Enthalpies=            -536.390580
 Sum of electronic and thermal Free Energies=         -536.434805

                     E (Thermal)             CV                S
                      KCal/Mol        Cal/Mol-Kelvin    Cal/Mol-Kelvin
 Total                  114.682             36.053             93.081
 Electronic               0.000              0.000              0.000
 Translational            0.889              2.981             41.006
 Rotational               0.889              2.981             30.045
 Vibrational            112.905             30.091             22.029
 Vibration     1          0.600              1.962              3.881
 Vibration     2          0.619              1.901              2.650
 Vibration     3          0.628              1.870              2.351
 Vibration     4          0.650              1.801              1.908
 Vibration     5          0.676              1.723              1.577
 Vibration     6          0.701              1.648              1.343
 Vibration     7          0.714              1.612              1.251
 Vibration     8          0.745              1.526              1.063
 Vibration     9          0.780              1.433              0.901
 Vibration    10          0.831              1.308              0.727
 Vibration    11          0.847              1.270              0.682
 Vibration    12          0.890              1.173              0.577
 Vibration    13          0.945              1.058              0.471

                           ! Non-Optimized Parameters !

 1\1\GINC-NODE111\Freq\RB3LYP\6-31G(d)\C8H10O3\VSC10255\08-Dec-2020\0\\
 #N Geom=AllCheck Guess=TCheck SCRF=Check GenChk RB3LYP/6-31G(d) Freq\\
 CID_72956251_JID_1143_neutraal\\0,1\C,-2.3469887297,0.0298583324,0.558
 4424188\C,-1.5084217206,1.1488417188,-0.1019111843\C,-0.0682670144,0.7
 545397842,-0.0845803852\C,1.0267221361,1.3246536651,0.427838371\C,2.17
 12184243,0.3957701746,0.2782830282\O,3.3220553097,0.5246007057,0.60792
 80253\O,1.6998926119,-0.7549882128,-0.3314013312\C,0.3032127123,-0.611
 0590677,-0.6026519605\C,-0.5371339904,-1.6894219489,0.0863379907\C,-2.

 Normal termination of Gaussian 16 at Tue Dec  8 19:16:36 2020.

 ----------------------------------------------------------------------
 # B3LYP/6-311++G(d,p) empiricaldispersion=gd3bj scf=xqc pop=npa geom=c
 heck
 ----------------------------------------------------------------------

 --------------------------------------
 CID_72956251_JID_1143_Energie_neutraal
 --------------------------------------
 Structure from the checkpoint file:  "JID_1143.chk"
 Charge =  0 Multiplicity = 1

 SCF Done:  E(RB3LYP) =  -536.736749600     A.U. after   15 cycles
 Normal termination of Gaussian 16 at Tue Dec  8 19:18:30 2020.

 ----------------------------------------------------------------------
 # B3LYP/6-311++G(d,p) empiricaldispersion=gd3bj scf=xqc pop=npa geom=c
 heck
 ----------------------------------------------------------------------

 ------------------------------------
 CID_72956251_JID_1143_Energie_kation
 ------------------------------------
 Structure from the checkpoint file:  "JID_1143.chk"
 Charge =  1 Multiplicity = 2

 SCF Done:  E(UB3LYP) =  -536.377125620     A.U. after   33 cycles
 SCF Done:  E(UB3LYP) =  -536.380978710     a.u. after   14 cycles
 Normal termination of Gaussian 16 at Tue Dec  8 20:07:00 2020.
 Gaussian 16:  ES64L-G16RevA.03 25-Dec-2016

 -----------------------------------
 CID_72956251_JID_1143_Energie_anion
 -----------------------------------
 Structure from the checkpoint file:  "JID_1143.chk"
 Charge = -1 Multiplicity = 2

                         Standard orientation:
 ---------------------------------------------------------------------
 Center     Atomic      Atomic             Coordinates (Angstroms)
 Number     Number       Type             X           Y           Z
 ---------------------------------------------------------------------
      1          6           0        1.932958    1.080408   -0.346190
      2          6           0        0.747166    1.803817    0.333487
      3          6           0       -0.462671    0.931456    0.262076
      4          6           0       -1.681880    1.104687   -0.257660
      5          6           0       -2.429265   -0.171875   -0.174789
      6          8           0       -3.548075   -0.439344   -0.530334
      7          8           0       -1.591375   -1.111128    0.403010
      8          6           0       -0.337411   -0.499741    0.717313
      9          6           0        0.836134   -1.183226    0.010632
     10          6           0        2.118144   -0.350866    0.182562
     11          8           0        3.239163   -0.989846   -0.412997
     12          1           0        2.860028    1.642815   -0.197209
     13          1           0        1.749147    1.032278   -1.429195
     14          1           0        1.000943    1.989314    1.387443
     15          1           0        0.562823    2.777636   -0.129742
     16          1           0       -2.107862    1.992548   -0.706387
     17          1           0       -0.199411   -0.556274    1.806420
     18          1           0        0.590991   -1.260849   -1.057758
     19          1           0        0.988964   -2.196159    0.394561
     20          1           0        2.368182   -0.300859    1.250377
     21          1           0        3.049434   -1.085868   -1.360523
 ---------------------------------------------------------------------

 SCF Done:  E(UB3LYP) =  -536.738776748     A.U. after   31 cycles

 The electronic state is 2-A.
 Alpha  occ. eigenvalues --  -19.01912 -19.01835 -18.95461 -10.14232 -10.11221
 Alpha  occ. eigenvalues --  -10.10739 -10.06162 -10.05803 -10.05730 -10.04300
 Alpha  occ. eigenvalues --  -10.03062  -0.95763  -0.92106  -0.88102  -0.71943
 Alpha  occ. eigenvalues --   -0.65635  -0.63377  -0.57816  -0.51336  -0.49219
 Alpha  occ. eigenvalues --   -0.44873  -0.42296  -0.38688  -0.36818  -0.35600
 Alpha  occ. eigenvalues --   -0.34960  -0.32784  -0.30791  -0.30129  -0.28646
 Alpha  occ. eigenvalues --   -0.27907  -0.25340  -0.25200  -0.25064  -0.23935
 Alpha  occ. eigenvalues --   -0.21645  -0.20439  -0.17620  -0.16004  -0.13967
 Alpha  occ. eigenvalues --   -0.13341   0.04606
 Alpha virt. eigenvalues --    0.07671   0.08432   0.09476   0.09914   0.11352
 Alpha virt. eigenvalues --    0.11755   0.12145   0.12627   0.12763   0.14675
 Alpha virt. eigenvalues --    0.16417   0.16929   0.17520   0.18196   0.18264

  Beta  occ. eigenvalues --  -19.01885 -19.01816 -18.95257 -10.14114 -10.11200
  Beta  occ. eigenvalues --  -10.10765 -10.06181 -10.05751 -10.05687 -10.03918
  Beta  occ. eigenvalues --  -10.02958  -0.95611  -0.92063  -0.87811  -0.71629
  Beta  occ. eigenvalues --   -0.65288  -0.63266  -0.57565  -0.51258  -0.49029
  Beta  occ. eigenvalues --   -0.44630  -0.41900  -0.38572  -0.36673  -0.35422
  Beta  occ. eigenvalues --   -0.34752  -0.32579  -0.30641  -0.29906  -0.28247
  Beta  occ. eigenvalues --   -0.27753  -0.25195  -0.24909  -0.24789  -0.23787
  Beta  occ. eigenvalues --   -0.21542  -0.20272  -0.17371  -0.15631  -0.13141
  Beta  occ. eigenvalues --   -0.12495
  Beta virt. eigenvalues --    0.07655   0.08529   0.09156   0.10231   0.11506
  Beta virt. eigenvalues --    0.11738   0.11878   0.12212   0.12819   0.12994
  Beta virt. eigenvalues --    0.14804   0.16414   0.17215   0.17566   0.18175

 Mulliken charges and spin densities:
               1          2
     1  C    0.249976  -0.448538
     2  C    0.042868  -0.561495
     3  C    0.594264  -0.066137
     4  C   -0.217987   0.158465
     5  C    0.105444  -0.050470
     6  O   -0.414194   0.064760
     7  O   -0.087627  -0.005889
     8  C   -0.761014   0.438870
     9  C    0.449358  -0.579896
    10  C   -0.067719  -0.382803
    11  O   -0.232250   0.030384
    12  H   -0.468435   0.660418
    13  H    0.119460  -0.018396
    14  H   -0.259962   0.425935
    15  H    0.046796   0.108528
    16  H    0.101725   0.031392
    17  H   -0.178761   0.409790
    18  H    0.032681   0.113137
    19  H    0.113589   0.064918
    20  H   -0.268869   0.469271
    21  H    0.100657   0.137756
 Sum of Mulliken charges =  -1.00000   1.00000

 Dipole moment (field-independent basis, Debye):
    X=              1.2603    Y=              0.3096    Z=             -2.4769  Tot=              2.7962
 Quadrupole moment (field-independent basis, Debye-Ang):
   XX=           -129.2570   YY=            -87.0392   ZZ=            -81.6741
   XY=             -7.8349   XZ=             -8.5735   YZ=             -2.8297

 Summary of Natural Population Analysis:

                                       Natural Population
                Natural  -----------------------------------------------
    Atom  No    Charge         Core      Valence    Rydberg      Total
 -----------------------------------------------------------------------
      C    1   -0.19122      0.99961     2.18136    0.01025     3.19122
      C    2   -0.21039      0.99958     2.20091    0.00990     3.21039
      C    3    0.08042      0.99949     1.91030    0.00979     2.91958
      C    4   -0.15741      0.99938     2.14852    0.00951     3.15741
      C    5    0.40166      0.99967     1.57258    0.02608     2.59834
      O    6   -0.29486      0.99986     3.28860    0.00640     4.29486
      O    7   -0.28850      0.99987     3.28101    0.00762     4.28850
      C    8    0.05143      0.99947     1.93412    0.01498     2.94857
      C    9   -0.20120      0.99959     2.19018    0.01143     3.20120
      C   10    0.06175      0.99953     1.92396    0.01476     2.93825
      O   11   -0.36785      0.99990     3.36106    0.00689     4.36785
      H   12    0.10516      0.00000     0.39277    0.00207     0.39484
      H   13    0.08996      0.00000     0.40875    0.00129     0.41004
      H   14    0.11051      0.00000     0.38580    0.00369     0.38949
      H   15    0.10073      0.00000     0.39806    0.00121     0.39927
      H   16    0.10040      0.00000     0.39860    0.00100     0.39960
      H   17    0.09738      0.00000     0.40038    0.00224     0.40262
      H   18    0.09591      0.00000     0.40263    0.00147     0.40409
      H   19    0.10423      0.00000     0.39454    0.00124     0.39577
      H   20    0.08884      0.00000     0.40870    0.00246     0.41116
      H   21    0.22307      0.00000     0.27411    0.00282     0.27693
 =======================================================================
   * Total *    0.00000     10.99596    29.85692    0.14711    41.00000

 Normal termination of Gaussian 16 at Tue Dec  8 20:12:51 2020.
