 Gaussian 16, Revision A.03,

 -----------------------------------------------------------
 # opt freq B3LYP/6-31G(d) empiricaldispersion=gd3bj scf=xqc
 -----------------------------------------------------------

 ------------------------------
 CID_141929241_JID_190_neutraal
 ------------------------------
 Symbolic Z-matrix:
 Charge =  0 Multiplicity = 1

 SCF Done:  E(RB3LYP) =  -441.414314818     A.U. after   15 cycles
 SCF Done:  E(RB3LYP) =  -441.416872988     A.U. after   12 cycles
 SCF Done:  E(RB3LYP) =  -441.416993393     A.U. after   12 cycles
 SCF Done:  E(RB3LYP) =  -441.417381502     A.U. after   11 cycles
 SCF Done:  E(RB3LYP) =  -441.417390507     A.U. after   10 cycles
 SCF Done:  E(RB3LYP) =  -441.417387739     A.U. after   10 cycles
 SCF Done:  E(RB3LYP) =  -441.417387870     A.U. after    9 cycles
 SCF Done:  E(RB3LYP) =  -441.417391201     A.U. after    9 cycles
 SCF Done:  E(RB3LYP) =  -441.417391837     A.U. after    8 cycles
 Optimization completed.
    -- Stationary point found.
 Normal termination of Gaussian 16 at Mon Dec 14 16:29:10 2020.

 --------------------------------------------------------------------
 #N Geom=AllCheck Guess=TCheck SCRF=Check GenChk RB3LYP/6-31G(d) Freq
 --------------------------------------------------------------------

 Structure from the checkpoint file:  "JID_190.chk"
 ------------------------------
 CID_141929241_JID_190_neutraal
 ------------------------------
 Charge =  0 Multiplicity = 1

 SCF Done:  E(RB3LYP) =  -441.417391837     A.U. after    1 cycles

  Exact polarizability: 172.758  18.352  96.788  -0.000   0.000  45.757
 Approx polarizability: 312.420  31.561 128.634  -0.000   0.000  68.251

 ******    1 imaginary frequencies (negative Signs) ******

                      1                      2                      3
                      A                      A                      A
 Frequencies --    -41.7484                15.5252                30.9016
 Red. masses --      1.1996                 3.9946                 2.0656
 Frc consts  --      0.0012                 0.0006                 0.0012
 IR Inten    --      0.0101                 5.0520                 0.0951

                      4                      5                      6
                      A                      A                      A
 Frequencies --     57.2501               132.7024               149.3690
 Red. masses --      2.3369                 3.6637                 3.3750
 Frc consts  --      0.0045                 0.0380                 0.0444
 IR Inten    --      0.0919                 2.4124                 4.7432

                      7                      8                      9
                      A                      A                      A
 Frequencies --    204.1601               253.4322               292.0051
 Red. masses --      1.0587                 3.8745                 3.8101
 Frc consts  --      0.0260                 0.1466                 0.1914
 IR Inten    --      0.1350                 0.1379                 6.7094

                     10                     11                     12
                      A                      A                      A
 Frequencies --    368.8141               372.7154               418.6271
 Red. masses --      2.8669                 3.6372                 6.4456
 Frc consts  --      0.2298                 0.2977                 0.6655
 IR Inten    --      1.7049                 0.3866                 1.1511

                     13                     14                     15
                      A                      A                      A
 Frequencies --    470.6674               476.8439               570.1975
 Red. masses --      1.9592                 2.9570                 4.0827
 Frc consts  --      0.2557                 0.3961                 0.7821
 IR Inten    --      0.2607                 3.7711                18.8187

                     16                     17                     18
                      A                      A                      A
 Frequencies --    583.3134               661.2423               757.1399
 Red. masses --      2.1479                 3.4217                 2.3522
 Frc consts  --      0.4306                 0.8815                 0.7945
 IR Inten    --      9.3135                26.3773                 2.5410

                     19                     20                     21
                      A                      A                      A
 Frequencies --    804.4581               892.5447               939.5701
 Red. masses --      4.0952                 1.1508                 2.3287
 Frc consts  --      1.5615                 0.5402                 1.2112
 IR Inten    --      2.4358                10.0442                22.9607

                     22                     23                     24
                      A                      A                      A
 Frequencies --    946.4910               964.7819               984.4101
 Red. masses --      1.7787                 4.4725                 1.3789
 Frc consts  --      0.9388                 2.4528                 0.7873
 IR Inten    --      3.0250                 0.3742                23.5220

                     25                     26                     27
                      A                      A                      A
 Frequencies --   1022.4208              1026.6730              1054.9082
 Red. masses --      1.7384                 1.0982                 1.8004
 Frc consts  --      1.0707                 0.6820                 1.1805
 IR Inten    --     37.2796                19.2272                 3.2987

                     28                     29                     30
                      A                      A                      A
 Frequencies --   1119.0318              1143.5226              1165.7204
 Red. masses --      1.3177                 2.5473                 1.3902
 Frc consts  --      0.9722                 1.9626                 1.1130
 IR Inten    --      2.6461                 3.3329                 9.6305

                     31                     32                     33
                      A                      A                      A
 Frequencies --   1180.6613              1297.5807              1375.2848
 Red. masses --      2.8503                 2.2733                 1.2715
 Frc consts  --      2.3410                 2.2552                 1.4169
 IR Inten    --     81.8023                53.0118                18.6139

                     34                     35                     36
                      A                      A                      A
 Frequencies --   1395.9914              1418.3806              1448.5311
 Red. masses --      1.3837                 1.4170                 1.1967
 Frc consts  --      1.5887                 1.6796                 1.4795
 IR Inten    --     15.2674                21.7502                38.7329

                     37                     38                     39
                      A                      A                      A
 Frequencies --   1455.6563              1474.4889              1504.8457
 Red. masses --      1.2495                 1.3670                 1.0581
 Frc consts  --      1.5599                 1.7511                 1.4118
 IR Inten    --     10.8806                21.1901                 9.2601

                     40                     41                     42
                      A                      A                      A
 Frequencies --   1512.8732              1517.3355              1539.0956
 Red. masses --      1.0481                 1.0916                 1.0451
 Frc consts  --      1.4134                 1.4808                 1.4586
 IR Inten    --      9.6610                 3.4127                 7.4508

                     43                     44                     45
                      A                      A                      A
 Frequencies --   1628.7455              1689.1113              1700.6346
 Red. masses --      4.6896                 5.5348                 5.2125
 Frc consts  --      7.3298                 9.3040                 8.8822
 IR Inten    --      3.5862                63.0328                 1.6200

                     46                     47                     48
                      A                      A                      A
 Frequencies --   1775.8352              3014.0065              3060.3977
 Red. masses --     10.6471                 1.0390                 1.0380
 Frc consts  --     19.7828                 5.5608                 5.7279
 IR Inten    --    167.2617                45.1133                 2.2750

                     49                     50                     51
                      A                      A                      A
 Frequencies --   3069.7938              3123.0599              3129.7196
 Red. masses --      1.1025                 1.1006                 1.0967
 Frc consts  --      6.1211                 6.3248                 6.3291
 IR Inten    --     30.8992                 8.9912                45.5079

                     52                     53                     54
                      A                      A                      A
 Frequencies --   3143.8513              3173.3359              3178.6597
 Red. masses --      1.0877                 1.1014                 1.0659
 Frc consts  --      6.3340                 6.5348                 6.3455
 IR Inten    --     15.2365                 8.1524                 8.0015

                     55                     56                     57
                      A                      A                      A
 Frequencies --   3199.2742              3241.5662              3307.2375
 Red. masses --      1.0873                 1.0860                 1.1091
 Frc consts  --      6.5568                 6.7236                 7.1474
 IR Inten    --     27.9589                 2.4025                 1.3088

 - Thermochemistry -
 -------------------
 Temperature   298.150 Kelvin.  Pressure   1.00000 Atm.
 Atom     1 has atomic number  6 and mass  12.00000

 Molecular mass:   137.08406 amu.
 Principal axes and moments of inertia in atomic units:
                           1         2         3
     Eigenvalues --   866.247022327.018233170.63328
           X            0.99937   0.03541   0.00000
           Y           -0.03541   0.99937  -0.00000
           Z           -0.00000   0.00000   1.00000
 This molecule is an asymmetric top.
 Rotational symmetry number  1.
 Warning -- assumption of classical behavior for rotation
           may cause significant error
 Rotational temperatures (Kelvin)      0.09999     0.03722     0.02732
 Rotational constants (GHZ):           2.08340     0.77556     0.56921
    1 imaginary frequencies ignored.
 Zero-point vibrational energy     457185.2 (Joules/Mol)
                                  109.26988 (Kcal/Mol)
 Warning -- explicit consideration of  15 degrees of freedom as
           vibrations may cause significant error
 Vibrational temperatures:     22.34    44.46    82.37   190.93   214.91
          (Kelvin)            293.74   364.63   420.13   530.64   536.25
                              602.31   677.19   686.07   820.39   839.26
                              951.38  1089.36  1157.44  1284.17  1351.83
                             1361.79  1388.11  1416.35  1471.04  1477.15
                             1517.78  1610.04  1645.27  1677.21  1698.71
                             1866.93  1978.73  2008.52  2040.73  2084.11
                             2094.36  2121.46  2165.14  2176.69  2183.11
                             2214.42  2343.40  2430.25  2446.83  2555.03
                             4336.48  4403.23  4416.75  4493.39  4502.97
                             4523.30  4565.72  4573.38  4603.04  4663.89
                             4758.38

 Zero-point correction=                           0.174133 (Hartree/Particle)
 Thermal correction to Energy=                    0.184942
 Thermal correction to Enthalpy=                  0.185886
 Thermal correction to Gibbs Free Energy=         0.135182
 Sum of electronic and zero-point Energies=           -441.243259
 Sum of electronic and thermal Energies=              -441.232450
 Sum of electronic and thermal Enthalpies=            -441.231506
 Sum of electronic and thermal Free Energies=         -441.282210

                     E (Thermal)             CV                S
                      KCal/Mol        Cal/Mol-Kelvin    Cal/Mol-Kelvin
 Total                  116.053             37.906            106.717
 Electronic               0.000              0.000              0.000
 Translational            0.889              2.981             40.658
 Rotational               0.889              2.981             30.237
 Vibrational            114.275             31.945             35.822
 Vibration     1          0.593              1.986              7.137
 Vibration     2          0.594              1.984              5.771
 Vibration     3          0.596              1.975              4.550
 Vibration     4          0.613              1.921              2.906
 Vibration     5          0.618              1.903              2.680
 Vibration     6          0.640              1.834              2.095
 Vibration     7          0.665              1.757              1.707
 Vibration     8          0.687              1.689              1.462
 Vibration     9          0.741              1.536              1.085
 Vibration    10          0.744              1.528              1.069
 Vibration    11          0.781              1.430              0.897
 Vibration    12          0.828              1.315              0.736
 Vibration    13          0.833              1.301              0.719
 Vibration    14          0.926              1.096              0.504
 Vibration    15          0.940              1.067              0.479

 Optimization completed.
    -- Stationary point found.
 Normal termination of Gaussian 16 at Mon Dec 14 16:32:17 2020.

 ----------------------------------------------------------------------
 # B3LYP/6-311++G(d,p) empiricaldispersion=gd3bj scf=xqc pop=npa geom=c
 heck
 ----------------------------------------------------------------------

 --------------------------------------
 CID_141929241_JID_190_Energie_neutraal
 --------------------------------------
 Structure from the checkpoint file:  "JID_190.chk"
 Charge =  0 Multiplicity = 1

 SCF Done:  E(RB3LYP) =  -441.543389101     A.U. after   15 cycles
 Normal termination of Gaussian 16 at Mon Dec 14 16:33:28 2020.

 ----------------------------------------------------------------------
 # B3LYP/6-311++G(d,p) empiricaldispersion=gd3bj scf=xqc pop=npa geom=c
 heck
 ----------------------------------------------------------------------

 ------------------------------------
 CID_141929241_JID_190_Energie_kation
 ------------------------------------
 Structure from the checkpoint file:  "JID_190.chk"
 Charge =  1 Multiplicity = 2

 SCF Done:  E(UB3LYP) =  -441.221008491     A.U. after   25 cycles
 Normal termination of Gaussian 16 at Mon Dec 14 16:35:53 2020.
 Gaussian 16:  ES64L-G16RevA.03 25-Dec-2016

 ----------------------------------------------------------------------
 # B3LYP/6-311++G(d,p) empiricaldispersion=gd3bj scf=xqc pop=npa geom=c
 heck
 ----------------------------------------------------------------------

 -----------------------------------
 CID_141929241_JID_190_Energie_anion
 -----------------------------------
 Structure from the checkpoint file:  "JID_190.chk"
 Charge = -1 Multiplicity = 2

                         Standard orientation:
 ---------------------------------------------------------------------
 Center     Atomic      Atomic             Coordinates (Angstroms)
 Number     Number       Type             X           Y           Z
 ---------------------------------------------------------------------
      1          6           0       -0.936100    2.375821   -0.000010
      2          6           0       -1.539708    0.975810    0.000002
      3          8           0       -2.754812    0.857713    0.000014
      4          6           0       -0.626263   -0.225800   -0.000001
      5          6           0        0.719678    0.004046    0.000000
      6          6           0        1.786417   -0.991766    0.000001
      7          7           0        3.050436   -0.771582    0.000001
      8          6           0        3.546977    0.599981    0.000002
      9          6           0       -1.177502   -1.584514   -0.000003
     10          6           0       -2.464619   -1.965200   -0.000004
     11          1           0       -1.760855    3.089575   -0.000012
     12          1           0       -0.313347    2.546938   -0.884922
     13          1           0       -0.313342    2.546950    0.884896
     14          1           0        1.057759    1.032436    0.000002
     15          1           0        1.501670   -2.044348   -0.000000
     16          1           0        3.220583    1.159143   -0.888272
     17          1           0        3.220584    1.159141    0.888279
     18          1           0        4.639613    0.578006    0.000002
     19          1           0       -0.433026   -2.375029   -0.000006
     20          1           0       -2.705491   -3.024889   -0.000007
     21          1           0       -3.281983   -1.258814   -0.000001
 ---------------------------------------------------------------------

 SCF Done:  E(UB3LYP) =  -441.588843973     A.U. after   21 cycles

 The electronic state is 2-A.
 Alpha  occ. eigenvalues --  -18.93877 -14.13467 -10.09035 -10.05337 -10.04311
 Alpha  occ. eigenvalues --  -10.03553 -10.02824 -10.01794 -10.00952 -10.00928
 Alpha  occ. eigenvalues --   -0.87923  -0.75896  -0.66272  -0.61055  -0.58607
 Alpha  occ. eigenvalues --   -0.55806  -0.48580  -0.44335  -0.39362  -0.36124
 Alpha  occ. eigenvalues --   -0.34468  -0.32199  -0.30349  -0.30067  -0.29766
 Alpha  occ. eigenvalues --   -0.28318  -0.27050  -0.24882  -0.23948  -0.23180
 Alpha  occ. eigenvalues --   -0.22561  -0.20177  -0.18784  -0.15059  -0.10296
 Alpha  occ. eigenvalues --   -0.09177  -0.08458   0.01749
 Alpha virt. eigenvalues --    0.08786   0.10246   0.10289   0.12269   0.12370
 Alpha virt. eigenvalues --    0.12689   0.13069   0.13969   0.14775   0.15034
 Alpha virt. eigenvalues --    0.16045   0.16078   0.16297   0.18080   0.18488

  Beta  occ. eigenvalues --  -18.93522 -14.12926 -10.08892 -10.05365 -10.04316
  Beta  occ. eigenvalues --  -10.03569 -10.02870 -10.01567 -10.00800 -10.00601
  Beta  occ. eigenvalues --   -0.87292  -0.75073  -0.65734  -0.60854  -0.58272
  Beta  occ. eigenvalues --   -0.55642  -0.47620  -0.44066  -0.38945  -0.35892
  Beta  occ. eigenvalues --   -0.34242  -0.31943  -0.29896  -0.29866  -0.29208
  Beta  occ. eigenvalues --   -0.28180  -0.26858  -0.24688  -0.23727  -0.23055
  Beta  occ. eigenvalues --   -0.21187  -0.20000  -0.17151  -0.13825  -0.09781
  Beta  occ. eigenvalues --   -0.07990  -0.07001
  Beta virt. eigenvalues --    0.08066   0.08764   0.10216   0.10263   0.12361
  Beta virt. eigenvalues --    0.12516   0.12667   0.13951   0.14091   0.14953
  Beta virt. eigenvalues --    0.15011   0.16055   0.16263   0.17173   0.18457

 Mulliken charges and spin densities:
               1          2
     1  C   -0.547806  -0.008075
     2  C   -0.568410   0.059204
     3  O   -0.356470   0.128644
     4  C    1.523483   0.167377
     5  C   -0.186493   0.325644
     6  C   -0.358396  -0.031846
     7  N   -0.135049   0.257277
     8  C   -0.377319  -0.032985
     9  C   -0.811571  -0.066708
    10  C   -0.417548   0.157892
    11  H    0.155295  -0.001539
    12  H    0.120654   0.010098
    13  H    0.120655   0.010098
    14  H    0.034459  -0.012007
    15  H    0.216733  -0.002421
    16  H    0.099445   0.029167
    17  H    0.099445   0.029167
    18  H    0.121315  -0.001585
    19  H    0.025805  -0.002090
    20  H    0.087103  -0.006777
    21  H    0.154671  -0.008536
 Sum of Mulliken charges =  -1.00000   1.00000

 Dipole moment (field-independent basis, Debye):
    X=              0.9089    Y=              2.0754    Z=             -0.0000  Tot=              2.2657
 Quadrupole moment (field-independent basis, Debye-Ang):
   XX=           -107.4508   YY=            -72.7469   ZZ=            -69.2897
   XY=              7.7677   XZ=              0.0001   YZ=             -0.0000

 Summary of Natural Population Analysis:

                                       Natural Population
                Natural  -----------------------------------------------
    Atom  No    Charge         Core      Valence    Rydberg      Total
 -----------------------------------------------------------------------
      C    1   -0.33287      0.99964     2.32906    0.00417     3.33287
      C    2    0.28490      0.99966     1.69275    0.02270     2.71510
      O    3   -0.26916      0.99987     3.26196    0.00733     4.26916
      C    4   -0.03203      0.99944     2.01985    0.01274     3.03203
      C    5   -0.04229      0.99951     2.03282    0.00996     3.04229
      C    6    0.03058      0.99961     1.95538    0.01442     2.96942
      N    7   -0.15878      0.99968     2.64337    0.01573     3.65878
      C    8   -0.20292      0.99965     2.19519    0.00808     3.20292
      C    9   -0.11336      0.99957     2.10377    0.01003     3.11336
      C   10   -0.16086      0.99960     2.15407    0.00719     3.16086
      H   11    0.10222      0.00000     0.39654    0.00124     0.39778
      H   12    0.10280      0.00000     0.39631    0.00089     0.39720
      H   13    0.10280      0.00000     0.39631    0.00089     0.39720
      H   14    0.08816      0.00000     0.40984    0.00201     0.41184
      H   15    0.07439      0.00000     0.42389    0.00171     0.42561
      H   16    0.08759      0.00000     0.41052    0.00189     0.41241
      H   17    0.08759      0.00000     0.41052    0.00189     0.41241
      H   18    0.08386      0.00000     0.41496    0.00118     0.41614
      H   19    0.08602      0.00000     0.41195    0.00204     0.41398
      H   20    0.07574      0.00000     0.42307    0.00119     0.42426
      H   21    0.10563      0.00000     0.39329    0.00108     0.39437
 =======================================================================
   * Total *    0.00000      9.99624    26.87541    0.12835    37.00000

 Normal termination of Gaussian 16 at Mon Dec 14 16:37:56 2020.
