 Gaussian 16, Revision A.03,

 -----------------------------------------------------------
 # opt freq B3LYP/6-31G(d) empiricaldispersion=gd3bj scf=xqc
 -----------------------------------------------------------

 -------------------------------
 CID_143675483_JID_1381_neutraal
 -------------------------------
 Symbolic Z-matrix:
 Charge =  0 Multiplicity = 1

 SCF Done:  E(RB3LYP) =  -520.239045099     A.U. after   14 cycles
 SCF Done:  E(RB3LYP) =  -520.242172950     A.U. after   12 cycles
 SCF Done:  E(RB3LYP) =  -520.241899365     A.U. after   12 cycles
 SCF Done:  E(RB3LYP) =  -520.242647291     A.U. after   12 cycles
 SCF Done:  E(RB3LYP) =  -520.242844131     A.U. after   11 cycles
 SCF Done:  E(RB3LYP) =  -520.242978143     A.U. after   11 cycles
 SCF Done:  E(RB3LYP) =  -520.243110444     A.U. after   10 cycles
 SCF Done:  E(RB3LYP) =  -520.243273562     A.U. after   11 cycles
 SCF Done:  E(RB3LYP) =  -520.243453455     A.U. after   11 cycles
 SCF Done:  E(RB3LYP) =  -520.243532675     A.U. after   11 cycles
 SCF Done:  E(RB3LYP) =  -520.254982124     A.U. after    8 cycles
 SCF Done:  E(RB3LYP) =  -520.254982456     A.U. after    8 cycles
 SCF Done:  E(RB3LYP) =  -520.254982738     A.U. after    7 cycles
 SCF Done:  E(RB3LYP) =  -520.254982905     A.U. after    7 cycles
 Optimization completed.
    -- Stationary point found.
 Normal termination of Gaussian 16 at Tue Dec  8 20:35:34 2020.

 --------------------------------------------------------------------
 #N Geom=AllCheck Guess=TCheck SCRF=Check GenChk RB3LYP/6-31G(d) Freq
 --------------------------------------------------------------------

 Structure from the checkpoint file:  "JID_1381.chk"
 -------------------------------
 CID_143675483_JID_1381_neutraal
 -------------------------------
 Charge =  0 Multiplicity = 1

 SCF Done:  E(RB3LYP) =  -520.254982905     A.U. after    2 cycles

  Exact polarizability:  89.311   4.503 109.442   3.782   3.828  85.934
 Approx polarizability: 112.919   3.636 157.410   1.762   8.896 126.917

                      1                      2                      3
                      A                      A                      A
 Frequencies --     30.6693                34.8823                41.9801
 Red. masses --      4.3054                 3.3266                 4.2248
 Frc consts  --      0.0024                 0.0024                 0.0044
 IR Inten    --      0.4094                 0.0390                 0.5851

                      4                      5                      6
                      A                      A                      A
 Frequencies --     56.0092                60.3734                72.4133
 Red. masses --      3.1286                 4.3109                 2.9900
 Frc consts  --      0.0058                 0.0093                 0.0092
 IR Inten    --      0.0895                 0.1592                 0.1639

                      7                      8                      9
                      A                      A                      A
 Frequencies --     79.6840                82.3863               110.1161
 Red. masses --      5.0511                 2.7101                 2.0292
 Frc consts  --      0.0189                 0.0108                 0.0145
 IR Inten    --      0.1826                 0.2601                 0.8069

                     10                     11                     12
                      A                      A                      A
 Frequencies --    121.0340               126.9112               148.7142
 Red. masses --      4.2867                 4.6193                 3.4061
 Frc consts  --      0.0370                 0.0438                 0.0444
 IR Inten    --      2.3579                 1.2874                 0.6992

                     13                     14                     15
                      A                      A                      A
 Frequencies --    221.3522               258.7985               267.1893
 Red. masses --      1.0302                 2.4783                 1.1931
 Frc consts  --      0.0297                 0.0978                 0.0502
 IR Inten    --      0.4545                15.4456                 1.6853

                     16                     17                     18
                      A                      A                      A
 Frequencies --    277.0328               319.5508               366.8837
 Red. masses --      1.0514                 1.3210                 2.1023
 Frc consts  --      0.0475                 0.0795                 0.1667
 IR Inten    --      0.0729                35.9223                 0.0133

                     19                     20                     21
                      A                      A                      A
 Frequencies --    370.7231               436.4621               466.9875
 Red. masses --      2.0834                 1.9303                 4.8684
 Frc consts  --      0.1687                 0.2167                 0.6255
 IR Inten    --      0.1586                 0.6778                27.9213

                     22                     23                     24
                      A                      A                      A
 Frequencies --    511.0534               581.5678               588.4913
 Red. masses --      1.5755                 1.4445                 1.4260
 Frc consts  --      0.2424                 0.2879                 0.2910
 IR Inten    --     39.0678                 4.7550                 4.0356

                     25                     26                     27
                      A                      A                      A
 Frequencies --    640.5132               676.4425               805.9271
 Red. masses --      4.1314                 1.3647                 2.8130
 Frc consts  --      0.9986                 0.3679                 1.0765
 IR Inten    --      8.6047               142.3170                 0.8505

                     28                     29                     30
                      A                      A                      A
 Frequencies --    814.5067               834.1603               840.0004
 Red. masses --      1.1631                 1.4778                 1.5684
 Frc consts  --      0.4546                 0.6059                 0.6520
 IR Inten    --    126.0047                35.1923               110.0118

                     31                     32                     33
                      A                      A                      A
 Frequencies --    928.3380               935.9708               940.0144
 Red. masses --      1.6121                 1.2537                 1.2393
 Frc consts  --      0.8186                 0.6471                 0.6452
 IR Inten    --      8.0902                11.7487                 0.8499

                     34                     35                     36
                      A                      A                      A
 Frequencies --    943.5477               969.5133               984.4287
 Red. masses --      1.6427                 1.2009                 1.7743
 Frc consts  --      0.8617                 0.6651                 1.0131
 IR Inten    --    139.9708                 0.0393                 0.0253

                     37                     38                     39
                      A                      A                      A
 Frequencies --    985.4941              1151.0457              1186.2189
 Red. masses --      1.7296                 3.2995                 2.2015
 Frc consts  --      0.9897                 2.5757                 1.8251
 IR Inten    --      0.0202               126.4958               127.4539

                     40                     41                     42
                      A                      A                      A
 Frequencies --   1201.6097              1208.5117              1208.7864
 Red. masses --      1.3236                 1.7085                 1.7058
 Frc consts  --      1.1260                 1.4702                 1.4685
 IR Inten    --     11.3081                 1.8388                 2.0668

                     43                     44                     45
                      A                      A                      A
 Frequencies --   1227.6123              1331.9055              1376.1253
 Red. masses --      1.9022                 1.5025                 1.4000
 Frc consts  --      1.6890                 1.5704                 1.5621
 IR Inten    --      0.5932                 9.6355                 3.6694

                     46                     47                     48
                      A                      A                      A
 Frequencies --   1378.4394              1398.8960              1423.6977
 Red. masses --      1.3970                 1.2153                 1.8736
 Frc consts  --      1.5639                 1.4012                 2.2375
 IR Inten    --      3.0963                 1.6164                19.2077

                     49                     50                     51
                      A                      A                      A
 Frequencies --   1429.5334              1433.7987              1459.5680
 Red. masses --      1.2763                 1.2589                 1.2288
 Frc consts  --      1.5367                 1.5248                 1.5423
 IR Inten    --      1.7952                 4.7809                 1.2591

                     52                     53                     54
                      A                      A                      A
 Frequencies --   1479.9687              1513.5808              1517.5407
 Red. masses --      1.0884                 1.0499                 1.0418
 Frc consts  --      1.4046                 1.4172                 1.4135
 IR Inten    --     17.4586                 0.3371                 1.4481

                     55                     56                     57
                      A                      A                      A
 Frequencies --   1521.0704              1537.1453              1543.8996
 Red. masses --      1.0421                 1.0587                 1.0524
 Frc consts  --      1.4205                 1.4738                 1.4779
 IR Inten    --      0.3793                 1.9885                 4.2646

                     58                     59                     60
                      A                      A                      A
 Frequencies --   1544.7148              1712.8686              1825.7386
 Red. masses --      1.0489                 1.0881                 9.4521
 Frc consts  --      1.4746                 1.8809                18.5634
 IR Inten    --     14.5884                38.2293               300.2009

                     61                     62                     63
                      A                      A                      A
 Frequencies --   2074.9401              3015.6750              3037.2211
 Red. masses --      3.7727                 1.0836                 1.0348
 Frc consts  --      9.5700                 5.8064                 5.6243
 IR Inten    --      1.5448                23.5263                30.1150

                     64                     65                     66
                      A                      A                      A
 Frequencies --   3043.1880              3050.6953              3056.5295
 Red. masses --      1.0353                 1.0366                 1.0634
 Frc consts  --      5.6489                 5.6843                 5.8533
 IR Inten    --     38.4227                 9.2930                17.7333

                     67                     68                     69
                      A                      A                      A
 Frequencies --   3098.6089              3101.8923              3105.4146
 Red. masses --      1.0999                 1.1014                 1.1023
 Frc consts  --      6.2221                 6.2441                 6.2633
 IR Inten    --     14.6360                 9.5749                 6.6473

                     70                     71                     72
                      A                      A                      A
 Frequencies --   3109.4077              3112.2157              3117.6178
 Red. masses --      1.1017                 1.1008                 1.1015
 Frc consts  --      6.2760                 6.2818                 6.3080
 IR Inten    --     49.9238                79.5183                36.7297

                     73                     74                     75
                      A                      A                      A
 Frequencies --   3127.1680              3400.9000              3488.4206
 Red. masses --      1.1007                 1.0954                 1.0502
 Frc consts  --      6.3419                 7.4646                 7.5295
 IR Inten    --     40.9988               198.6436                 6.6196

                     76                     77                     78
                      A                      A                      A
 Frequencies --   3520.5747              3567.4107              3677.4368
 Red. masses --      1.2204                 1.0924                 1.0642
 Frc consts  --      8.9122                 8.1910                 8.4795
 IR Inten    --      2.2315                 9.7189                39.8927

 - Thermochemistry -
 -------------------
 Temperature   298.150 Kelvin.  Pressure   1.00000 Atm.
 Atom     1 has atomic number  6 and mass  12.00000

 Molecular mass:   159.12593 amu.
 Principal axes and moments of inertia in atomic units:
                           1         2         3
     Eigenvalues --  2131.266672432.020083614.81297
           X            0.99922   0.03867   0.00820
           Y           -0.03865   0.99925  -0.00203
           Z           -0.00827   0.00171   0.99996
 This molecule is an asymmetric top.
 Rotational symmetry number  1.
 Warning -- assumption of classical behavior for rotation
           may cause significant error
 Rotational temperatures (Kelvin)      0.04064     0.03561     0.02396
 Rotational constants (GHZ):           0.84679     0.74207     0.49926
 Zero-point vibrational energy     635502.5 (Joules/Mol)
                                  151.88874 (Kcal/Mol)
 Warning -- explicit consideration of  24 degrees of freedom as
           vibrations may cause significant error
 Vibrational temperatures:     44.13    50.19    60.40    80.58    86.86
          (Kelvin)            104.19   114.65   118.54   158.43   174.14
                              182.60   213.97   318.48   372.35   384.43
                              398.59   459.76   527.86   533.39   627.97
                              671.89   735.29   836.75   846.71   921.56
                              973.25  1159.55  1171.89  1200.17  1208.57
                             1335.67  1346.65  1352.47  1357.55  1394.91
                             1416.37  1417.91  1656.10  1706.70  1728.85
                             1738.78  1739.17  1766.26  1916.31  1979.94
                             1983.27  2012.70  2048.38  2056.78  2062.92
                             2099.99  2129.34  2177.71  2183.40  2188.48
                             2211.61  2221.33  2222.50  2464.44  2626.83
                             2985.38  4338.88  4369.88  4378.47  4389.27
                             4397.66  4458.21  4462.93  4468.00  4473.74
                             4477.78  4485.56  4499.30  4893.14  5019.06
                             5065.32  5132.71  5291.01

 Zero-point correction=                           0.242050 (Hartree/Particle)
 Thermal correction to Energy=                    0.259310
 Thermal correction to Enthalpy=                  0.260254
 Thermal correction to Gibbs Free Energy=         0.194709
 Sum of electronic and zero-point Energies=           -520.012933
 Sum of electronic and thermal Energies=              -519.995673
 Sum of electronic and thermal Enthalpies=            -519.994729
 Sum of electronic and thermal Free Energies=         -520.060274

                     E (Thermal)             CV                S
                      KCal/Mol        Cal/Mol-Kelvin    Cal/Mol-Kelvin
 Total                  162.719             57.151            137.952
 Electronic               0.000              0.000              0.000
 Translational            0.889              2.981             41.103
 Rotational               0.889              2.981             31.305
 Vibrational            160.942             51.189             65.544
 Vibration     1          0.594              1.984              5.786
 Vibration     2          0.594              1.983              5.530
 Vibration     3          0.595              1.980              5.163
 Vibration     4          0.596              1.975              4.593
 Vibration     5          0.597              1.973              4.445
 Vibration     6          0.599              1.967              4.087
 Vibration     7          0.600              1.963              3.899
 Vibration     8          0.600              1.961              3.833
 Vibration     9          0.606              1.941              3.267
 Vibration    10          0.609              1.932              3.084
 Vibration    11          0.611              1.926              2.992
 Vibration    12          0.618              1.904              2.689
 Vibration    13          0.648              1.809              1.948
 Vibration    14          0.668              1.748              1.670
 Vibration    15          0.672              1.733              1.614
 Vibration    16          0.678              1.716              1.552
 Vibration    17          0.705              1.636              1.312
 Vibration    18          0.740              1.540              1.093
 Vibration    19          0.743              1.532              1.077
 Vibration    20          0.797              1.391              0.838
 Vibration    21          0.824              1.323              0.746
 Vibration    22          0.866              1.226              0.631
 Vibration    23          0.938              1.071              0.482
 Vibration    24          0.946              1.056              0.470

                           ! Non-Optimized Parameters !
 Normal termination of Gaussian 16 at Tue Dec  8 20:41:48 2020.

 ----------------------------------------------------------------------
 # B3LYP/6-311++G(d,p) empiricaldispersion=gd3bj scf=xqc pop=npa geom=c
 heck
 ----------------------------------------------------------------------

 ---------------------------------------
 CID_143675483_JID_1381_Energie_neutraal
 ---------------------------------------
 Structure from the checkpoint file:  "JID_1381.chk"
 Charge =  0 Multiplicity = 1

 SCF Done:  E(RB3LYP) =  -520.432556181     A.U. after   14 cycles
 Normal termination of Gaussian 16 at Tue Dec  8 20:45:52 2020.

 ----------------------------------------------------------------------
 # B3LYP/6-311++G(d,p) empiricaldispersion=gd3bj scf=xqc pop=npa geom=c
 heck
 ----------------------------------------------------------------------

 -------------------------------------
 CID_143675483_JID_1381_Energie_kation
 -------------------------------------
 Structure from the checkpoint file:  "JID_1381.chk"
 Charge =  1 Multiplicity = 2

 SCF Done:  E(UB3LYP) =  -520.088493574     A.U. after   33 cycles
 SCF Done:  E(UB3LYP) =  -520.088493574     a.u. after    2 cycles
 Normal termination of Gaussian 16 at Tue Dec  8 21:04:03 2020.
 Gaussian 16:  ES64L-G16RevA.03 25-Dec-2016

 ----------------------------------------------------------------------
 # B3LYP/6-311++G(d,p) empiricaldispersion=gd3bj scf=xqc pop=npa geom=c
 heck
 ----------------------------------------------------------------------

 ------------------------------------
 CID_143675483_JID_1381_Energie_anion
 ------------------------------------
 Structure from the checkpoint file:  "JID_1381.chk"
 Charge = -1 Multiplicity = 2

                         Standard orientation:
 ---------------------------------------------------------------------
 Center     Atomic      Atomic             Coordinates (Angstroms)
 Number     Number       Type             X           Y           Z
 ---------------------------------------------------------------------
      1          6           0        1.465469   -0.757838   -1.316232
      2          6           0        2.542505   -0.289452   -0.330516
      3          6           0        2.768912    1.223321   -0.445635
      4          6           0        2.187101   -0.686952    1.107750
      5          6           0       -1.057429   -3.528980    0.113548
      6          6           0       -1.064082   -2.486227    0.720788
      7          6           0       -1.951490    1.215583   -0.874917
      8          6           0       -1.219151    1.409847    0.447358
      9          8           0       -1.167092    0.606649    1.357306
     10          8           0       -0.613559    2.616398    0.513051
     11          7           0       -2.602139   -0.063113   -1.059777
     12          1           0        0.503707   -0.282918   -1.087847
     13          1           0        1.309218   -1.839702   -1.257733
     14          1           0        1.728462   -0.499977   -2.349018
     15          1           0        3.483525   -0.792449   -0.598295
     16          1           0        1.847710    1.773675   -0.214198
     17          1           0        3.546941    1.564590    0.247674
     18          1           0        3.074833    1.505697   -1.460004
     19          1           0        2.018977   -1.766432    1.192066
     20          1           0        2.988517   -0.411384    1.803858
     21          1           0        1.268829   -0.185650    1.436214
     22          1           0       -1.047815   -4.458361   -0.409622
     23          1           0       -1.083525   -1.539815    1.221991
     24          1           0       -1.226701    1.384775   -1.679819
     25          1           0       -2.684538    2.028199   -0.961847
     26          1           0       -0.163355    2.656909    1.378363
     27          1           0       -3.217491   -0.257983   -0.272718
     28          1           0       -1.918127   -0.817570   -1.066348
 ---------------------------------------------------------------------

 SCF Done:  E(UB3LYP) =  -520.419444999     A.U. after   33 cycles
 SCF Done:  E(UB3LYP) =  -520.419444999     a.u. after    1 cycles

 The electronic state is 2-A.
 Alpha  occ. eigenvalues --  -19.07518 -19.02858 -14.20591 -10.21449 -10.11827
 Alpha  occ. eigenvalues --  -10.08417 -10.08122 -10.07162 -10.05520 -10.05193
 Alpha  occ. eigenvalues --  -10.05019  -1.01861  -0.93090  -0.80092  -0.70051
 Alpha  occ. eigenvalues --   -0.66218  -0.62874  -0.58135  -0.57882  -0.50981
 Alpha  occ. eigenvalues --   -0.47471  -0.45912  -0.42052  -0.41441  -0.41022
 Alpha  occ. eigenvalues --   -0.38918  -0.36498  -0.35335  -0.34032  -0.33053
 Alpha  occ. eigenvalues --   -0.32935  -0.31198  -0.28695  -0.28227  -0.27850
 Alpha  occ. eigenvalues --   -0.26238  -0.23578  -0.22939  -0.22830  -0.22136
 Alpha  occ. eigenvalues --   -0.20432  -0.20114  -0.19992  -0.16170   0.04394
 Alpha virt. eigenvalues --    0.06048   0.07029   0.07739   0.08243   0.09049
 Alpha virt. eigenvalues --    0.09583   0.09979   0.10230   0.10658   0.10801
 Alpha virt. eigenvalues --    0.11235   0.12428   0.12909   0.13318   0.14145

  Beta  occ. eigenvalues --  -19.07454 -19.02845 -14.20578 -10.21435 -10.11791
  Beta  occ. eigenvalues --  -10.08402 -10.08117 -10.07154 -10.05500 -10.05162
  Beta  occ. eigenvalues --  -10.05005  -1.01780  -0.93024  -0.80068  -0.70026
  Beta  occ. eigenvalues --   -0.66207  -0.62769  -0.58090  -0.57835  -0.50854
  Beta  occ. eigenvalues --   -0.47429  -0.45856  -0.42015  -0.41400  -0.40978
  Beta  occ. eigenvalues --   -0.38887  -0.36450  -0.35280  -0.33955  -0.33021
  Beta  occ. eigenvalues --   -0.32907  -0.31147  -0.28666  -0.28199  -0.27818
  Beta  occ. eigenvalues --   -0.26212  -0.23529  -0.22911  -0.22803  -0.22100
  Beta  occ. eigenvalues --   -0.20414  -0.20083  -0.19976  -0.16142
  Beta virt. eigenvalues --    0.06612   0.07358   0.07656   0.08392   0.08738
  Beta virt. eigenvalues --    0.09297   0.09996   0.10210   0.10326   0.10880
  Beta virt. eigenvalues --    0.10993   0.11367   0.12681   0.13083   0.13410

 Mulliken charges and spin densities:
               1          2
     1  C    0.476566  -0.967320
     2  C   -1.172663   1.484288
     3  C    0.338863  -0.898939
     4  C    0.356164  -0.940196
     5  C   -1.265974   0.650154
     6  C    1.588707  -1.467474
     7  C    0.377746  -0.877292
     8  C    0.579806  -0.592227
     9  O   -0.310989   0.042061
    10  O   -0.127128   0.040677
    11  N   -0.297278  -0.035498
    12  H    0.387310  -0.356223
    13  H    0.049726   0.099086
    14  H   -0.144735   0.281710
    15  H   -0.210634   0.365844
    16  H    0.146600  -0.009337
    17  H   -0.330493   0.466428
    18  H   -0.091092   0.203284
    19  H    0.104463   0.019942
    20  H   -0.041982   0.172110
    21  H   -0.129128   0.269782
    22  H   -0.791352   1.003358
    23  H    0.267891   0.046910
    24  H    0.105991   0.145269
    25  H   -0.744772   0.944880
    26  H   -0.561956   0.873776
    27  H    0.180208   0.050894
    28  H    0.260136  -0.015948
 Sum of Mulliken charges =  -1.00000   1.00000

 Dipole moment (field-independent basis, Debye):
    X=             -0.3981    Y=             -1.9913    Z=             -0.6145  Tot=              2.1216
 Quadrupole moment (field-independent basis, Debye-Ang):
   XX=           -120.1735   YY=           -133.7409   ZZ=           -106.3669
   XY=             -1.0864   XZ=             -3.6358   YZ=             -7.4318

 Summary of Natural Population Analysis:

                                       Natural Population
                Natural  -----------------------------------------------
    Atom  No    Charge         Core      Valence    Rydberg      Total
 -----------------------------------------------------------------------
      C    1   -0.28174      0.99964     2.27597    0.00613     3.28174
      C    2   -0.11478      0.99964     2.10685    0.00829     3.11478
      C    3   -0.28489      0.99965     2.27918    0.00606     3.28489
      C    4   -0.28747      0.99965     2.28164    0.00618     3.28747
      C    5   -0.12579      0.99939     2.12163    0.00477     3.12579
      C    6   -0.11517      0.99939     2.10995    0.00582     3.11517
      C    7   -0.14237      0.99960     2.13028    0.01249     3.14237
      C    8    0.40285      0.99972     1.57142    0.02600     2.59715
      O    9   -0.32267      0.99986     3.31425    0.00856     4.32267
      O   10   -0.34125      0.99987     3.33410    0.00728     4.34125
      N   11   -0.41476      0.99978     2.90573    0.00926     3.91476
      H   12    0.08917      0.00000     0.40854    0.00229     0.41083
      H   13    0.10201      0.00000     0.39680    0.00120     0.39799
      H   14    0.09659      0.00000     0.40248    0.00093     0.40341
      H   15    0.08746      0.00000     0.41085    0.00169     0.41254
      H   16    0.09867      0.00000     0.39962    0.00171     0.40133
      H   17    0.09828      0.00000     0.40053    0.00119     0.40172
      H   18    0.09633      0.00000     0.40263    0.00104     0.40367
      H   19    0.09883      0.00000     0.40017    0.00100     0.40117
      H   20    0.09640      0.00000     0.40268    0.00092     0.40360
      H   21    0.10174      0.00000     0.39623    0.00203     0.39826
      H   22    0.11032      0.00000     0.38794    0.00174     0.38968
      H   23    0.12614      0.00000     0.37201    0.00185     0.37386
      H   24    0.10915      0.00000     0.38960    0.00125     0.39085
      H   25    0.10995      0.00000     0.38820    0.00186     0.39005
      H   26    0.24878      0.00000     0.23131    0.01990     0.25122
      H   27    0.17619      0.00000     0.32172    0.00209     0.32381
      H   28    0.18204      0.00000     0.31544    0.00253     0.31796
 =======================================================================
   * Total *   -0.00000     10.99619    32.85774    0.14607    44.00000

 Normal termination of Gaussian 16 at Tue Dec  8 21:14:59 2020.
