 Gaussian 16, Revision A.03,

 -----------------------------------------------------------
 # opt freq B3LYP/6-31G(d) empiricaldispersion=gd3bj scf=xqc
 -----------------------------------------------------------

 -------------------------------
 CID_146821046_JID_6785_neutraal
 -------------------------------
 Symbolic Z-matrix:
 Charge =  0 Multiplicity = 1

 SCF Done:  E(RB3LYP) =  -727.892172994     A.U. after   14 cycles
 SCF Done:  E(RB3LYP) =  -727.897979509     A.U. after   13 cycles
 SCF Done:  E(RB3LYP) =  -727.898930754     A.U. after   12 cycles
 SCF Done:  E(RB3LYP) =  -727.899608523     A.U. after   13 cycles
 SCF Done:  E(RB3LYP) =  -727.899994946     A.U. after   12 cycles
 SCF Done:  E(RB3LYP) =  -727.900234460     A.U. after   12 cycles
 SCF Done:  E(RB3LYP) =  -727.900688236     A.U. after   12 cycles
 SCF Done:  E(RB3LYP) =  -727.900631837     A.U. after   12 cycles
 SCF Done:  E(RB3LYP) =  -727.900933270     A.U. after   12 cycles
 SCF Done:  E(RB3LYP) =  -727.900352813     A.U. after   13 cycles
 SCF Done:  E(RB3LYP) =  -727.906578918     A.U. after    7 cycles
 SCF Done:  E(RB3LYP) =  -727.906579041     A.U. after    7 cycles
 SCF Done:  E(RB3LYP) =  -727.906579263     A.U. after    7 cycles
 SCF Done:  E(RB3LYP) =  -727.906579446     A.U. after    7 cycles
 SCF Done:  E(RB3LYP) =  -727.906579937     A.U. after    8 cycles
 SCF Done:  E(RB3LYP) =  -727.906580462     A.U. after    8 cycles
 Optimization completed.
    -- Stationary point found.
 Normal termination of Gaussian 16 at Fri Dec 11 01:01:06 2020.

 --------------------------------------------------------------------
 #N Geom=AllCheck Guess=TCheck SCRF=Check GenChk RB3LYP/6-31G(d) Freq
 --------------------------------------------------------------------

 Structure from the checkpoint file:  "JID_6785.chk"
 -------------------------------
 CID_146821046_JID_6785_neutraal
 -------------------------------
 Charge =  0 Multiplicity = 1

 SCF Done:  E(RB3LYP) =  -727.906580462     A.U. after    1 cycles

  Exact polarizability: 169.860  -4.500 144.165  -2.559   2.102 119.457
 Approx polarizability: 219.496  -1.168 194.047  -4.641  -1.329 183.144

                      1                      2                      3
                      A                      A                      A
 Frequencies --     31.2818                41.0772                55.2205
 Red. masses --      3.0549                 3.1630                 3.3906
 Frc consts  --      0.0018                 0.0031                 0.0061
 IR Inten    --      1.7827                 0.8095                 1.9111

                      4                      5                      6
                      A                      A                      A
 Frequencies --     67.8182                79.3062                94.8435
 Red. masses --      1.7774                 3.2740                 2.9432
 Frc consts  --      0.0048                 0.0121                 0.0156
 IR Inten    --      0.1175                 0.1050                 0.9685

                      7                      8                      9
                      A                      A                      A
 Frequencies --    119.1075               155.8940               171.4694
 Red. masses --      3.1332                 2.3459                 2.0659
 Frc consts  --      0.0262                 0.0336                 0.0358
 IR Inten    --      1.0171                 2.0277                 3.2344

                     10                     11                     12
                      A                      A                      A
 Frequencies --    181.8737               196.9736               231.2224
 Red. masses --      3.4255                 1.7541                 3.2953
 Frc consts  --      0.0668                 0.0401                 0.1038
 IR Inten    --      0.5563                 0.6986                 6.1357

                     13                     14                     15
                      A                      A                      A
 Frequencies --    263.1897               273.2622               282.6547
 Red. masses --      1.9603                 3.0129                 2.5014
 Frc consts  --      0.0800                 0.1326                 0.1177
 IR Inten    --      2.9509                 1.7899                 0.7992

                     16                     17                     18
                      A                      A                      A
 Frequencies --    299.0406               358.3022               375.3366
 Red. masses --      2.4640                 2.3087                 3.1569
 Frc consts  --      0.1298                 0.1746                 0.2620
 IR Inten    --      2.9193                 0.0951                 2.5203

                     19                     20                     21
                      A                      A                      A
 Frequencies --    389.4717               399.1449               438.1877
 Red. masses --      2.0845                 2.2705                 2.4317
 Frc consts  --      0.1863                 0.2131                 0.2751
 IR Inten    --      1.3134                 0.5404                 6.0972

                     22                     23                     24
                      A                      A                      A
 Frequencies --    461.4119               475.2532               520.2572
 Red. masses --      2.2294                 1.5109                 3.0741
 Frc consts  --      0.2797                 0.2011                 0.4902
 IR Inten    --      9.7213                28.7149                 2.3703

                     25                     26                     27
                      A                      A                      A
 Frequencies --    553.4838               566.1286               615.9071
 Red. masses --      2.8013                 3.9177                 2.0481
 Frc consts  --      0.5056                 0.7398                 0.4578
 IR Inten    --      5.8928                14.1787                50.6481

                     28                     29                     30
                      A                      A                      A
 Frequencies --    633.2466               720.4597               768.2970
 Red. masses --      3.8393                 2.2686                 2.7212
 Frc consts  --      0.9071                 0.6938                 0.9464
 IR Inten    --     16.8709                 2.0762                11.6185

                     31                     32                     33
                      A                      A                      A
 Frequencies --    783.5230               805.3656               819.2817
 Red. masses --      1.7432                 1.6446                 2.3720
 Frc consts  --      0.6305                 0.6285                 0.9381
 IR Inten    --    113.5939                23.4186                10.9145

                     34                     35                     36
                      A                      A                      A
 Frequencies --    829.3281               844.3433               877.8678
 Red. masses --      2.5609                 1.4965                 2.3634
 Frc consts  --      1.0378                 0.6286                 1.0731
 IR Inten    --      5.2444                 3.5269                 8.6943

                     37                     38                     39
                      A                      A                      A
 Frequencies --    907.9967               942.3064              1001.8093
 Red. masses --      2.3453                 1.6335                 2.0003
 Frc consts  --      1.1392                 0.8546                 1.1828
 IR Inten    --      2.2553                60.6664                 1.5215

                     40                     41                     42
                      A                      A                      A
 Frequencies --   1007.2977              1017.2803              1039.2550
 Red. masses --      2.0040                 1.9172                 1.5338
 Frc consts  --      1.1980                 1.1690                 0.9760
 IR Inten    --     13.1224                17.8577                 4.1478

                     43                     44                     45
                      A                      A                      A
 Frequencies --   1045.6480              1064.6602              1068.7188
 Red. masses --      1.8341                 1.8127                 2.0649
 Frc consts  --      1.1815                 1.2106                 1.3895
 IR Inten    --      2.7832                31.1153                 4.5216

                     46                     47                     48
                      A                      A                      A
 Frequencies --   1071.0421              1116.6481              1146.7224
 Red. masses --      1.8219                 1.4595                 2.7910
 Frc consts  --      1.2314                 1.0722                 2.1623
 IR Inten    --      5.1433                15.4752                12.1638

                     49                     50                     51
                      A                      A                      A
 Frequencies --   1153.2451              1160.7486              1163.2091
 Red. masses --      2.1220                 1.2661                 2.6109
 Frc consts  --      1.6628                 1.0050                 2.0814
 IR Inten    --      4.1143                 2.2295                31.0664

                     52                     53                     54
                      A                      A                      A
 Frequencies --   1178.3009              1182.1053              1198.2100
 Red. masses --      1.6850                 2.3523                 2.3024
 Frc consts  --      1.3783                 1.9367                 1.9476
 IR Inten    --     29.9996                 7.4411                29.1430

                     55                     56                     57
                      A                      A                      A
 Frequencies --   1209.7524              1215.0122              1229.6191
 Red. masses --      2.1317                 2.1705                 1.2686
 Frc consts  --      1.8381                 1.8878                 1.1301
 IR Inten    --      5.4311                14.4816                 6.5884

                     58                     59                     60
                      A                      A                      A
 Frequencies --   1249.3985              1255.2817              1295.3377
 Red. masses --      1.2046                 1.2729                 1.3566
 Frc consts  --      1.1079                 1.1817                 1.3411
 IR Inten    --      7.7168                 4.3919                12.9846

                     61                     62                     63
                      A                      A                      A
 Frequencies --   1322.3660              1327.5250              1337.3196
 Red. masses --      1.7759                 1.3722                 1.3451
 Frc consts  --      1.8296                 1.4248                 1.4173
 IR Inten    --    206.8716                13.8878                 3.3399

                     64                     65                     66
                      A                      A                      A
 Frequencies --   1354.7223              1365.1756              1373.0320
 Red. masses --      1.6286                 1.3562                 1.3319
 Frc consts  --      1.7611                 1.4892                 1.4794
 IR Inten    --     10.9954                14.3798                15.0682

                     67                     68                     69
                      A                      A                      A
 Frequencies --   1381.9367              1399.6417              1407.1357
 Red. masses --      1.3566                 1.3927                 1.3730
 Frc consts  --      1.5265                 1.6075                 1.6018
 IR Inten    --      2.9248                 9.2998                 5.3279

                     70                     71                     72
                      A                      A                      A
 Frequencies --   1415.7878              1422.3985              1430.5724
 Red. masses --      1.6079                 1.3765                 1.3853
 Frc consts  --      1.8989                 1.6408                 1.6704
 IR Inten    --     16.6484                 3.1613                 0.1279

                     73                     74                     75
                      A                      A                      A
 Frequencies --   1455.5735              1470.5552              1476.9250
 Red. masses --      1.3695                 1.4419                 1.1485
 Frc consts  --      1.7095                 1.8372                 1.4761
 IR Inten    --      5.1497                 6.1390                 1.5240

                     76                     77                     78
                      A                      A                      A
 Frequencies --   1489.4971              1499.1928              1502.8925
 Red. masses --      1.2847                 1.1043                 1.3056
 Frc consts  --      1.6792                 1.4623                 1.7374
 IR Inten    --     25.2961                 2.5595                15.2821

                     79                     80                     81
                      A                      A                      A
 Frequencies --   1503.7723              1514.9474              1519.7898
 Red. masses --      1.1269                 1.1046                 1.0772
 Frc consts  --      1.5014                 1.4937                 1.4659
 IR Inten    --      3.3992                 8.4227                 5.6035

                     82                     83                     84
                      A                      A                      A
 Frequencies --   1520.1890              1521.3279              1545.0956
 Red. masses --      1.1148                 1.1030                 1.0829
 Frc consts  --      1.5179                 1.5041                 1.5231
 IR Inten    --      6.5383                 5.9090                11.8206

                     85                     86                     87
                      A                      A                      A
 Frequencies --   1547.1855              1552.9287              1554.9438
 Red. masses --      1.0764                 1.1102                 1.0741
 Frc consts  --      1.5182                 1.5775                 1.5301
 IR Inten    --     36.2833                 1.3099                 6.9100

                     88                     89                     90
                      A                      A                      A
 Frequencies --   1557.8828              1584.9134              1760.6254
 Red. masses --      1.0890                 1.1312                 7.3660
 Frc consts  --      1.5572                 1.6742                13.4530
 IR Inten    --     16.5832                46.1808               444.5767

                     91                     92                     93
                      A                      A                      A
 Frequencies --   2948.7163              2968.4414              3016.0907
 Red. masses --      1.0691                 1.0615                 1.0578
 Frc consts  --      5.4769                 5.5109                 5.6697
 IR Inten    --     34.1684               104.9663                25.4566

                     94                     95                     96
                      A                      A                      A
 Frequencies --   3019.3531              3026.4447              3029.6371
 Red. masses --      1.0572                 1.0609                 1.0719
 Frc consts  --      5.6786                 5.7254                 5.7965
 IR Inten    --     82.8709                36.7350                13.0164

                     97                     98                     99
                      A                      A                      A
 Frequencies --   3037.7715              3040.6545              3042.7813
 Red. masses --      1.0828                 1.0884                 1.0465
 Frc consts  --      5.8871                 5.9287                 5.7085
 IR Inten    --      7.9834                 1.8069                95.4779

                    100                    101                    102
                      A                      A                      A
 Frequencies --   3043.3506              3045.9828              3054.5841
 Red. masses --      1.0731                 1.0957                 1.0778
 Frc consts  --      5.8558                 5.9894                 5.9250
 IR Inten    --     42.3676                73.4145                32.0683

                    103                    104                    105
                      A                      A                      A
 Frequencies --   3058.2276              3058.6534              3065.1965
 Red. masses --      1.0894                 1.0870                 1.0713
 Frc consts  --      6.0034                 5.9917                 5.9304
 IR Inten    --     65.3636                27.8768                96.4105

                    106                    107                    108
                      A                      A                      A
 Frequencies --   3087.3873              3095.3399              3099.8746
 Red. masses --      1.1023                 1.1011                 1.1009
 Frc consts  --      6.1905                 6.2155                 6.2328
 IR Inten    --     33.3697                51.3476                28.1707

                    109                    110                    111
                      A                      A                      A
 Frequencies --   3107.5154              3112.1092              3153.7621
 Red. masses --      1.1027                 1.1004                 1.1004
 Frc consts  --      6.2741                 6.2794                 6.4487
 IR Inten    --     37.3108                38.4336                17.0258

                    112                    113                    114
                      A                      A                      A
 Frequencies --   3503.7283              3531.8087              3599.8246
 Red. masses --      1.0734                 1.0740                 1.0767
 Frc consts  --      7.7636                 7.8930                 8.2204
 IR Inten    --     22.2211                28.7360                22.0451

 - Thermochemistry -
 -------------------
 Temperature   298.150 Kelvin.  Pressure   1.00000 Atm.
 Atom     1 has atomic number  6 and mass  12.00000

 Molecular mass:   228.19501 amu.
 Principal axes and moments of inertia in atomic units:
                           1         2         3
     Eigenvalues --  2824.782184493.541666314.77267
           X            0.99999   0.00271   0.00171
           Y           -0.00274   0.99989   0.01473
           Z           -0.00167  -0.01473   0.99989
 This molecule is an asymmetric top.
 Rotational symmetry number  1.
 Warning -- assumption of classical behavior for rotation
           may cause significant error
 Rotational temperatures (Kelvin)      0.03066     0.01928     0.01372
 Rotational constants (GHZ):           0.63890     0.40163     0.28580
 Zero-point vibrational energy     960371.2 (Joules/Mol)
                                  229.53422 (Kcal/Mol)
 Warning -- explicit consideration of  27 degrees of freedom as
           vibrations may cause significant error
 Vibrational temperatures:     45.01    59.10    79.45    97.58   114.10
          (Kelvin)            136.46   171.37   224.30   246.71   261.68
                              283.40   332.68   378.67   393.16   406.68
                              430.25   515.52   540.03   560.36   574.28
                              630.45   663.87   683.78   748.53   796.34
                              814.53   886.15   911.10  1036.58  1105.41
                             1127.31  1158.74  1178.76  1193.22  1214.82
                             1263.06  1306.40  1355.77  1441.38  1449.28
                             1463.64  1495.26  1504.45  1531.81  1537.65
                             1540.99  1606.61  1649.88  1659.26  1670.06
                             1673.60  1695.31  1700.79  1723.96  1740.56
                             1748.13  1769.15  1797.61  1806.07  1863.70
                             1902.59  1910.01  1924.10  1949.14  1964.18
                             1975.49  1988.30  2013.77  2024.55  2037.00
                             2046.51  2058.27  2094.25  2115.80  2124.97
                             2143.05  2157.00  2162.33  2163.59  2179.67
                             2186.64  2187.21  2188.85  2223.05  2226.05
                             2234.32  2237.22  2241.45  2280.34  2533.15
                             4242.55  4270.93  4339.48  4344.18  4354.38
                             4358.97  4370.68  4374.82  4377.88  4378.70
                             4382.49  4394.87  4400.11  4400.72  4410.13
                             4442.06  4453.50  4460.03  4471.02  4477.63
                             4537.56  5041.08  5081.49  5179.34

 Zero-point correction=                           0.365786 (Hartree/Particle)
 Thermal correction to Energy=                    0.383235
 Thermal correction to Enthalpy=                  0.384179
 Thermal correction to Gibbs Free Energy=         0.319881
 Sum of electronic and zero-point Energies=           -727.540794
 Sum of electronic and thermal Energies=              -727.523346
 Sum of electronic and thermal Enthalpies=            -727.522401
 Sum of electronic and thermal Free Energies=         -727.586700

                     E (Thermal)             CV                S
                      KCal/Mol        Cal/Mol-Kelvin    Cal/Mol-Kelvin
 Total                  240.483             65.631            135.327
 Electronic               0.000              0.000              0.000
 Translational            0.889              2.981             42.177
 Rotational               0.889              2.981             32.749
 Vibrational            238.706             59.669             60.401
 Vibration     1          0.594              1.983              5.746
 Vibration     2          0.594              1.981              5.206
 Vibration     3          0.596              1.975              4.621
 Vibration     4          0.598              1.970              4.216
 Vibration     5          0.600              1.963              3.908
 Vibration     6          0.603              1.953              3.558
 Vibration     7          0.609              1.933              3.115
 Vibration     8          0.620              1.896              2.599
 Vibration     9          0.626              1.878              2.419
 Vibration    10          0.630              1.864              2.309
 Vibration    11          0.636              1.844              2.161
 Vibration    12          0.653              1.793              1.869
 Vibration    13          0.670              1.740              1.641
 Vibration    14          0.676              1.723              1.575
 Vibration    15          0.682              1.706              1.518
 Vibration    16          0.692              1.675              1.422
 Vibration    17          0.733              1.558              1.129
 Vibration    18          0.746              1.523              1.058
 Vibration    19          0.757              1.493              1.002
 Vibration    20          0.765              1.472              0.966
 Vibration    21          0.798              1.387              0.832
 Vibration    22          0.819              1.336              0.762
 Vibration    23          0.832              1.305              0.723
 Vibration    24          0.875              1.205              0.609
 Vibration    25          0.909              1.132              0.537
 Vibration    26          0.922              1.105              0.512
 Vibration    27          0.975              0.998              0.423

                           ! Non-Optimized Parameters !
 Normal termination of Gaussian 16 at Fri Dec 11 01:16:08 2020.

 ----------------------------------------------------------------------
 # B3LYP/6-311++G(d,p) empiricaldispersion=gd3bj scf=xqc pop=npa geom=c
 heck
 ----------------------------------------------------------------------

 ---------------------------------------
 CID_146821046_JID_6785_Energie_neutraal
 ---------------------------------------
 Structure from the checkpoint file:  "JID_6785.chk"
 Charge =  0 Multiplicity = 1

 SCF Done:  E(RB3LYP) =  -728.121118948     A.U. after   14 cycles
 Normal termination of Gaussian 16 at Fri Dec 11 01:22:43 2020.

 ----------------------------------------------------------------------
 # B3LYP/6-311++G(d,p) empiricaldispersion=gd3bj scf=xqc pop=npa geom=c
 heck
 ----------------------------------------------------------------------

 -------------------------------------
 CID_146821046_JID_6785_Energie_kation
 -------------------------------------
 Structure from the checkpoint file:  "JID_6785.chk"
 Charge =  1 Multiplicity = 2

 SCF Done:  E(UB3LYP) =  -727.856389536     A.U. after   24 cycles
 Normal termination of Gaussian 16 at Fri Dec 11 01:38:07 2020.
 Gaussian 16:  ES64L-G16RevA.03 25-Dec-2016

 ----------------------------------------------------------------------
 # B3LYP/6-311++G(d,p) empiricaldispersion=gd3bj scf=xqc pop=npa geom=c
 heck
 ----------------------------------------------------------------------

 ------------------------------------
 CID_146821046_JID_6785_Energie_anion
 ------------------------------------
 Structure from the checkpoint file:  "JID_6785.chk"
 Charge = -1 Multiplicity = 2

                         Standard orientation:
 ---------------------------------------------------------------------
 Center     Atomic      Atomic             Coordinates (Angstroms)
 Number     Number       Type             X           Y           Z
 ---------------------------------------------------------------------
      1          6           0        1.363043    2.831475    0.962146
      2          7           0        1.730366    2.557769   -0.418349
      3          6           0        2.962339    1.792874   -0.591081
      4          6           0        2.999495    0.385091    0.027025
      5          7           0        2.016989   -0.473293   -0.622149
      6          6           0        1.822861   -1.794243   -0.020907
      7          6           0        0.875249   -2.617288   -0.902149
      8          6           0       -0.497277   -1.950369   -0.980176
      9          7           0       -1.049832   -1.631350    0.347758
     10          6           0       -0.147031   -1.083178    1.372573
     11          6           0        1.210575   -1.779988    1.395950
     12          6           0       -2.264111   -0.862745    0.249158
     13          6           0       -2.093401    0.577314   -0.287214
     14          8           0       -1.011796    1.034670   -0.658495
     15          7           0       -3.224165    1.334055   -0.338640
     16          6           0       -4.551064    0.952564    0.115417
     17          1           0        2.153984    3.425934    1.437435
     18          1           0        1.192099    1.941689    1.594513
     19          1           0        0.442141    3.423621    0.974008
     20          1           0        0.947872    2.110305   -0.889230
     21          1           0        3.147589    1.699850   -1.667785
     22          1           0        3.785806    2.382936   -0.165484
     23          1           0        3.998989   -0.044680   -0.129400
     24          1           0        2.864701    0.465220    1.121243
     25          1           0        1.124641    0.016312   -0.649938
     26          1           0        2.804323   -2.284890    0.013928
     27          1           0        1.281623   -2.704896   -1.915032
     28          1           0        0.779851   -3.625828   -0.481788
     29          1           0       -0.419916   -1.059427   -1.617868
     30          1           0       -1.210814   -2.628233   -1.469117
     31          1           0       -0.647794   -1.208881    2.342600
     32          1           0        0.014692   -0.004246    1.238827
     33          1           0        1.101926   -2.813235    1.748927
     34          1           0        1.859606   -1.260302    2.109444
     35          1           0       -2.975345   -1.388318   -0.404190
     36          1           0       -2.740086   -0.806195    1.238706
     37          1           0       -3.073969    2.278738   -0.669827
     38          1           0       -4.595929    0.816597    1.203583
     39          1           0       -5.251119    1.744621   -0.157486
     40          1           0       -4.888081    0.026634   -0.362895
 ---------------------------------------------------------------------

 SCF Done:  E(UB3LYP) =  -728.113606907     A.U. after   30 cycles

 The electronic state is 2-A.
 Alpha  occ. eigenvalues --  -18.99633 -14.24023 -14.20971 -14.19873 -14.19694
 Alpha  occ. eigenvalues --  -10.17784 -10.10750 -10.10701 -10.10054 -10.09989
 Alpha  occ. eigenvalues --  -10.09886 -10.09452 -10.09435 -10.08944 -10.07452
 Alpha  occ. eigenvalues --  -10.07419  -0.94614  -0.83796  -0.82543  -0.81941
 Alpha  occ. eigenvalues --   -0.79494  -0.69824  -0.66513  -0.63610  -0.61761
 Alpha  occ. eigenvalues --   -0.60115  -0.56965  -0.53959  -0.53558  -0.50099
 Alpha  occ. eigenvalues --   -0.47879  -0.44982  -0.41576  -0.40589  -0.39719
 Alpha  occ. eigenvalues --   -0.39088  -0.38148  -0.37916  -0.37251  -0.36242
 Alpha  occ. eigenvalues --   -0.34908  -0.34162  -0.33826  -0.32421  -0.31737
 Alpha  occ. eigenvalues --   -0.30968  -0.30387  -0.29920  -0.29245  -0.28905
 Alpha  occ. eigenvalues --   -0.28434  -0.26693  -0.26388  -0.26247  -0.25277
 Alpha  occ. eigenvalues --   -0.24878  -0.23168  -0.22520  -0.18031  -0.16038
 Alpha  occ. eigenvalues --   -0.13725  -0.12470  -0.11467   0.04073
 Alpha virt. eigenvalues --    0.05968   0.06904   0.07373   0.07899   0.08348
 Alpha virt. eigenvalues --    0.08887   0.09462   0.09524   0.10099   0.10538
 Alpha virt. eigenvalues --    0.10567   0.11633   0.11773   0.12397   0.12598

  Beta  occ. eigenvalues --  -18.99632 -14.24001 -14.20970 -14.19872 -14.19692
  Beta  occ. eigenvalues --  -10.17786 -10.10749 -10.10666 -10.10053 -10.09901
  Beta  occ. eigenvalues --  -10.09882 -10.09443 -10.09422 -10.08935 -10.07448
  Beta  occ. eigenvalues --  -10.07413  -0.94607  -0.83786  -0.82506  -0.81934
  Beta  occ. eigenvalues --   -0.79490  -0.69812  -0.66498  -0.63588  -0.61705
  Beta  occ. eigenvalues --   -0.60005  -0.56948  -0.53939  -0.53534  -0.50089
  Beta  occ. eigenvalues --   -0.47834  -0.44963  -0.41544  -0.40565  -0.39687
  Beta  occ. eigenvalues --   -0.38994  -0.38123  -0.37887  -0.37235  -0.36228
  Beta  occ. eigenvalues --   -0.34888  -0.34142  -0.33800  -0.32392  -0.31720
  Beta  occ. eigenvalues --   -0.30946  -0.30366  -0.29850  -0.29230  -0.28888
  Beta  occ. eigenvalues --   -0.28404  -0.26667  -0.26379  -0.26241  -0.25266
  Beta  occ. eigenvalues --   -0.24866  -0.23156  -0.22501  -0.18023  -0.16006
  Beta  occ. eigenvalues --   -0.13720  -0.12466  -0.11455
  Beta virt. eigenvalues --    0.05871   0.06965   0.07179   0.07662   0.08447
  Beta virt. eigenvalues --    0.08890   0.09290   0.09388   0.09825   0.10582
  Beta virt. eigenvalues --    0.10651   0.10896   0.11700   0.12166   0.12524

 Mulliken charges and spin densities:
               1          2
     1  C   -0.158230  -0.286585
     2  N   -0.194329   0.027572
     3  C   -0.586376   0.000863
     4  C   -0.052436  -0.093721
     5  N   -0.028179  -0.017853
     6  C    0.178859   0.089560
     7  C   -0.566387  -0.070274
     8  C    0.113071  -0.325853
     9  N    0.193292   0.002355
    10  C    0.020869  -0.164902
    11  C   -0.429609  -0.290239
    12  C    0.535889  -1.008728
    13  C   -0.430434   0.447379
    14  O   -0.382612  -0.009914
    15  N   -0.522291   0.342877
    16  C    2.051779  -2.391801
    17  H    0.093368   0.039054
    18  H   -0.072765   0.146519
    19  H    0.027521   0.142365
    20  H    0.289853   0.025294
    21  H    0.162139   0.008250
    22  H    0.102729   0.033981
    23  H    0.073959   0.046438
    24  H    0.112053  -0.020206
    25  H    0.229018  -0.092542
    26  H    0.121392   0.081251
    27  H    0.139546   0.022576
    28  H    0.073110   0.051341
    29  H    0.175583  -0.001852
    30  H   -0.129116   0.274731
    31  H   -0.345655   0.520010
    32  H    0.388444  -0.210668
    33  H    0.113011   0.035746
    34  H    0.069641   0.081236
    35  H   -0.011700   0.197229
    36  H   -0.005144   0.194024
    37  H   -0.023426   0.331882
    38  H   -0.613406   0.795120
    39  H   -1.119491   1.286331
    40  H   -0.593538   0.761153
 Sum of Mulliken charges =  -1.00000   1.00000

 Dipole moment (field-independent basis, Debye):
    X=             12.1943    Y=             -3.5055    Z=             -0.4544  Tot=             12.6963
 Quadrupole moment (field-independent basis, Debye-Ang):
   XX=           -202.9214   YY=           -148.3393   ZZ=           -135.2757
   XY=             10.7345   XZ=              6.0507   YZ=              2.7440

 Summary of Natural Population Analysis:

                                       Natural Population
                Natural  -----------------------------------------------
    Atom  No    Charge         Core      Valence    Rydberg      Total
 -----------------------------------------------------------------------
      C    1   -0.18205      0.99966     2.17239    0.01000     3.18205
      N    2   -0.34766      0.99976     2.83609    0.01181     3.84766
      C    3   -0.08845      0.99963     2.07775    0.01106     3.08845
      C    4   -0.09482      0.99963     2.08635    0.00884     3.09482
      N    5   -0.36095      0.99973     2.84912    0.01210     3.86095
      C    6   -0.00641      0.99959     1.99435    0.01247     3.00641
      C    7   -0.19227      0.99961     2.18440    0.00827     3.19227
      C    8   -0.08888      0.99960     2.07803    0.01125     3.08888
      N    9   -0.28286      0.99972     2.76864    0.01450     3.78286
      C   10   -0.09070      0.99960     2.07887    0.01224     3.09070
      C   11   -0.20238      0.99961     2.19387    0.00890     3.20238
      C   12   -0.12867      0.99957     2.11768    0.01141     3.12867
      C   13    0.34450      0.99966     1.63371    0.02213     2.65550
      O   14   -0.35171      0.99986     3.34538    0.00647     4.35171
      N   15   -0.31069      0.99968     2.79997    0.01103     3.81069
      C   16   -0.18311      0.99965     2.17486    0.00861     3.18311
      H   17    0.08487      0.00000     0.41426    0.00086     0.41513
      H   18    0.07826      0.00000     0.42032    0.00142     0.42174
      H   19    0.09888      0.00000     0.39998    0.00114     0.40112
      H   20    0.18816      0.00000     0.30856    0.00328     0.31184
      H   21    0.09475      0.00000     0.40413    0.00112     0.40525
      H   22    0.08681      0.00000     0.41218    0.00102     0.41319
      H   23    0.08801      0.00000     0.41057    0.00141     0.41199
      H   24    0.07790      0.00000     0.42046    0.00164     0.42210
      H   25    0.18743      0.00000     0.30764    0.00493     0.31257
      H   26    0.09052      0.00000     0.40776    0.00172     0.40948
      H   27    0.10284      0.00000     0.39614    0.00102     0.39716
      H   28    0.09581      0.00000     0.40304    0.00115     0.40419
      H   29    0.09242      0.00000     0.40576    0.00182     0.40758
      H   30    0.09478      0.00000     0.40403    0.00120     0.40522
      H   31    0.09649      0.00000     0.40216    0.00135     0.40351
      H   32    0.08951      0.00000     0.40790    0.00259     0.41049
      H   33    0.09764      0.00000     0.40108    0.00128     0.40236
      H   34    0.09959      0.00000     0.39959    0.00082     0.40041
      H   35    0.10986      0.00000     0.38842    0.00172     0.39014
      H   36    0.11062      0.00000     0.38747    0.00191     0.38938
      H   37    0.19681      0.00000     0.30026    0.00292     0.30319
      H   38    0.09818      0.00000     0.39747    0.00434     0.40182
      H   39    0.10841      0.00000     0.38578    0.00581     0.39159
      H   40    0.09856      0.00000     0.39817    0.00327     0.40144
 =======================================================================
   * Total *    0.00000     15.99457    46.77459    0.23084    63.00000

 Normal termination of Gaussian 16 at Fri Dec 11 01:56:13 2020.
