 Gaussian 16, Revision A.03,

 -----------------------------------------------------------
 # opt freq B3LYP/6-31G(d) empiricaldispersion=gd3bj scf=xqc
 -----------------------------------------------------------

 -------------------------------
 CID_100997693_JID_5004_neutraal
 -------------------------------
 Symbolic Z-matrix:
 Charge =  0 Multiplicity = 1

 SCF Done:  E(RB3LYP) =  -697.474179882     A.U. after   13 cycles
 SCF Done:  E(RB3LYP) =  -697.476071231     A.U. after   11 cycles
 SCF Done:  E(RB3LYP) =  -697.475856016     A.U. after   12 cycles
 SCF Done:  E(RB3LYP) =  -697.476476548     A.U. after   11 cycles
 SCF Done:  E(RB3LYP) =  -697.476530372     A.U. after   10 cycles
 SCF Done:  E(RB3LYP) =  -697.476543212     A.U. after   11 cycles
 SCF Done:  E(RB3LYP) =  -697.476570871     A.U. after   10 cycles
 SCF Done:  E(RB3LYP) =  -697.476599874     A.U. after   11 cycles
 SCF Done:  E(RB3LYP) =  -697.476631479     A.U. after   11 cycles
 SCF Done:  E(RB3LYP) =  -697.476704974     A.U. after   12 cycles
 SCF Done:  E(RB3LYP) =  -697.476813002     A.U. after    7 cycles
 SCF Done:  E(RB3LYP) =  -697.476812807     A.U. after    7 cycles
 SCF Done:  E(RB3LYP) =  -697.476813306     A.U. after    9 cycles
 SCF Done:  E(RB3LYP) =  -697.476813269     A.U. after    7 cycles
 SCF Done:  E(RB3LYP) =  -697.476813306     A.U. after    7 cycles
 SCF Done:  E(RB3LYP) =  -697.476813288     A.U. after    6 cycles
 Optimization completed.
    -- Stationary point found.
 Normal termination of Gaussian 16 at Thu Dec 10 14:52:41 2020.

 --------------------------------------------------------------------
 #N Geom=AllCheck Guess=TCheck SCRF=Check GenChk RB3LYP/6-31G(d) Freq
 --------------------------------------------------------------------

 Structure from the checkpoint file:  "JID_5004.chk"
 -------------------------------
 CID_100997693_JID_5004_neutraal
 -------------------------------
 Charge =  0 Multiplicity = 1

 SCF Done:  E(RB3LYP) =  -697.476813288     A.U. after    1 cycles

  Exact polarizability: 160.170   1.304 125.162   4.961   0.099 115.410
 Approx polarizability: 184.401  -3.927 192.289   7.906  -1.037 175.442

                      1                      2                      3
                      A                      A                      A
 Frequencies --     19.1973                28.1935                32.3629
 Red. masses --      5.8752                 4.9282                 5.1917
 Frc consts  --      0.0013                 0.0023                 0.0032
 IR Inten    --      0.5407                 0.7789                 0.5313

                      4                      5                      6
                      A                      A                      A
 Frequencies --     47.9741                60.7288                67.0622
 Red. masses --      3.5694                 3.6590                 3.1538
 Frc consts  --      0.0048                 0.0080                 0.0084
 IR Inten    --      0.2191                 0.2372                 1.8115

                      7                      8                      9
                      A                      A                      A
 Frequencies --     87.2998               112.4767               131.4747
 Red. masses --      5.2675                 2.5320                 3.0663
 Frc consts  --      0.0237                 0.0189                 0.0312
 IR Inten    --      0.4912                 2.7316                 0.2485

                     10                     11                     12
                      A                      A                      A
 Frequencies --    183.0986               218.7853               254.6216
 Red. masses --      3.3661                 2.8709                 1.3876
 Frc consts  --      0.0665                 0.0810                 0.0530
 IR Inten    --      2.0564                 0.4449                23.6331

                     13                     14                     15
                      A                      A                      A
 Frequencies --    262.7674               282.5364               309.0652
 Red. masses --      1.8242                 2.7669                 2.1276
 Frc consts  --      0.0742                 0.1301                 0.1197
 IR Inten    --      1.0701                 2.0628                 3.3680

                     16                     17                     18
                      A                      A                      A
 Frequencies --    319.7138               339.3314               354.5721
 Red. masses --      1.2489                 2.0737                 2.0897
 Frc consts  --      0.0752                 0.1407                 0.1548
 IR Inten    --     67.9451                25.9677                 0.3740

                     19                     20                     21
                      A                      A                      A
 Frequencies --    368.2494               392.4462               429.3133
 Red. masses --      1.8926                 1.8237                 2.2992
 Frc consts  --      0.1512                 0.1655                 0.2497
 IR Inten    --      6.7724                 2.9145                 1.0769

                     22                     23                     24
                      A                      A                      A
 Frequencies --    446.2523               493.8650               526.4992
 Red. masses --      2.2944                 2.6204                 1.8094
 Frc consts  --      0.2692                 0.3766                 0.2955
 IR Inten    --      1.4070                15.1251                21.5625

                     25                     26                     27
                      A                      A                      A
 Frequencies --    545.2133               593.5026               628.3931
 Red. masses --      2.4490                 2.3516                 3.2266
 Frc consts  --      0.4289                 0.4880                 0.7507
 IR Inten    --      5.1798                 3.7813                15.3101

                     28                     29                     30
                      A                      A                      A
 Frequencies --    689.6413               708.3021               740.7394
 Red. masses --      1.3487                 1.3684                 1.7124
 Frc consts  --      0.3779                 0.4045                 0.5536
 IR Inten    --     85.6764                37.9375                 4.5409

                     31                     32                     33
                      A                      A                      A
 Frequencies --    765.5621               800.2240               818.5373
 Red. masses --      2.4261                 2.0102                 2.8595
 Frc consts  --      0.8378                 0.7584                 1.1288
 IR Inten    --     16.9307                 4.6757                 4.8196

                     34                     35                     36
                      A                      A                      A
 Frequencies --    851.0616               871.2137               899.3390
 Red. masses --      2.2744                 2.1106                 1.9330
 Frc consts  --      0.9706                 0.9439                 0.9211
 IR Inten    --      2.3722                 5.0919                 1.5563

                     37                     38                     39
                      A                      A                      A
 Frequencies --    918.3604               939.2591               954.6578
 Red. masses --      1.4009                 1.7651                 1.8205
 Frc consts  --      0.6961                 0.9175                 0.9775
 IR Inten    --      5.7227                 3.2143                 0.3184

                     40                     41                     42
                      A                      A                      A
 Frequencies --    972.2113              1004.2833              1020.6649
 Red. masses --      1.7244                 1.8181                 1.7139
 Frc consts  --      0.9603                 1.0804                 1.0520
 IR Inten    --      2.8382                 0.0850                 3.0786

                     43                     44                     45
                      A                      A                      A
 Frequencies --   1026.6733              1058.5932              1073.3889
 Red. masses --      1.6592                 1.7907                 3.3006
 Frc consts  --      1.0304                 1.1823                 2.2406
 IR Inten    --      3.5870                17.8382               110.7209

                     46                     47                     48
                      A                      A                      A
 Frequencies --   1084.6277              1092.7361              1119.9211
 Red. masses --      1.7131                 2.0002                 1.9415
 Frc consts  --      1.1874                 1.4072                 1.4347
 IR Inten    --      6.8107                15.2558                 7.1480

                     49                     50                     51
                      A                      A                      A
 Frequencies --   1135.7760              1137.1733              1148.5717
 Red. masses --      1.8754                 1.9585                 1.7513
 Frc consts  --      1.4254                 1.4922                 1.3612
 IR Inten    --     59.8541                 8.4705                24.0323

                     52                     53                     54
                      A                      A                      A
 Frequencies --   1167.5624              1190.5580              1205.8700
 Red. masses --      1.5592                 1.6886                 1.4775
 Frc consts  --      1.2524                 1.4102                 1.2659
 IR Inten    --     88.5788                27.4330                70.4423

                     55                     56                     57
                      A                      A                      A
 Frequencies --   1241.9726              1245.0366              1257.7950
 Red. masses --      1.2727                 1.3969                 1.3075
 Frc consts  --      1.1567                 1.2758                 1.2188
 IR Inten    --      8.9897                15.1706                10.5423

                     58                     59                     60
                      A                      A                      A
 Frequencies --   1279.3788              1305.4694              1327.9900
 Red. masses --      1.2770                 1.2324                 1.2826
 Frc consts  --      1.2315                 1.2374                 1.3327
 IR Inten    --      5.2292                 4.3085                 1.9022

                     61                     62                     63
                      A                      A                      A
 Frequencies --   1332.1002              1347.7778              1362.9860
 Red. masses --      1.4132                 1.1884                 1.1503
 Frc consts  --      1.4775                 1.2719                 1.2591
 IR Inten    --      6.2744                 1.2738                 1.7387

                     64                     65                     66
                      A                      A                      A
 Frequencies --   1379.3968              1382.0609              1392.9214
 Red. masses --      1.4148                 1.4159                 1.4987
 Frc consts  --      1.5860                 1.5935                 1.7132
 IR Inten    --     12.4507                11.6726                 3.6103

                     67                     68                     69
                      A                      A                      A
 Frequencies --   1398.7791              1410.6257              1417.5079
 Red. masses --      1.3510                 1.3053                 1.4392
 Frc consts  --      1.5574                 1.5303                 1.7039
 IR Inten    --      2.8766                11.5544                 3.9918

                     70                     71                     72
                      A                      A                      A
 Frequencies --   1418.1909              1427.9154              1430.9123
 Red. masses --      1.3446                 1.4264                 1.3260
 Frc consts  --      1.5934                 1.7136                 1.5997
 IR Inten    --      6.9431                 9.5207                 7.0628

                     73                     74                     75
                      A                      A                      A
 Frequencies --   1433.0543              1438.5805              1448.4434
 Red. masses --      1.3972                 1.8073                 1.3026
 Frc consts  --      1.6905                 2.2036                 1.6101
 IR Inten    --     18.9845                43.8352                 7.4728

                     76                     77                     78
                      A                      A                      A
 Frequencies --   1491.2766              1507.5307              1513.8631
 Red. masses --      1.0927                 1.0843                 1.0796
 Frc consts  --      1.4318                 1.4519                 1.4578
 IR Inten    --     11.3086                 1.2194                12.0283

                     79                     80                     81
                      A                      A                      A
 Frequencies --   1517.4901              1523.5964              1529.8534
 Red. masses --      1.0802                 1.0880                 1.0802
 Frc consts  --      1.4656                 1.4880                 1.4895
 IR Inten    --     12.4475                 0.3833                 4.1143

                     82                     83                     84
                      A                      A                      A
 Frequencies --   1531.6538              1534.1104              1539.1655
 Red. masses --      1.0767                 1.0730                 1.0708
 Frc consts  --      1.4882                 1.4879                 1.4946
 IR Inten    --      1.3005                 7.0513                 4.3257

                     85                     86                     87
                      A                      A                      A
 Frequencies --   1542.1659              1545.0418              1843.9877
 Red. masses --      1.0703                 1.0806                 9.3815
 Frc consts  --      1.4997                 1.5199                18.7948
 IR Inten    --      4.1595                 2.0962               223.4849

                     88                     89                     90
                      A                      A                      A
 Frequencies --   3016.2403              3025.8525              3034.7782
 Red. masses --      1.0715                 1.0673                 1.0662
 Frc consts  --      5.7437                 5.7572                 5.7857
 IR Inten    --     18.8698                45.2963                18.3877

                     91                     92                     93
                      A                      A                      A
 Frequencies --   3035.7024              3036.5218              3037.7769
 Red. masses --      1.0666                 1.0668                 1.0662
 Frc consts  --      5.7914                 5.7954                 5.7970
 IR Inten    --     22.6221                48.9383                22.7838

                     94                     95                     96
                      A                      A                      A
 Frequencies --   3042.7542              3047.4176              3047.8811
 Red. masses --      1.0414                 1.0634                 1.0677
 Frc consts  --      5.6809                 5.8185                 5.8437
 IR Inten    --     24.1192                 4.7386                14.7524

                     97                     98                     99
                      A                      A                      A
 Frequencies --   3051.0866              3060.5148              3062.8592
 Red. masses --      1.0657                 1.1001                 1.0659
 Frc consts  --      5.8449                 6.0711                 5.8914
 IR Inten    --      7.1320                12.3385                15.7346

                    100                    101                    102
                      A                      A                      A
 Frequencies --   3066.6836              3071.5139              3080.8502
 Red. masses --      1.0939                 1.0943                 1.0980
 Frc consts  --      6.0613                 6.0825                 6.1401
 IR Inten    --      6.9756               130.2911                59.3059

                    103                    104                    105
                      A                      A                      A
 Frequencies --   3084.0060              3091.3301              3097.0278
 Red. masses --      1.0988                 1.0983                 1.0985
 Frc consts  --      6.1574                 6.1840                 6.2079
 IR Inten    --    106.0201                14.3821                50.9765

                    106                    107                    108
                      A                      A                      A
 Frequencies --   3101.5619              3106.1390              3111.5662
 Red. masses --      1.0991                 1.1015                 1.1013
 Frc consts  --      6.2292                 6.2617                 6.2823
 IR Inten    --     31.8269                46.4040                31.1592

                    109                    110                    111
                      A                      A                      A
 Frequencies --   3113.1606              3682.0663              3757.2550
 Red. masses --      1.0951                 1.0639                 1.0660
 Frc consts  --      6.2531                 8.4983                 8.8664
 IR Inten    --     29.8018                44.4418                10.7323

 - Thermochemistry -
 -------------------
 Temperature   298.150 Kelvin.  Pressure   1.00000 Atm.
 Atom     1 has atomic number  6 and mass  12.00000

 Molecular mass:   216.17254 amu.
 Principal axes and moments of inertia in atomic units:
                           1         2         3
     Eigenvalues --  1332.61843********************
           X            0.99998   0.00554  -0.00149
           Y           -0.00554   0.99998  -0.00057
           Z            0.00149   0.00058   1.00000
 This molecule is an asymmetric top.
 Rotational symmetry number  1.
 Warning -- assumption of classical behavior for rotation
           may cause significant error
 Rotational temperatures (Kelvin)      0.06500     0.00852     0.00807
 Rotational constants (GHZ):           1.35428     0.17756     0.16818
 Zero-point vibrational energy     933635.6 (Joules/Mol)
                                  223.14426 (Kcal/Mol)
 Warning -- explicit consideration of  26 degrees of freedom as
           vibrations may cause significant error
 Vibrational temperatures:     27.62    40.56    46.56    69.02    87.38
          (Kelvin)             96.49   125.60   161.83   189.16   263.44
                              314.78   366.34   378.06   406.51   444.68
                              460.00   488.22   510.15   529.83   564.64
                              617.69   642.06   710.56   757.51   784.44
                              853.92   904.12   992.24  1019.09  1065.76
                             1101.47  1151.34  1177.69  1224.49  1253.48
                             1293.95  1321.32  1351.38  1373.54  1398.80
                             1444.94  1468.51  1477.15  1523.08  1544.37
                             1560.54  1572.20  1611.32  1634.13  1636.14
                             1652.54  1679.86  1712.95  1734.98  1786.92
                             1791.33  1809.69  1840.74  1878.28  1910.68
                             1916.60  1939.15  1961.03  1984.64  1988.48
                             2004.10  2012.53  2029.58  2039.48  2040.46
                             2054.45  2058.76  2061.85  2069.80  2083.99
                             2145.61  2169.00  2178.11  2183.33  2192.12
                             2201.12  2203.71  2207.24  2214.52  2218.83
                             2222.97  2653.09  4339.70  4353.53  4366.37
                             4367.70  4368.88  4370.68  4377.84  4384.55
                             4385.22  4389.83  4403.40  4406.77  4412.27
                             4419.22  4432.66  4437.20  4447.73  4455.93
                             4462.46  4469.04  4476.85  4479.14  5297.67
                             5405.85

 Zero-point correction=                           0.355603 (Hartree/Particle)
 Thermal correction to Energy=                    0.373390
 Thermal correction to Enthalpy=                  0.374334
 Thermal correction to Gibbs Free Energy=         0.307035
 Sum of electronic and zero-point Energies=           -697.121210
 Sum of electronic and thermal Energies=              -697.103423
 Sum of electronic and thermal Enthalpies=            -697.102479
 Sum of electronic and thermal Free Energies=         -697.169779

                     E (Thermal)             CV                S
                      KCal/Mol        Cal/Mol-Kelvin    Cal/Mol-Kelvin
 Total                  234.306             65.436            141.643
 Electronic               0.000              0.000              0.000
 Translational            0.889              2.981             42.016
 Rotational               0.889              2.981             33.341
 Vibrational            232.528             59.474             66.287
 Vibration     1          0.593              1.986              6.716
 Vibration     2          0.593              1.984              5.953
 Vibration     3          0.594              1.983              5.679
 Vibration     4          0.595              1.978              4.899
 Vibration     5          0.597              1.973              4.433
 Vibration     6          0.598              1.970              4.238
 Vibration     7          0.601              1.958              3.720
 Vibration     8          0.607              1.939              3.226
 Vibration     9          0.612              1.922              2.924
 Vibration    10          0.631              1.863              2.297
 Vibration    11          0.647              1.812              1.969
 Vibration    12          0.665              1.755              1.698
 Vibration    13          0.670              1.741              1.643
 Vibration    14          0.682              1.706              1.518
 Vibration    15          0.698              1.656              1.367
 Vibration    16          0.706              1.636              1.312
 Vibration    17          0.719              1.597              1.215
 Vibration    18          0.730              1.566              1.146
 Vibration    19          0.741              1.538              1.087
 Vibration    20          0.760              1.486              0.991
 Vibration    21          0.791              1.406              0.861
 Vibration    22          0.806              1.369              0.807
 Vibration    23          0.850              1.264              0.674
 Vibration    24          0.881              1.191              0.595
 Vibration    25          0.900              1.150              0.554
 Vibration    26          0.951              1.046              0.461

                           ! Non-Optimized Parameters !
 Normal termination of Gaussian 16 at Thu Dec 10 15:03:41 2020.

 ----------------------------------------------------------------------
 # B3LYP/6-311++G(d,p) empiricaldispersion=gd3bj scf=xqc pop=npa geom=c
 heck
 ----------------------------------------------------------------------

 ---------------------------------------
 CID_100997693_JID_5004_Energie_neutraal
 ---------------------------------------
 Structure from the checkpoint file:  "JID_5004.chk"
 Charge =  0 Multiplicity = 1

 SCF Done:  E(RB3LYP) =  -697.698669275     A.U. after   13 cycles
 Normal termination of Gaussian 16 at Thu Dec 10 15:09:53 2020.

 ----------------------------------------------------------------------
 # B3LYP/6-311++G(d,p) empiricaldispersion=gd3bj scf=xqc pop=npa geom=c
 heck
 ----------------------------------------------------------------------

 -------------------------------------
 CID_100997693_JID_5004_Energie_kation
 -------------------------------------
 Structure from the checkpoint file:  "JID_5004.chk"
 Charge =  1 Multiplicity = 2

 SCF Done:  E(UB3LYP) =  -697.358720286     A.U. after   31 cycles
 Normal termination of Gaussian 16 at Thu Dec 10 15:32:11 2020.
 Gaussian 16:  ES64L-G16RevA.03 25-Dec-2016

 ----------------------------------------------------------------------
 # B3LYP/6-311++G(d,p) empiricaldispersion=gd3bj scf=xqc pop=npa geom=c
 heck
 ----------------------------------------------------------------------

 ------------------------------------
 CID_100997693_JID_5004_Energie_anion
 ------------------------------------
 Structure from the checkpoint file:  "JID_5004.chk"
 Charge = -1 Multiplicity = 2

                         Standard orientation:
 ---------------------------------------------------------------------
 Center     Atomic      Atomic             Coordinates (Angstroms)
 Number     Number       Type             X           Y           Z
 ---------------------------------------------------------------------
      1          6           0       -4.718412   -0.897098   -0.439065
      2          6           0       -3.936698   -0.066065    0.586200
      3          6           0       -2.691234   -0.806638    1.128727
      4          6           0       -1.774149   -1.528003    0.124715
      5          6           0       -1.001848   -0.658315   -0.879536
      6          6           0       -0.109893    0.426437   -0.255968
      7          6           0        0.940152   -0.093021    0.738887
      8          6           0        1.903624   -1.151700    0.179481
      9          6           0        2.680041   -0.730702   -1.077952
     10          6           0        3.507556    0.547193   -0.912030
     11          6           0        4.622716    0.405465    0.099876
     12          8           0        5.100295   -0.635456    0.495962
     13          8           0        5.074509    1.614971    0.518604
     14          6           0       -3.626973    1.341206    0.053374
     15          8           0       -4.802027    2.111090   -0.185663
     16          1           0       -4.159328   -1.015537   -1.375348
     17          1           0       -5.679744   -0.426711   -0.675848
     18          1           0       -4.937090   -1.899526   -0.054312
     19          1           0       -4.598851    0.100003    1.447553
     20          1           0       -2.099754   -0.105426    1.733068
     21          1           0       -3.050565   -1.569345    1.832209
     22          1           0       -1.051989   -2.114725    0.707254
     23          1           0       -2.362838   -2.265533   -0.435129
     24          1           0       -0.383620   -1.323323   -1.496989
     25          1           0       -1.702553   -0.181215   -1.575673
     26          1           0        0.390922    0.971069   -1.067470
     27          1           0       -0.734420    1.169666    0.254404
     28          1           0        1.513747    0.763150    1.118464
     29          1           0        0.434756   -0.516323    1.616286
     30          1           0        2.622214   -1.425830    0.959806
     31          1           0        1.345899   -2.067220   -0.054876
     32          1           0        3.352101   -1.546443   -1.365200
     33          1           0        1.987668   -0.581106   -1.914960
     34          1           0        3.982410    0.819134   -1.864912
     35          1           0        2.890446    1.406928   -0.632602
     36          1           0        5.806539    1.427915    1.136252
     37          1           0       -3.061904    1.901001    0.806063
     38          1           0       -3.007061    1.293108   -0.853804
     39          1           0       -5.248503    1.728902   -0.955710
 ---------------------------------------------------------------------

 SCF Done:  E(UB3LYP) =  -697.689185273     A.U. after   32 cycles

 The electronic state is 2-A.
 Alpha  occ. eigenvalues --  -19.07994 -19.03156 -19.02720 -10.21742 -10.12209
 Alpha  occ. eigenvalues --  -10.09554 -10.08435 -10.08204 -10.07962 -10.07622
 Alpha  occ. eigenvalues --  -10.07617 -10.07530 -10.07494 -10.07454 -10.06941
 Alpha  occ. eigenvalues --   -1.02076  -0.93202  -0.93195  -0.73606  -0.72182
 Alpha  occ. eigenvalues --   -0.69463  -0.65837  -0.62315  -0.59633  -0.58891
 Alpha  occ. eigenvalues --   -0.55420  -0.52057  -0.49219  -0.46668  -0.44367
 Alpha  occ. eigenvalues --   -0.42857  -0.41593  -0.40415  -0.39785  -0.38538
 Alpha  occ. eigenvalues --   -0.37886  -0.35908  -0.35736  -0.35341  -0.33372
 Alpha  occ. eigenvalues --   -0.32963  -0.32015  -0.30909  -0.30495  -0.29758
 Alpha  occ. eigenvalues --   -0.28977  -0.28568  -0.27842  -0.26857  -0.26555
 Alpha  occ. eigenvalues --   -0.25002  -0.24266  -0.24190  -0.23921  -0.23326
 Alpha  occ. eigenvalues --   -0.22558  -0.21967  -0.21614  -0.19507  -0.18370
 Alpha  occ. eigenvalues --    0.03771
 Alpha virt. eigenvalues --    0.05030   0.06312   0.06540   0.07353   0.07721
 Alpha virt. eigenvalues --    0.08383   0.08939   0.09327   0.09642   0.10153
 Alpha virt. eigenvalues --    0.10525   0.10764   0.11534   0.11804   0.12116

  Beta  occ. eigenvalues --  -19.07947 -19.03129 -19.02705 -10.21729 -10.12197
  Beta  occ. eigenvalues --  -10.09524 -10.08429 -10.08192 -10.07955 -10.07613
  Beta  occ. eigenvalues --  -10.07606 -10.07523 -10.07489 -10.07441 -10.06894
  Beta  occ. eigenvalues --   -1.02009  -0.93145  -0.93139  -0.73584  -0.72154
  Beta  occ. eigenvalues --   -0.69429  -0.65799  -0.62274  -0.59564  -0.58845
  Beta  occ. eigenvalues --   -0.55375  -0.51997  -0.49154  -0.46618  -0.44327
  Beta  occ. eigenvalues --   -0.42804  -0.41553  -0.40370  -0.39756  -0.38493
  Beta  occ. eigenvalues --   -0.37863  -0.35876  -0.35689  -0.35307  -0.33332
  Beta  occ. eigenvalues --   -0.32935  -0.31989  -0.30877  -0.30464  -0.29726
  Beta  occ. eigenvalues --   -0.28946  -0.28537  -0.27809  -0.26825  -0.26529
  Beta  occ. eigenvalues --   -0.24975  -0.24235  -0.24163  -0.23887  -0.23294
  Beta  occ. eigenvalues --   -0.22538  -0.21943  -0.21592  -0.19470  -0.18341
  Beta virt. eigenvalues --    0.05794   0.06338   0.06783   0.07060   0.07719
  Beta virt. eigenvalues --    0.07985   0.08636   0.09189   0.09616   0.09791
  Beta virt. eigenvalues --    0.10254   0.10818   0.10965   0.11620   0.12061

 Mulliken charges and spin densities:
               1          2
     1  C    1.070877  -1.724734
     2  C   -1.529254   1.842365
     3  C    0.518896  -1.022579
     4  C   -0.292871   0.034682
     5  C    0.198466  -0.459039
     6  C   -0.596094   0.296336
     7  C    0.161346  -0.444912
     8  C   -0.199843  -0.000783
     9  C   -0.258671  -0.064097
    10  C    0.558720  -0.789854
    11  C    0.149476  -0.388810
    12  O   -0.285009   0.020047
    13  O   -0.186779   0.066182
    14  C    0.422337  -0.963616
    15  O   -0.238301  -0.001162
    16  H   -0.222801   0.391466
    17  H   -0.231245   0.341530
    18  H   -0.296269   0.440969
    19  H    0.085595   0.103278
    20  H   -0.001577   0.126792
    21  H    0.049582   0.118557
    22  H    0.108071   0.035819
    23  H    0.023154   0.144415
    24  H    0.030083   0.123828
    25  H   -0.042242   0.201974
    26  H   -0.103518   0.253213
    27  H    0.272946  -0.117102
    28  H   -0.103645   0.271556
    29  H    0.154655   0.004685
    30  H    0.161007   0.015921
    31  H   -0.023543   0.159697
    32  H    0.098259   0.101202
    33  H    0.116418   0.028166
    34  H   -0.428658   0.621799
    35  H    0.234761  -0.010090
    36  H   -0.335342   0.620295
    37  H    0.092893   0.073498
    38  H   -0.135056   0.301253
    39  H    0.003174   0.247255
 Sum of Mulliken charges =  -1.00000   1.00000

 Dipole moment (field-independent basis, Debye):
    X=             -0.5344    Y=             -1.8707    Z=              1.5527  Tot=              2.4892
 Quadrupole moment (field-independent basis, Debye-Ang):
   XX=           -240.9700   YY=           -136.1945   ZZ=           -127.2657
   XY=             -4.1889   XZ=            -11.1629   YZ=             -0.6648

 Summary of Natural Population Analysis:

                                       Natural Population
                Natural  -----------------------------------------------
    Atom  No    Charge         Core      Valence    Rydberg      Total
 -----------------------------------------------------------------------
      C    1   -0.29298      0.99965     2.28647    0.00686     3.29298
      C    2   -0.12603      0.99960     2.11604    0.01039     3.12603
      C    3   -0.18966      0.99961     2.18107    0.00898     3.18966
      C    4   -0.19392      0.99962     2.18587    0.00843     3.19392
      C    5   -0.19432      0.99962     2.18588    0.00882     3.19432
      C    6   -0.19481      0.99962     2.18706    0.00814     3.19481
      C    7   -0.19276      0.99963     2.18600    0.00714     3.19276
      C    8   -0.19411      0.99962     2.18727    0.00722     3.19411
      C    9   -0.19309      0.99963     2.18414    0.00932     3.19309
      C   10   -0.24306      0.99957     2.23458    0.00891     3.24306
      C   11    0.40889      0.99972     1.56574    0.02565     2.59111
      O   12   -0.30964      0.99987     3.30349    0.00629     4.30964
      O   13   -0.34471      0.99988     3.33822    0.00661     4.34471
      C   14   -0.00689      0.99956     1.99490    0.01243     3.00689
      O   15   -0.36989      0.99990     3.36382    0.00617     4.36989
      H   16    0.09894      0.00000     0.39970    0.00136     0.40106
      H   17    0.10003      0.00000     0.39851    0.00145     0.39997
      H   18    0.10213      0.00000     0.39675    0.00112     0.39787
      H   19    0.09624      0.00000     0.40208    0.00167     0.40376
      H   20    0.09579      0.00000     0.40306    0.00116     0.40421
      H   21    0.09912      0.00000     0.40002    0.00086     0.40088
      H   22    0.09608      0.00000     0.40283    0.00109     0.40392
      H   23    0.09960      0.00000     0.39932    0.00107     0.40040
      H   24    0.09672      0.00000     0.40213    0.00114     0.40328
      H   25    0.09724      0.00000     0.40140    0.00136     0.40276
      H   26    0.09690      0.00000     0.40194    0.00116     0.40310
      H   27    0.09669      0.00000     0.40200    0.00131     0.40331
      H   28    0.09699      0.00000     0.40193    0.00108     0.40301
      H   29    0.09694      0.00000     0.40203    0.00104     0.40306
      H   30    0.10402      0.00000     0.39491    0.00107     0.39598
      H   31    0.09627      0.00000     0.40265    0.00107     0.40373
      H   32    0.10444      0.00000     0.39455    0.00100     0.39556
      H   33    0.09869      0.00000     0.40028    0.00103     0.40131
      H   34    0.11855      0.00000     0.37991    0.00154     0.38145
      H   35    0.11173      0.00000     0.38697    0.00130     0.38827
      H   36    0.24227      0.00000     0.24549    0.01224     0.25773
      H   37    0.08418      0.00000     0.41449    0.00133     0.41582
      H   38    0.07830      0.00000     0.42028    0.00141     0.42170
      H   39    0.22910      0.00000     0.26738    0.00352     0.27090
 =======================================================================
   * Total *    0.00000     14.99509    44.82115    0.18375    60.00000

 Normal termination of Gaussian 16 at Thu Dec 10 15:56:44 2020.
