 Gaussian 16, Revision A.03,

 -----------------------------------------------------------
 # opt freq B3LYP/6-31G(d) empiricaldispersion=gd3bj scf=xqc
 -----------------------------------------------------------

 ------------------------------
 CID_84075064_JID_2354_neutraal
 ------------------------------
 Symbolic Z-matrix:
 Charge =  0 Multiplicity = 1

 SCF Done:  E(RB3LYP) =  -912.292536064     A.U. after   14 cycles
 SCF Done:  E(RB3LYP) =  -912.296509043     A.U. after   12 cycles
 SCF Done:  E(RB3LYP) =  -912.297030149     A.U. after   12 cycles
 SCF Done:  E(RB3LYP) =  -912.297263212     A.U. after   12 cycles
 SCF Done:  E(RB3LYP) =  -912.297453320     A.U. after   11 cycles
 SCF Done:  E(RB3LYP) =  -912.297534017     A.U. after   10 cycles
 SCF Done:  E(RB3LYP) =  -912.297563263     A.U. after   11 cycles
 SCF Done:  E(RB3LYP) =  -912.297577258     A.U. after   10 cycles
 SCF Done:  E(RB3LYP) =  -912.297588013     A.U. after   10 cycles
 SCF Done:  E(RB3LYP) =  -912.297601875     A.U. after   11 cycles
 SCF Done:  E(RB3LYP) =  -912.297609531     A.U. after   11 cycles
 SCF Done:  E(RB3LYP) =  -912.297610435     A.U. after   10 cycles
 SCF Done:  E(RB3LYP) =  -912.297610564     A.U. after    8 cycles
 SCF Done:  E(RB3LYP) =  -912.297610604     A.U. after    7 cycles
 SCF Done:  E(RB3LYP) =  -912.297610616     A.U. after    7 cycles
 Optimization completed.
    -- Stationary point found.
 Normal termination of Gaussian 16 at Wed Dec  9 17:11:15 2020.

 --------------------------------------------------------------------
 #N Geom=AllCheck Guess=TCheck SCRF=Check GenChk RB3LYP/6-31G(d) Freq
 --------------------------------------------------------------------

 Structure from the checkpoint file:  "JID_2354.chk"
 ------------------------------
 CID_84075064_JID_2354_neutraal
 ------------------------------
 Charge =  0 Multiplicity = 1

 SCF Done:  E(RB3LYP) =  -912.297610616     A.U. after    1 cycles

  Exact polarizability: 128.256  -3.624 105.820  -5.160   7.737  93.418
 Approx polarizability: 158.538  -9.765 170.024 -11.445  25.047 151.693

                      1                      2                      3
                      A                      A                      A
 Frequencies --     27.2681                44.3272                52.8573
 Red. masses --      4.6333                 8.3684                 4.5964
 Frc consts  --      0.0020                 0.0097                 0.0076
 IR Inten    --      5.3366                 2.5751                 2.5182

                      4                      5                      6
                      A                      A                      A
 Frequencies --     89.6195               137.3786               187.9018
 Red. masses --      2.9174                 2.7442                 3.8610
 Frc consts  --      0.0138                 0.0305                 0.0803
 IR Inten    --      7.8959                 3.4739                 3.6866

                      7                      8                      9
                      A                      A                      A
 Frequencies --    222.8164               232.0618               282.2297
 Red. masses --      2.0483                 1.7126                 2.4973
 Frc consts  --      0.0599                 0.0543                 0.1172
 IR Inten    --    131.7656               124.3584                 5.5811

                     10                     11                     12
                      A                      A                      A
 Frequencies --    289.6496               325.2560               364.6992
 Red. masses --      2.2668                 3.5769                 5.8240
 Frc consts  --      0.1121                 0.2230                 0.4564
 IR Inten    --      5.3034                 2.1293                 0.6023

                     13                     14                     15
                      A                      A                      A
 Frequencies --    397.7206               463.6003               503.6371
 Red. masses --      3.7002                 2.3087                 1.6027
 Frc consts  --      0.3448                 0.2924                 0.2395
 IR Inten    --      0.9991                 6.1377                 0.4849

                     16                     17                     18
                      A                      A                      A
 Frequencies --    524.9172               569.5045               612.3012
 Red. masses --      3.1584                 2.9536                 1.9220
 Frc consts  --      0.5127                 0.5644                 0.4246
 IR Inten    --     13.5475                 2.6469                38.8069

                     19                     20                     21
                      A                      A                      A
 Frequencies --    629.7618               683.6910               684.3308
 Red. masses --      1.6522                 3.1992                 3.4223
 Frc consts  --      0.3861                 0.8811                 0.9443
 IR Inten    --     93.5612                11.4297                 5.1824

                     22                     23                     24
                      A                      A                      A
 Frequencies --    714.1768               777.4327               800.8830
 Red. masses --      1.5586                 4.7375                 2.7432
 Frc consts  --      0.4684                 1.6870                 1.0367
 IR Inten    --     68.8044                 1.7245                18.0430

                     25                     26                     27
                      A                      A                      A
 Frequencies --    819.7698               876.6381               904.6657
 Red. masses --      3.6881                 1.9664                 2.2479
 Frc consts  --      1.4603                 0.8904                 1.0839
 IR Inten    --     10.2131                 2.5961                12.2103

                     28                     29                     30
                      A                      A                      A
 Frequencies --    937.4446               968.3137               995.2371
 Red. masses --      2.2365                 2.1336                 1.8556
 Frc consts  --      1.1580                 1.1787                 1.0829
 IR Inten    --      2.4391                 1.5641                11.6329

                     31                     32                     33
                      A                      A                      A
 Frequencies --   1041.6470              1068.1573              1096.1624
 Red. masses --      1.7398                 2.4637                 2.4091
 Frc consts  --      1.1122                 1.6562                 1.7055
 IR Inten    --      7.2522                11.2770                 0.8671

                     34                     35                     36
                      A                      A                      A
 Frequencies --   1113.8943              1156.0546              1184.3562
 Red. masses --      2.6014                 2.6133                 1.1746
 Frc consts  --      1.9017                 2.0578                 0.9707
 IR Inten    --      0.8920                22.1707                 0.9819

                     37                     38                     39
                      A                      A                      A
 Frequencies --   1223.3396              1234.8992              1254.9954
 Red. masses --      1.1765                 1.3491                 1.2562
 Frc consts  --      1.0373                 1.2122                 1.1657
 IR Inten    --      2.1314                11.5626                 3.3059

                     40                     41                     42
                      A                      A                      A
 Frequencies --   1262.4436              1285.5482              1337.1690
 Red. masses --      1.5435                 1.6766                 1.3931
 Frc consts  --      1.4494                 1.6325                 1.4676
 IR Inten    --     57.2980               113.1293                30.7323

                     43                     44                     45
                      A                      A                      A
 Frequencies --   1344.8474              1362.0868              1396.4237
 Red. masses --      1.1849                 1.8940                 1.3624
 Frc consts  --      1.2626                 2.0704                 1.5653
 IR Inten    --     15.7190                38.1030                74.9160

                     46                     47                     48
                      A                      A                      A
 Frequencies --   1413.2337              1430.9251              1480.1879
 Red. masses --      1.6248                 1.7969                 1.0898
 Frc consts  --      1.9120                 2.1678                 1.4068
 IR Inten    --     51.6083                50.4650                 7.1623

                     49                     50                     51
                      A                      A                      A
 Frequencies --   1492.1588              1492.8468              1496.7200
 Red. masses --      1.0874                 1.1002                 1.0979
 Frc consts  --      1.4264                 1.4447                 1.4491
 IR Inten    --     13.0342                11.6291                14.5721

                     52                     53                     54
                      A                      A                      A
 Frequencies --   1512.2682              1546.5182              1645.8249
 Red. masses --      1.0926                 1.5594                 1.2675
 Frc consts  --      1.4722                 2.1974                 2.0228
 IR Inten    --      2.3373               211.7106               105.7818

                     55                     56                     57
                      A                      A                      A
 Frequencies --   1738.4947              1782.8867              3015.3392
 Red. masses --      6.9259                 8.0274                 1.0608
 Frc consts  --     12.3331                15.0339                 5.6827
 IR Inten    --    145.4672               265.6938                71.2177

                     58                     59                     60
                      A                      A                      A
 Frequencies --   3039.7413              3048.9188              3056.8450
 Red. masses --      1.0976                 1.0625                 1.0622
 Frc consts  --      5.9755                 5.8194                 5.8477
 IR Inten    --     12.9120                25.8796                22.1365

                     61                     62                     63
                      A                      A                      A
 Frequencies --   3063.2536              3083.0801              3099.0547
 Red. masses --      1.0670                 1.0747                 1.0879
 Frc consts  --      5.8989                 6.0188                 6.1559
 IR Inten    --     43.5831                16.5836                34.0950

                     64                     65                     66
                      A                      A                      A
 Frequencies --   3110.6229              3125.5399              3150.2699
 Red. masses --      1.1018                 1.1030                 1.1022
 Frc consts  --      6.2815                 6.3486                 6.4446
 IR Inten    --      5.8543                17.2513                 7.2624

                     67                     68                     69
                      A                      A                      A
 Frequencies --   3574.5059              3589.6563              3716.1926
 Red. masses --      1.0753                 1.0452                 1.1048
 Frc consts  --      8.0951                 7.9352                 8.9897
 IR Inten    --     68.3432                32.7667                31.1247

 - Thermochemistry -
 -------------------
 Temperature   298.150 Kelvin.  Pressure   1.00000 Atm.
 Atom     1 has atomic number  6 and mass  12.00000

 Molecular mass:   187.07793 amu.
 Principal axes and moments of inertia in atomic units:
                           1         2         3
     Eigenvalues --  1133.482754510.242114777.86746
           X            0.99996  -0.00454   0.00710
           Y            0.00413   0.99837   0.05687
           Z           -0.00735  -0.05684   0.99836
 This molecule is an asymmetric top.
 Rotational symmetry number  1.
 Warning -- assumption of classical behavior for rotation
           may cause significant error
 Rotational temperatures (Kelvin)      0.07641     0.01920     0.01813
 Rotational constants (GHZ):           1.59221     0.40014     0.37773
 Zero-point vibrational energy     551401.9 (Joules/Mol)
                                  131.78822 (Kcal/Mol)
 Warning -- explicit consideration of  18 degrees of freedom as
           vibrations may cause significant error
 Vibrational temperatures:     39.23    63.78    76.05   128.94   197.66
          (Kelvin)            270.35   320.58   333.89   406.07   416.74
                              467.97   524.72   572.23   667.02   724.62
                              755.24   819.39   880.96   906.09   983.68
                              984.60  1027.54  1118.55  1152.29  1179.47
                             1261.29  1301.61  1348.77  1393.19  1431.92
                             1498.70  1536.84  1577.13  1602.65  1663.30
                             1704.02  1760.11  1776.74  1805.66  1816.37
                             1849.62  1923.89  1934.94  1959.74  2009.14
                             2033.33  2058.78  2129.66  2146.88  2147.87
                             2153.45  2175.82  2225.09  2367.97  2501.31
                             2565.18  4338.40  4373.51  4386.71  4398.12
                             4407.34  4435.86  4458.85  4475.49  4496.95
                             4532.54  5142.92  5164.71  5346.77

 Zero-point correction=                           0.210018 (Hartree/Particle)
 Thermal correction to Energy=                    0.222644
 Thermal correction to Enthalpy=                  0.223588
 Thermal correction to Gibbs Free Energy=         0.169377
 Sum of electronic and zero-point Energies=           -912.087593
 Sum of electronic and thermal Energies=              -912.074967
 Sum of electronic and thermal Enthalpies=            -912.074023
 Sum of electronic and thermal Free Energies=         -912.128234

                     E (Thermal)             CV                S
                      KCal/Mol        Cal/Mol-Kelvin    Cal/Mol-Kelvin
 Total                  139.711             46.610            114.096
 Electronic               0.000              0.000              0.000
 Translational            0.889              2.981             41.585
 Rotational               0.889              2.981             31.569
 Vibrational            137.934             40.649             40.943
 Vibration     1          0.593              1.984              6.019
 Vibration     2          0.595              1.980              5.056
 Vibration     3          0.596              1.976              4.708
 Vibration     4          0.602              1.957              3.668
 Vibration     5          0.614              1.916              2.840
 Vibration     6          0.633              1.856              2.248
 Vibration     7          0.648              1.806              1.936
 Vibration     8          0.653              1.792              1.863
 Vibration     9          0.681              1.707              1.520
 Vibration    10          0.686              1.693              1.476
 Vibration    11          0.709              1.625              1.284
 Vibration    12          0.738              1.545              1.102
 Vibration    13          0.764              1.475              0.971
 Vibration    14          0.821              1.331              0.756
 Vibration    15          0.859              1.242              0.649
 Vibration    16          0.880              1.195              0.599
 Vibration    17          0.926              1.097              0.505
 Vibration    18          0.972              1.006              0.429

 Optimization completed.
    -- Stationary point found.
 Normal termination of Gaussian 16 at Wed Dec  9 17:16:47 2020.

 ----------------------------------------------------------------------
 # B3LYP/6-311++G(d,p) empiricaldispersion=gd3bj scf=xqc pop=npa geom=c
 heck
 ----------------------------------------------------------------------

 --------------------------------------
 CID_84075064_JID_2354_Energie_neutraal
 --------------------------------------
 Structure from the checkpoint file:  "JID_2354.chk"
 Charge =  0 Multiplicity = 1

 SCF Done:  E(RB3LYP) =  -912.481848903     A.U. after   14 cycles
 Normal termination of Gaussian 16 at Wed Dec  9 17:18:44 2020.

 ----------------------------------------------------------------------
 # B3LYP/6-311++G(d,p) empiricaldispersion=gd3bj scf=xqc pop=npa geom=c
 heck
 ----------------------------------------------------------------------

 ------------------------------------
 CID_84075064_JID_2354_Energie_kation
 ------------------------------------
 Structure from the checkpoint file:  "JID_2354.chk"
 Charge =  1 Multiplicity = 2

 SCF Done:  E(UB3LYP) =  -912.195312482     A.U. after   25 cycles
 Normal termination of Gaussian 16 at Wed Dec  9 17:23:36 2020.
 Gaussian 16:  ES64L-G16RevA.03 25-Dec-2016

 ----------------------------------------------------------------------
 # B3LYP/6-311++G(d,p) empiricaldispersion=gd3bj scf=xqc pop=npa geom=c
 heck
 ----------------------------------------------------------------------

 -----------------------------------
 CID_84075064_JID_2354_Energie_anion
 -----------------------------------
 Structure from the checkpoint file:  "JID_2354.chk"
 Charge = -1 Multiplicity = 2

                         Standard orientation:
 ---------------------------------------------------------------------
 Center     Atomic      Atomic             Coordinates (Angstroms)
 Number     Number       Type             X           Y           Z
 ---------------------------------------------------------------------
      1          6           0       -2.175462    1.447966    0.737339
      2          6           0       -3.335072    0.528202    0.358555
      3         16           0       -2.824583   -1.225617    0.462601
      4          6           0       -1.501762   -1.062815   -0.783826
      5          6           0       -0.639503    0.180938   -0.600217
      6          7           0       -0.908773    1.247918    0.056418
      7          7           0        0.536424    0.098459   -1.323474
      8          6           0        1.567047    1.109344   -1.142686
      9          6           0        2.298920    0.984203    0.199086
     10          6           0        3.029697   -0.346473    0.335701
     11          8           0        2.846677   -1.300512   -0.416300
     12          7           0        3.926755   -0.409777    1.362563
     13          1           0       -2.486801    2.486983    0.554351
     14          1           0       -1.997513    1.368020    1.819095
     15          1           0       -3.687857    0.732016   -0.659242
     16          1           0       -4.176613    0.662880    1.044148
     17          1           0       -0.876278   -1.957376   -0.701418
     18          1           0       -1.932478   -1.059509   -1.792212
     19          1           0        0.935721   -0.830369   -1.401889
     20          1           0        2.276889    1.009979   -1.969347
     21          1           0        1.092774    2.090326   -1.202259
     22          1           0        3.012005    1.809634    0.325332
     23          1           0        1.560346    1.074506    1.005086
     24          1           0        4.000753    0.324911    2.049955
     25          1           0        4.354925   -1.302421    1.564923
 ---------------------------------------------------------------------

 SCF Done:  E(UB3LYP) =  -912.470889770     A.U. after   31 cycles

 The electronic state is 2-A.
 Alpha  occ. eigenvalues --  -88.75206 -18.99109 -14.22384 -14.22213 -14.18679
 Alpha  occ. eigenvalues --  -10.17532 -10.14905 -10.11922 -10.10810 -10.10297
 Alpha  occ. eigenvalues --  -10.10105 -10.07363  -7.83840  -5.80226  -5.79900
 Alpha  occ. eigenvalues --   -5.79185  -0.93952  -0.86481  -0.79939  -0.78983
 Alpha  occ. eigenvalues --   -0.71115  -0.68264  -0.64776  -0.57323  -0.55974
 Alpha  occ. eigenvalues --   -0.51641  -0.47627  -0.45222  -0.42492  -0.40989
 Alpha  occ. eigenvalues --   -0.39020  -0.38140  -0.37069  -0.35780  -0.35448
 Alpha  occ. eigenvalues --   -0.32889  -0.31646  -0.31568  -0.30792  -0.29742
 Alpha  occ. eigenvalues --   -0.27517  -0.26500  -0.25576  -0.23607  -0.22159
 Alpha  occ. eigenvalues --   -0.17270  -0.16493  -0.16197  -0.13405  -0.12741
 Alpha  occ. eigenvalues --    0.04384
 Alpha virt. eigenvalues --    0.05790   0.07320   0.08138   0.08620   0.08954
 Alpha virt. eigenvalues --    0.09494   0.09993   0.10733   0.10758   0.11777
 Alpha virt. eigenvalues --    0.12143   0.12703   0.12771   0.12919   0.14212

  Beta  occ. eigenvalues --  -88.75204 -18.99100 -14.22291 -14.22209 -14.18677
  Beta  occ. eigenvalues --  -10.17530 -10.14905 -10.11914 -10.10786 -10.10280
  Beta  occ. eigenvalues --  -10.10098 -10.07327  -7.83838  -5.80224  -5.79896
  Beta  occ. eigenvalues --   -5.79182  -0.93929  -0.86472  -0.79816  -0.78970
  Beta  occ. eigenvalues --   -0.71098  -0.68232  -0.64732  -0.57287  -0.55925
  Beta  occ. eigenvalues --   -0.51600  -0.47485  -0.45190  -0.42406  -0.40968
  Beta  occ. eigenvalues --   -0.38993  -0.38107  -0.37038  -0.35760  -0.35418
  Beta  occ. eigenvalues --   -0.32855  -0.31623  -0.31523  -0.30759  -0.29705
  Beta  occ. eigenvalues --   -0.27496  -0.26474  -0.25549  -0.23586  -0.22139
  Beta  occ. eigenvalues --   -0.17200  -0.16468  -0.16177  -0.13389  -0.12725
  Beta virt. eigenvalues --    0.06355   0.07378   0.07824   0.08548   0.08947
  Beta virt. eigenvalues --    0.09280   0.09972   0.10336   0.10839   0.11241
  Beta virt. eigenvalues --    0.12031   0.12636   0.12906   0.12962   0.13014

 Mulliken charges and spin densities:
               1          2
     1  C    0.383339  -0.764816
     2  C   -0.125309  -0.275785
     3  S   -0.000044   0.158958
     4  C   -0.122129  -0.387013
     5  C   -0.268493  -0.157498
     6  N   -0.211924   0.164813
     7  N    0.038938   0.088234
     8  C    0.347113  -0.873556
     9  C    0.232877  -0.129289
    10  C    0.806990  -0.884870
    11  O   -0.373426  -0.034395
    12  N   -0.323794   0.030593
    13  H   -0.211815   0.376350
    14  H    0.018691   0.115413
    15  H    0.045071   0.121809
    16  H   -0.284405   0.491214
    17  H    0.178398  -0.031482
    18  H    0.091097   0.169545
    19  H    0.257269   0.000315
    20  H    0.036353   0.137650
    21  H    0.160908   0.030476
    22  H   -0.525656   0.710474
    23  H   -0.146820   0.372593
    24  H   -0.694777   0.978026
    25  H   -0.308454   0.592243
 Sum of Mulliken charges =  -1.00000   1.00000

 Dipole moment (field-independent basis, Debye):
    X=             -6.8014    Y=             -1.7133    Z=             -5.7490  Tot=              9.0689
 Quadrupole moment (field-independent basis, Debye-Ang):
   XX=           -171.3511   YY=           -113.5137   ZZ=           -117.3308
   XY=              1.7402   XZ=            -18.0730   YZ=             -2.9925

 Summary of Natural Population Analysis:

                                       Natural Population
                Natural  -----------------------------------------------
    Atom  No    Charge         Core      Valence    Rydberg      Total
 -----------------------------------------------------------------------
      C    1   -0.09868      0.99959     2.08563    0.01346     3.09868
      C    2   -0.25943      0.99960     2.24821    0.01162     3.25943
      S    3    0.08891      4.99965     2.89306    0.01839     7.91109
      C    4   -0.28000      0.99955     2.27149    0.00897     3.28000
      C    5    0.22688      0.99956     1.75806    0.01549     2.77312
      N    6   -0.28547      0.99963     2.77425    0.01158     3.78547
      N    7   -0.32195      0.99967     2.81105    0.01123     3.82195
      C    8   -0.08845      0.99963     2.07621    0.01261     3.08845
      C    9   -0.24504      0.99958     2.23669    0.00877     3.24504
      C   10    0.34158      0.99970     1.63603    0.02269     2.65842
      O   11   -0.34141      0.99987     3.33544    0.00610     4.34141
      N   12   -0.39491      0.99971     2.88652    0.00868     3.89491
      H   13    0.09506      0.00000     0.40333    0.00160     0.40494
      H   14    0.09587      0.00000     0.40237    0.00176     0.40413
      H   15    0.09839      0.00000     0.39995    0.00166     0.40161
      H   16    0.11015      0.00000     0.38837    0.00148     0.38985
      H   17    0.11367      0.00000     0.38502    0.00131     0.38633
      H   18    0.10837      0.00000     0.38997    0.00166     0.39163
      H   19    0.20029      0.00000     0.29739    0.00231     0.29971
      H   20    0.09586      0.00000     0.40313    0.00101     0.40414
      H   21    0.10733      0.00000     0.39129    0.00138     0.39267
      H   22    0.11104      0.00000     0.38740    0.00156     0.38896
      H   23    0.12110      0.00000     0.37670    0.00221     0.37890
      H   24    0.20362      0.00000     0.26361    0.03277     0.29638
      H   25    0.19722      0.00000     0.29846    0.00432     0.30278
 =======================================================================
   * Total *    0.00000     15.99574    33.79965    0.20461    50.00000

 Normal termination of Gaussian 16 at Wed Dec  9 17:30:04 2020.
