 Gaussian 16, Revision A.03,

 -----------------------------------------------------------
 # opt freq B3LYP/6-31G(d) empiricaldispersion=gd3bj scf=xqc
 -----------------------------------------------------------

 ------------------------------
 CID_146768236_JID_955_neutraal
 ------------------------------
 Symbolic Z-matrix:
 Charge =  0 Multiplicity = 1

 SCF Done:  E(RB3LYP) =  -389.383879238     A.U. after   15 cycles
 SCF Done:  E(RB3LYP) =  -389.401408278     A.U. after   13 cycles
 SCF Done:  E(RB3LYP) =  -389.400934272     A.U. after   13 cycles
 SCF Done:  E(RB3LYP) =  -389.401711614     A.U. after   13 cycles
 SCF Done:  E(RB3LYP) =  -389.402484936     A.U. after   12 cycles
 SCF Done:  E(RB3LYP) =  -389.402271241     A.U. after   12 cycles
 SCF Done:  E(RB3LYP) =  -389.402574745     A.U. after   12 cycles
 SCF Done:  E(RB3LYP) =  -389.402615862     A.U. after   11 cycles
 SCF Done:  E(RB3LYP) =  -389.402622336     A.U. after    9 cycles
 SCF Done:  E(RB3LYP) =  -389.402622412     A.U. after    8 cycles
 SCF Done:  E(RB3LYP) =  -389.402639404     A.U. after   10 cycles
 SCF Done:  E(RB3LYP) =  -389.402640595     A.U. after   11 cycles
 SCF Done:  E(RB3LYP) =  -389.402640620     A.U. after    9 cycles
 SCF Done:  E(RB3LYP) =  -389.402640583     A.U. after   10 cycles
 Optimization completed on the basis of negligible forces.
    -- Stationary point found.
 Normal termination of Gaussian 16 at Tue Dec  8 13:46:34 2020.

 --------------------------------------------------------------------
 #N Geom=AllCheck Guess=TCheck SCRF=Check GenChk RB3LYP/6-31G(d) Freq
 --------------------------------------------------------------------

 Structure from the checkpoint file:  "JID_955.chk"
 ------------------------------
 CID_146768236_JID_955_neutraal
 ------------------------------
 Charge =  0 Multiplicity = 1

 SCF Done:  E(RB3LYP) =  -389.402640583     A.U. after    1 cycles

  Exact polarizability: 128.865  -7.121  98.523   3.792  -3.855  76.599
 Approx polarizability: 171.835 -14.230 141.644   9.751 -10.110 105.925

                      1                      2                      3
                      A                      A                      A
 Frequencies --      5.6758                60.4918                79.2729
 Red. masses --      2.7590                 3.7619                 3.1909
 Frc consts  --      0.0001                 0.0081                 0.0118
 IR Inten    --      0.0174                 0.5316                 0.9779

                      4                      5                      6
                      A                      A                      A
 Frequencies --    145.2736               175.1343               189.3047
 Red. masses --      3.5492                 2.8961                 2.7412
 Frc consts  --      0.0441                 0.0523                 0.0579
 IR Inten    --      0.2579                 0.2866                 0.0839

                      7                      8                      9
                      A                      A                      A
 Frequencies --    213.9110               235.6781               252.0270
 Red. masses --      2.6576                 1.0287                 1.0338
 Frc consts  --      0.0716                 0.0337                 0.0387
 IR Inten    --      0.3748                 0.0002                 0.0001

                     10                     11                     12
                      A                      A                      A
 Frequencies --    272.4267               290.9980               329.9421
 Red. masses --      1.1668                 1.1448                 2.6974
 Frc consts  --      0.0510                 0.0571                 0.1730
 IR Inten    --      0.0757                 0.1520                 0.3376

                     13                     14                     15
                      A                      A                      A
 Frequencies --    358.8262               434.1098               469.9106
 Red. masses --      2.3486                 3.7564                 3.9848
 Frc consts  --      0.1782                 0.4171                 0.5184
 IR Inten    --      0.6156                 1.2943                 0.7896

                     16                     17                     18
                      A                      A                      A
 Frequencies --    479.8800               537.6029               573.1858
 Red. masses --      4.9168                 4.9003                 5.2395
 Frc consts  --      0.6671                 0.8344                 1.0142
 IR Inten    --      3.2938                 3.2732                 0.3149

                     19                     20                     21
                      A                      A                      A
 Frequencies --    580.1971               612.6862               616.4753
 Red. masses --      5.0847                 1.2041                 1.2973
 Frc consts  --      1.0085                 0.2663                 0.2905
 IR Inten    --      0.4435                48.8593                37.8414

                     22                     23                     24
                      A                      A                      A
 Frequencies --    643.1163               791.4141               888.9999
 Red. masses --      3.1747                 2.9419                 2.2984
 Frc consts  --      0.7736                 1.0856                 1.0703
 IR Inten    --     13.2762                 0.7034                 1.1626

                     25                     26                     27
                      A                      A                      A
 Frequencies --    945.0257               951.4660               952.2478
 Red. masses --      1.1733                 2.2789                 1.6315
 Frc consts  --      0.6173                 1.2155                 0.8716
 IR Inten    --      1.2060                 0.6207                 0.1005

                     28                     29                     30
                      A                      A                      A
 Frequencies --    974.6654              1030.8073              1051.8089
 Red. masses --      1.5245                 1.8525                 1.2856
 Frc consts  --      0.8533                 1.1598                 0.8379
 IR Inten    --      0.0137                 8.6952                 0.0114

                     31                     32                     33
                      A                      A                      A
 Frequencies --   1133.1266              1143.3443              1157.7954
 Red. masses --      2.2547                 1.6887                 2.8814
 Frc consts  --      1.7057                 1.3006                 2.2757
 IR Inten    --      1.7824                 0.0406                 5.5195

                     34                     35                     36
                      A                      A                      A
 Frequencies --   1203.8090              1233.2961              1283.4655
 Red. masses --      1.7827                 2.4074                 2.8841
 Frc consts  --      1.5221                 2.1574                 2.7991
 IR Inten    --      0.6110                16.0390                50.4060

                     37                     38                     39
                      A                      A                      A
 Frequencies --   1344.2995              1371.0012              1417.1410
 Red. masses --      1.3278                 1.5850                 1.1988
 Frc consts  --      1.4137                 1.7553                 1.4184
 IR Inten    --      2.1373                45.0493                 1.9831

                     40                     41                     42
                      A                      A                      A
 Frequencies --   1423.1407              1439.5395              1444.4507
 Red. masses --      1.2191                 1.2047                 1.2188
 Frc consts  --      1.4547                 1.4709                 1.4983
 IR Inten    --      2.4355                 0.6834                 1.8118

                     43                     44                     45
                      A                      A                      A
 Frequencies --   1510.5433              1513.6650              1516.3218
 Red. masses --      1.0490                 1.0457                 1.0429
 Frc consts  --      1.4102                 1.4116                 1.4127
 IR Inten    --      3.0714                 0.0263                 1.2919

                     46                     47                     48
                      A                      A                      A
 Frequencies --   1519.7932              1523.8901              1529.0682
 Red. masses --      1.0488                 1.0480                 1.0445
 Frc consts  --      1.4272                 1.4339                 1.4388
 IR Inten    --      1.1948                 2.9676                 6.8102

                     49                     50                     51
                      A                      A                      A
 Frequencies --   1536.2927              1540.0250              2239.0860
 Red. masses --      1.0546                 1.0554                 5.9594
 Frc consts  --      1.4665                 1.4747                17.6033
 IR Inten    --      2.3250                 4.1031                 0.8382

                     52                     53                     54
                      A                      A                      A
 Frequencies --   2366.0762              3016.0807              3051.0068
 Red. masses --     11.9323                 1.0827                 1.0345
 Frc consts  --     39.3578                 5.8026                 5.6736
 IR Inten    --      2.1121                20.8511                22.1042

                     55                     56                     57
                      A                      A                      A
 Frequencies --   3054.8226              3060.7525              3064.5573
 Red. masses --      1.0349                 1.0333                 1.0337
 Frc consts  --      5.6902                 5.7035                 5.7198
 IR Inten    --     37.1587                15.7112                26.3575

                     58                     59                     60
                      A                      A                      A
 Frequencies --   3120.3279              3125.5669              3131.5678
 Red. masses --      1.1032                 1.1026                 1.1032
 Frc consts  --      6.3285                 6.3463                 6.3742
 IR Inten    --      1.0651                67.6373                23.8476

                     61                     62                     63
                      A                      A                      A
 Frequencies --   3134.7367              3135.7554              3140.9688
 Red. masses --      1.1029                 1.1044                 1.1037
 Frc consts  --      6.3856                 6.3982                 6.4157
 IR Inten    --     28.9440                 0.0455                52.4822

                     64                     65                     66
                      A                      A                      A
 Frequencies --   3150.1159              3151.2235              3497.4614
 Red. masses --      1.1037                 1.1035                 1.1604
 Frc consts  --      6.4530                 6.4565                 8.3628
 IR Inten    --     16.8155                22.0995                57.3386

 - Thermochemistry -
 -------------------
 Temperature   298.150 Kelvin.  Pressure   1.00000 Atm.
 Atom     1 has atomic number  6 and mass  12.00000

 Molecular mass:   134.10955 amu.
 Principal axes and moments of inertia in atomic units:
                           1         2         3
     Eigenvalues --   856.003132814.666423135.85677
           X            0.99981   0.01825  -0.00686
           Y           -0.01810   0.99961   0.02141
           Z            0.00725  -0.02128   0.99975
 This molecule is an asymmetric top.
 Rotational symmetry number  1.
 Warning -- assumption of classical behavior for rotation
           may cause significant error
 Rotational temperatures (Kelvin)      0.10118     0.03077     0.02762
 Rotational constants (GHZ):           2.10833     0.64119     0.57552
 Zero-point vibrational energy     546494.1 (Joules/Mol)
                                  130.61522 (Kcal/Mol)
 Warning -- explicit consideration of  21 degrees of freedom as
           vibrations may cause significant error
 Vibrational temperatures:      8.17    87.03   114.06   209.02   251.98
          (Kelvin)            272.37   307.77   339.09   362.61   391.96
                              418.68   474.71   516.27   624.59   676.10
                              690.44   773.49   824.69   834.77   881.52
                              886.97   925.30  1138.67  1279.07  1359.68
                             1368.95  1370.07  1402.33  1483.10  1513.32
                             1630.32  1645.02  1665.81  1732.01  1774.44
                             1846.62  1934.15  1972.56  2038.95  2047.58
                             2071.18  2078.24  2173.33  2177.83  2181.65
                             2186.64  2192.54  2199.99  2210.38  2215.75
                             3221.55  3404.26  4339.47  4389.72  4395.21
                             4403.74  4409.21  4489.46  4496.99  4505.63
                             4510.19  4511.65  4519.15  4532.31  4533.91
                             5032.07

 Zero-point correction=                           0.208149 (Hartree/Particle)
 Thermal correction to Energy=                    0.220795
 Thermal correction to Enthalpy=                  0.221739
 Thermal correction to Gibbs Free Energy=         0.167894
 Sum of electronic and zero-point Energies=           -389.194492
 Sum of electronic and thermal Energies=              -389.181846
 Sum of electronic and thermal Enthalpies=            -389.180902
 Sum of electronic and thermal Free Energies=         -389.234747

                     E (Thermal)             CV                S
                      KCal/Mol        Cal/Mol-Kelvin    Cal/Mol-Kelvin
 Total                  138.551             45.778            113.327
 Electronic               0.000              0.000              0.000
 Translational            0.889              2.981             40.593
 Rotational               0.889              2.981             30.403
 Vibrational            136.773             39.816             42.331
 Vibration     1          0.593              1.987              9.136
 Vibration     2          0.597              1.973              4.441
 Vibration     3          0.600              1.963              3.909
 Vibration     4          0.617              1.908              2.733
 Vibration     5          0.627              1.873              2.380
 Vibration     6          0.633              1.855              2.235
 Vibration     7          0.644              1.820              2.010
 Vibration     8          0.655              1.786              1.835
 Vibration     9          0.664              1.759              1.716
 Vibration    10          0.675              1.724              1.581
 Vibration    11          0.687              1.690              1.468
 Vibration    12          0.713              1.616              1.260
 Vibration    13          0.734              1.557              1.127
 Vibration    14          0.795              1.396              0.845
 Vibration    15          0.827              1.317              0.738
 Vibration    16          0.836              1.295              0.710
 Vibration    17          0.893              1.167              0.570
 Vibration    18          0.929              1.089              0.498
 Vibration    19          0.937              1.074              0.485
 Vibration    20          0.972              1.005              0.428
 Vibration    21          0.976              0.997              0.422

 Optimization completed on the basis of negligible forces.
    -- Stationary point found.
 Normal termination of Gaussian 16 at Tue Dec  8 13:50:35 2020.

 ----------------------------------------------------------------------
 # B3LYP/6-311++G(d,p) empiricaldispersion=gd3bj scf=xqc pop=npa geom=c
 heck
 ----------------------------------------------------------------------

 --------------------------------------
 CID_146768236_JID_955_Energie_neutraal
 --------------------------------------
 Structure from the checkpoint file:  "JID_955.chk"
 Charge =  0 Multiplicity = 1

 SCF Done:  E(RB3LYP) =  -389.515472351     A.U. after   14 cycles
 Normal termination of Gaussian 16 at Tue Dec  8 13:52:33 2020.

 ----------------------------------------------------------------------
 # B3LYP/6-311++G(d,p) empiricaldispersion=gd3bj scf=xqc pop=npa geom=c
 heck
 ----------------------------------------------------------------------

 ------------------------------------
 CID_146768236_JID_955_Energie_kation
 ------------------------------------
 Structure from the checkpoint file:  "JID_955.chk"
 Charge =  1 Multiplicity = 2

 SCF Done:  E(UB3LYP) =  -389.186723160     A.U. after   33 cycles
 SCF Done:  E(UB3LYP) =  -389.186723160     a.u. after    2 cycles
 Normal termination of Gaussian 16 at Tue Dec  8 14:02:35 2020.
 Gaussian 16:  ES64L-G16RevA.03 25-Dec-2016

 ----------------------------------------------------------------------
 # B3LYP/6-311++G(d,p) empiricaldispersion=gd3bj scf=xqc pop=npa geom=c
 heck
 ----------------------------------------------------------------------

 -----------------------------------
 CID_146768236_JID_955_Energie_anion
 -----------------------------------
 Structure from the checkpoint file:  "JID_955.chk"
 Charge = -1 Multiplicity = 2

                         Standard orientation:
 ---------------------------------------------------------------------
 Center     Atomic      Atomic             Coordinates (Angstroms)
 Number     Number       Type             X           Y           Z
 ---------------------------------------------------------------------
      1          6           0        3.204374   -0.948196   -0.668925
      2          6           0        2.523540   -0.052539    0.383621
      3          6           0        2.973584    1.414445    0.244078
      4          6           0        1.063127   -0.158249    0.294051
      5          6           0       -0.139568   -0.222311    0.187803
      6          6           0       -1.605087   -0.337550    0.071925
      7          6           0       -1.957866   -1.366228   -1.033905
      8          6           0       -2.198192   -0.803304    1.427158
      9          6           0       -2.179016    0.974170   -0.284270
     10          6           0       -2.678216    2.033519   -0.575501
     11          1           0        2.932702   -0.623859   -1.679289
     12          1           0        2.899643   -1.992947   -0.554015
     13          1           0        4.294128   -0.890215   -0.569119
     14          1           0        2.831146   -0.407002    1.378533
     15          1           0        2.694478    1.807256   -0.739476
     16          1           0        2.504449    2.044003    1.006080
     17          1           0        4.061757    1.488941    0.350446
     18          1           0       -1.537234   -2.342782   -0.774931
     19          1           0       -3.044736   -1.456411   -1.126356
     20          1           0       -1.547219   -1.050403   -1.996149
     21          1           0       -1.959098   -0.086619    2.216751
     22          1           0       -3.286295   -0.890763    1.347446
     23          1           0       -1.778509   -1.777416    1.696629
     24          1           0       -3.105299    2.975679   -0.832756
 ---------------------------------------------------------------------

 SCF Done:  E(UB3LYP) =  -389.499263505     A.U. after   33 cycles
 SCF Done:  E(UB3LYP) =  -389.499263506     a.u. after    1 cycles

 The electronic state is 2-A.
 Alpha  occ. eigenvalues --  -10.13451 -10.09536 -10.07987 -10.07252 -10.07114
 Alpha  occ. eigenvalues --  -10.06724 -10.06060 -10.06035 -10.06021 -10.05800
 Alpha  occ. eigenvalues --   -0.74724  -0.71116  -0.64399  -0.62214  -0.59809
 Alpha  occ. eigenvalues --   -0.58597  -0.54001  -0.50611  -0.44700  -0.40817
 Alpha  occ. eigenvalues --   -0.38237  -0.36434  -0.34786  -0.33468  -0.31393
 Alpha  occ. eigenvalues --   -0.29992  -0.28798  -0.28633  -0.28514  -0.26734
 Alpha  occ. eigenvalues --   -0.26396  -0.25033  -0.24973  -0.18637  -0.18104
 Alpha  occ. eigenvalues --   -0.15547  -0.15506   0.04518
 Alpha virt. eigenvalues --    0.06449   0.07315   0.08229   0.08649   0.09057
 Alpha virt. eigenvalues --    0.09610   0.10488   0.10848   0.11370   0.11482
 Alpha virt. eigenvalues --    0.12096   0.12572   0.13437   0.13706   0.13910

  Beta  occ. eigenvalues --  -10.13447 -10.09522 -10.07990 -10.07225 -10.07078
  Beta  occ. eigenvalues --  -10.06702 -10.06029 -10.06025 -10.05986 -10.05793
  Beta  occ. eigenvalues --   -0.74704  -0.71078  -0.64377  -0.62179  -0.59752
  Beta  occ. eigenvalues --   -0.58528  -0.53939  -0.50540  -0.44662  -0.40786
  Beta  occ. eigenvalues --   -0.38200  -0.36396  -0.34735  -0.33424  -0.31341
  Beta  occ. eigenvalues --   -0.29960  -0.28758  -0.28596  -0.28479  -0.26683
  Beta  occ. eigenvalues --   -0.26364  -0.24985  -0.24934  -0.18607  -0.18087
  Beta  occ. eigenvalues --   -0.15523  -0.15467
  Beta virt. eigenvalues --    0.06596   0.07488   0.07998   0.08716   0.09211
  Beta virt. eigenvalues --    0.09697   0.10035   0.10884   0.11015   0.11550
  Beta virt. eigenvalues --    0.11881   0.12360   0.12953   0.13512   0.13931

 Mulliken charges and spin densities:
               1          2
     1  C    1.061489  -1.720760
     2  C   -7.979455   8.328423
     3  C    1.216623  -1.865980
     4  C    6.783057  -6.863096
     5  C    5.397397  -5.648461
     6  C   -5.159428   5.937945
     7  C    0.296908  -1.045350
     8  C    1.093471  -1.855533
     9  C    4.438594  -4.746747
    10  C   -4.754960   4.884229
    11  H   -0.054136   0.190354
    12  H   -0.094004   0.234811
    13  H   -0.589050   0.746712
    14  H   -0.337559   0.520121
    15  H   -0.037151   0.175828
    16  H   -0.033066   0.172767
    17  H   -0.555750   0.715291
    18  H   -0.072124   0.226705
    19  H   -0.190351   0.361565
    20  H   -0.034521   0.191948
    21  H   -0.130522   0.289471
    22  H   -0.325646   0.501228
    23  H   -0.117375   0.272290
    24  H   -0.822443   0.996239
 Sum of Mulliken charges =  -1.00000   1.00000

 Dipole moment (field-independent basis, Debye):
    X=             -2.3937    Y=             -0.3179    Z=             -0.7658  Tot=              2.5333
 Quadrupole moment (field-independent basis, Debye-Ang):
   XX=           -143.9902   YY=           -101.3320   ZZ=            -93.9650
   XY=              0.3635   XZ=             -0.5027   YZ=              0.8683

 Summary of Natural Population Analysis:

                                       Natural Population
                Natural  -----------------------------------------------
    Atom  No    Charge         Core      Valence    Rydberg      Total
 -----------------------------------------------------------------------
      C    1   -0.27308      0.99965     2.26851    0.00491     3.27308
      C    2   -0.14699      0.99957     2.13667    0.01075     3.14699
      C    3   -0.27325      0.99965     2.26867    0.00492     3.27325
      C    4    0.01196      0.99924     1.97979    0.00902     2.98804
      C    5   -0.00695      0.99925     1.99697    0.01073     3.00695
      C    6   -0.10885      0.99949     2.09663    0.01272     3.10885
      C    7   -0.26400      0.99964     2.25894    0.00542     3.26400
      C    8   -0.26594      0.99964     2.25915    0.00714     3.26594
      C    9    0.01366      0.99936     1.97564    0.01134     2.98634
      C   10   -0.11826      0.99926     2.11442    0.00458     3.11826
      H   11    0.09763      0.00000     0.40095    0.00142     0.40237
      H   12    0.10141      0.00000     0.39709    0.00150     0.39859
      H   13    0.09921      0.00000     0.39886    0.00193     0.40079
      H   14    0.10684      0.00000     0.39049    0.00268     0.39316
      H   15    0.09821      0.00000     0.40035    0.00144     0.40179
      H   16    0.10165      0.00000     0.39694    0.00141     0.39835
      H   17    0.09909      0.00000     0.39903    0.00187     0.40091
      H   18    0.10280      0.00000     0.39580    0.00140     0.39720
      H   19    0.10033      0.00000     0.39828    0.00139     0.39967
      H   20    0.10448      0.00000     0.39415    0.00137     0.39552
      H   21    0.10525      0.00000     0.39351    0.00125     0.39475
      H   22    0.10113      0.00000     0.39745    0.00142     0.39887
      H   23    0.10311      0.00000     0.39564    0.00126     0.39689
      H   24    0.11057      0.00000     0.38786    0.00157     0.38943
 =======================================================================
   * Total *    0.00000      9.99477    26.90180    0.10343    37.00000

 Normal termination of Gaussian 16 at Tue Dec  8 14:11:01 2020.
