 Gaussian 16, Revision A.03,

 -----------------------------------------------------------
 # opt freq B3LYP/6-31G(d) empiricaldispersion=gd3bj scf=xqc
 -----------------------------------------------------------

 -------------------------------
 CID_122240193_JID_3768_neutraal
 -------------------------------
 Symbolic Z-matrix:
 Charge =  0 Multiplicity = 1

 SCF Done:  E(RB3LYP) =  -581.720010468     A.U. after   14 cycles
 SCF Done:  E(RB3LYP) =  -581.724415302     A.U. after   12 cycles
 SCF Done:  E(RB3LYP) =  -581.724612486     A.U. after   11 cycles
 SCF Done:  E(RB3LYP) =  -581.724614949     A.U. after   10 cycles
 SCF Done:  E(RB3LYP) =  -581.724700182     A.U. after   10 cycles
 SCF Done:  E(RB3LYP) =  -581.724751817     A.U. after   10 cycles
 SCF Done:  E(RB3LYP) =  -581.724755128     A.U. after    9 cycles
 SCF Done:  E(RB3LYP) =  -581.724756921     A.U. after    9 cycles
 SCF Done:  E(RB3LYP) =  -581.724757132     A.U. after    8 cycles
 SCF Done:  E(RB3LYP) =  -581.724757212     A.U. after    7 cycles
 Optimization completed.
    -- Stationary point found.
 Normal termination of Gaussian 16 at Sun Dec 13 20:06:37 2020.

 --------------------------------------------------------------------
 #N Geom=AllCheck Guess=TCheck SCRF=Check GenChk RB3LYP/6-31G(d) Freq
 --------------------------------------------------------------------

 Structure from the checkpoint file:  "JID_3768.chk"
 -------------------------------
 CID_122240193_JID_3768_neutraal
 -------------------------------
 Charge =  0 Multiplicity = 1

 SCF Done:  E(RB3LYP) =  -581.724757212     A.U. after    1 cycles

  Exact polarizability: 129.629  -3.396 112.412  -0.535   1.088 108.495
 Approx polarizability: 154.950  -0.347 165.602   0.589  -1.871 169.555

                      1                      2                      3
                      A                      A                      A
 Frequencies --     28.0932                59.5283                62.9492
 Red. masses --      3.0938                 7.7680                 3.1464
 Frc consts  --      0.0014                 0.0162                 0.0073
 IR Inten    --      0.2550                 2.6329                 0.1609

                      4                      5                      6
                      A                      A                      A
 Frequencies --     88.6939               144.8703               191.9894
 Red. masses --      4.4127                 2.8806                 2.9458
 Frc consts  --      0.0205                 0.0356                 0.0640
 IR Inten    --      0.3814                 0.0364                 0.1215

                      7                      8                      9
                      A                      A                      A
 Frequencies --    229.8335               238.5759               244.5326
 Red. masses --      1.1253                 1.5821                 1.3311
 Frc consts  --      0.0350                 0.0531                 0.0469
 IR Inten    --      0.0567                 0.1904                 0.0399

                     10                     11                     12
                      A                      A                      A
 Frequencies --    266.8730               269.3399               291.3856
 Red. masses --      1.1058                 2.1910                 1.4381
 Frc consts  --      0.0464                 0.0936                 0.0719
 IR Inten    --      0.0158                 0.6400                 0.0800

                     13                     14                     15
                      A                      A                      A
 Frequencies --    301.7151               318.8600               360.6242
 Red. masses --      2.0627                 2.1881                 2.7827
 Frc consts  --      0.1106                 0.1311                 0.2132
 IR Inten    --      0.1240                 0.4631                 2.0735

                     16                     17                     18
                      A                      A                      A
 Frequencies --    364.9568               381.6492               404.4402
 Red. masses --      2.3758                 2.4388                 2.1767
 Frc consts  --      0.1864                 0.2093                 0.2098
 IR Inten    --      0.1425                 0.9054                 0.5720

                     19                     20                     21
                      A                      A                      A
 Frequencies --    438.6767               457.0162               511.7734
 Red. masses --      2.0456                 1.9991                 3.8221
 Frc consts  --      0.2319                 0.2460                 0.5898
 IR Inten    --      2.2608                 0.5858                 8.5263

                     22                     23                     24
                      A                      A                      A
 Frequencies --    571.6288               609.4087               656.9231
 Red. masses --      3.3535                 3.1055                 1.3197
 Frc consts  --      0.6456                 0.6795                 0.3356
 IR Inten    --     17.5436                 7.5453                88.9637

                     25                     26                     27
                      A                      A                      A
 Frequencies --    731.4129               761.6618               795.1578
 Red. masses --      3.3236                 2.7948                 3.8128
 Frc consts  --      1.0476                 0.9553                 1.4204
 IR Inten    --     15.6622                 2.3228                53.1526

                     28                     29                     30
                      A                      A                      A
 Frequencies --    846.1182               859.3996               890.6418
 Red. masses --      1.4613                 1.9956                 2.2015
 Frc consts  --      0.6164                 0.8684                 1.0289
 IR Inten    --      1.2265                 3.7525                 0.8446

                     31                     32                     33
                      A                      A                      A
 Frequencies --    893.7243               930.4485               949.7159
 Red. masses --      2.2521                 1.9333                 2.2028
 Frc consts  --      1.0598                 0.9861                 1.1706
 IR Inten    --      3.3302                 2.1393                 0.1966

                     34                     35                     36
                      A                      A                      A
 Frequencies --    961.7867               971.4551               978.4432
 Red. masses --      1.7277                 1.4363                 1.6152
 Frc consts  --      0.9416                 0.7986                 0.9111
 IR Inten    --      2.2896                 0.0970                 1.1925

                     37                     38                     39
                      A                      A                      A
 Frequencies --   1002.3287              1017.6519              1044.2999
 Red. masses --      1.3525                 1.6110                 1.2890
 Frc consts  --      0.8006                 0.9830                 0.8282
 IR Inten    --      1.3422                 0.7662                 3.7351

                     40                     41                     42
                      A                      A                      A
 Frequencies --   1056.2177              1104.8946              1118.1154
 Red. masses --      2.1077                 1.2371                 1.7451
 Frc consts  --      1.3854                 0.8898                 1.2854
 IR Inten    --      2.1329                 0.3159                 0.2761

                     43                     44                     45
                      A                      A                      A
 Frequencies --   1126.8371              1161.7401              1216.1006
 Red. masses --      1.7606                 3.0426                 2.2128
 Frc consts  --      1.3171                 2.4194                 1.9281
 IR Inten    --      8.4838               181.1054                34.9416

                     46                     47                     48
                      A                      A                      A
 Frequencies --   1230.9863              1239.8972              1244.5981
 Red. masses --      2.3390                 1.7559                 1.7691
 Frc consts  --      2.0883                 1.5905                 1.6146
 IR Inten    --      2.7696                 6.5714                 9.0040

                     49                     50                     51
                      A                      A                      A
 Frequencies --   1254.3929              1259.3495              1297.7578
 Red. masses --      2.7245                 1.5224                 1.3563
 Frc consts  --      2.5259                 1.4226                 1.3458
 IR Inten    --     10.0079                 6.9807                 1.7539

                     52                     53                     54
                      A                      A                      A
 Frequencies --   1313.2959              1322.1154              1336.6513
 Red. masses --      1.9820                 1.9242                 1.6150
 Frc consts  --      2.0141                 1.9817                 1.7000
 IR Inten    --      2.0623                 3.8167                 7.2692

                     55                     56                     57
                      A                      A                      A
 Frequencies --   1358.8416              1390.3464              1417.3489
 Red. masses --      1.4749                 2.2034                 1.4302
 Frc consts  --      1.6046                 2.5095                 1.6928
 IR Inten    --      7.6661                20.2178                 2.0937

                     58                     59                     60
                      A                      A                      A
 Frequencies --   1427.5129              1432.0037              1446.7161
 Red. masses --      1.2307                 1.3034                 1.2353
 Frc consts  --      1.4776                 1.5747                 1.5233
 IR Inten    --     10.1300                 4.5170                 0.6219

                     61                     62                     63
                      A                      A                      A
 Frequencies --   1454.1664              1505.2561              1507.6360
 Red. masses --      1.2547                 1.0828                 1.0870
 Frc consts  --      1.5632                 1.4456                 1.4558
 IR Inten    --      8.5857                 2.5441                 0.9263

                     64                     65                     66
                      A                      A                      A
 Frequencies --   1515.3527              1516.8238              1518.4265
 Red. masses --      1.0467                 1.0577                 1.0556
 Frc consts  --      1.4161                 1.4338                 1.4340
 IR Inten    --      0.1475                 2.7676                 1.3106

                     67                     68                     69
                      A                      A                      A
 Frequencies --   1522.7813              1530.4477              1532.8267
 Red. masses --      1.0496                 1.0491                 1.0567
 Frc consts  --      1.4340                 1.4478                 1.4628
 IR Inten    --      2.5229                 4.1127                 1.6079

                     70                     71                     72
                      A                      A                      A
 Frequencies --   1535.5233              1537.4430              1545.5579
 Red. masses --      1.1069                 1.0601                 1.0673
 Frc consts  --      1.5377                 1.4764                 1.5021
 IR Inten    --      6.0949                 3.9662                19.5042

                     73                     74                     75
                      A                      A                      A
 Frequencies --   1826.2445              3029.6572              3031.0525
 Red. masses --      9.5470                 1.0621                 1.0350
 Frc consts  --     18.7602                 5.7437                 5.6026
 IR Inten    --    194.9441                19.5168                28.4659

                     76                     77                     78
                      A                      A                      A
 Frequencies --   3036.6488              3051.4111              3053.5800
 Red. masses --      1.0361                 1.0570                 1.0368
 Frc consts  --      5.6289                 5.7986                 5.6957
 IR Inten    --     37.1792                47.3493                19.7136

                     79                     80                     81
                      A                      A                      A
 Frequencies --   3060.0578              3065.3041              3067.4344
 Red. masses --      1.0444                 1.0815                 1.0582
 Frc consts  --      5.7623                 5.9871                 5.8662
 IR Inten    --     24.8393                 4.9936                11.2432

                     82                     83                     84
                      A                      A                      A
 Frequencies --   3083.0942              3093.6647              3100.6669
 Red. masses --      1.0988                 1.1022                 1.1038
 Frc consts  --      6.1540                 6.2154                 6.2523
 IR Inten    --     18.2456                 9.8401                17.1112

                     85                     86                     87
                      A                      A                      A
 Frequencies --   3102.0739              3106.6473              3106.8033
 Red. masses --      1.1031                 1.1021                 1.1038
 Frc consts  --      6.2543                 6.2667                 6.2771
 IR Inten    --     34.5415                52.7919                53.7896

                     88                     89                     90
                      A                      A                      A
 Frequencies --   3117.2796              3120.2647              3124.5321
 Red. masses --      1.1026                 1.1070                 1.1013
 Frc consts  --      6.3126                 6.3502                 6.3346
 IR Inten    --      7.9364                42.0981                46.3976

                     91                     92                     93
                      A                      A                      A
 Frequencies --   3148.1462              3151.4832              3676.1886
 Red. masses --      1.1016                 1.0999                 1.0638
 Frc consts  --      6.4324                 6.4361                 8.4706
 IR Inten    --     16.2554                25.2577                43.2984

 - Thermochemistry -
 -------------------
 Temperature   298.150 Kelvin.  Pressure   1.00000 Atm.
 Atom     1 has atomic number  6 and mass  12.00000

 Molecular mass:   184.14633 amu.
 Principal axes and moments of inertia in atomic units:
                           1         2         3
     Eigenvalues --  1324.661704008.067314224.94439
           X            0.99973  -0.02311  -0.00062
           Y            0.02311   0.99972   0.00426
           Z            0.00052  -0.00427   0.99999
 This molecule is an asymmetric top.
 Rotational symmetry number  1.
 Warning -- assumption of classical behavior for rotation
           may cause significant error
 Rotational temperatures (Kelvin)      0.06539     0.02161     0.02050
 Rotational constants (GHZ):           1.36242     0.45028     0.42716
 Zero-point vibrational energy     779120.5 (Joules/Mol)
                                  186.21427 (Kcal/Mol)
 Warning -- explicit consideration of  23 degrees of freedom as
           vibrations may cause significant error
 Vibrational temperatures:     40.42    85.65    90.57   127.61   208.44
          (Kelvin)            276.23   330.68   343.26   351.83   383.97
                              387.52   419.24   434.10   458.77   518.86
                              525.09   549.11   581.90   631.16   657.54
                              736.33   822.45   876.80   945.17  1052.34
                             1095.86  1144.05  1217.38  1236.48  1281.43
                             1285.87  1338.71  1366.43  1383.80  1397.71
                             1407.76  1442.13  1464.17  1502.51  1519.66
                             1589.70  1608.72  1621.27  1671.48  1749.70
                             1771.11  1783.94  1790.70  1804.79  1811.92
                             1867.18  1889.54  1902.23  1923.14  1955.07
                             2000.40  2039.25  2053.87  2060.33  2081.50
                             2092.22  2165.73  2169.15  2180.25  2182.37
                             2184.68  2190.94  2201.97  2205.40  2209.28
                             2212.04  2223.71  2627.56  4359.00  4361.01
                             4369.06  4390.30  4393.42  4402.74  4410.29
                             4413.35  4435.88  4451.09  4461.17  4463.19
                             4469.77  4470.00  4485.07  4489.36  4495.50
                             4529.48  4534.28  5289.22

 Zero-point correction=                           0.296751 (Hartree/Particle)
 Thermal correction to Energy=                    0.311464
 Thermal correction to Enthalpy=                  0.312408
 Thermal correction to Gibbs Free Energy=         0.255364
 Sum of electronic and zero-point Energies=           -581.428006
 Sum of electronic and thermal Energies=              -581.413293
 Sum of electronic and thermal Enthalpies=            -581.412349
 Sum of electronic and thermal Free Energies=         -581.469393

                     E (Thermal)             CV                S
                      KCal/Mol        Cal/Mol-Kelvin    Cal/Mol-Kelvin
 Total                  195.447             56.423            120.060
 Electronic               0.000              0.000              0.000
 Translational            0.889              2.981             41.538
 Rotational               0.889              2.981             31.484
 Vibrational            193.669             50.461             47.038
 Vibration     1          0.593              1.984              5.960
 Vibration     2          0.597              1.974              4.473
 Vibration     3          0.597              1.972              4.363
 Vibration     4          0.602              1.957              3.689
 Vibration     5          0.616              1.908              2.739
 Vibration     6          0.634              1.851              2.209
 Vibration     7          0.652              1.795              1.880
 Vibration     8          0.657              1.782              1.813
 Vibration     9          0.660              1.772              1.770
 Vibration    10          0.672              1.734              1.616
 Vibration    11          0.674              1.730              1.600
 Vibration    12          0.687              1.690              1.466
 Vibration    13          0.694              1.670              1.407
 Vibration    14          0.705              1.638              1.316
 Vibration    15          0.735              1.553              1.119
 Vibration    16          0.738              1.544              1.101
 Vibration    17          0.751              1.509              1.033
 Vibration    18          0.770              1.461              0.946
 Vibration    19          0.799              1.386              0.831
 Vibration    20          0.815              1.345              0.775
 Vibration    21          0.867              1.224              0.629
 Vibration    22          0.928              1.093              0.501
 Vibration    23          0.968              1.012              0.434

 Optimization completed.
    -- Stationary point found.
 Normal termination of Gaussian 16 at Sun Dec 13 20:16:41 2020.

 ----------------------------------------------------------------------
 # B3LYP/6-311++G(d,p) empiricaldispersion=gd3bj scf=xqc pop=npa geom=c
 heck
 ----------------------------------------------------------------------

 ---------------------------------------
 CID_122240193_JID_3768_Energie_neutraal
 ---------------------------------------
 Structure from the checkpoint file:  "JID_3768.chk"
 Charge =  0 Multiplicity = 1

 SCF Done:  E(RB3LYP) =  -581.897001771     A.U. after   14 cycles
 Normal termination of Gaussian 16 at Sun Dec 13 20:21:27 2020.

 ----------------------------------------------------------------------
 # B3LYP/6-311++G(d,p) empiricaldispersion=gd3bj scf=xqc pop=npa geom=c
 heck
 ----------------------------------------------------------------------

 -------------------------------------
 CID_122240193_JID_3768_Energie_kation
 -------------------------------------
 Structure from the checkpoint file:  "JID_3768.chk"
 Charge =  1 Multiplicity = 2

 SCF Done:  E(UB3LYP) =  -581.548067063     A.U. after   33 cycles
 SCF Done:  E(UB3LYP) =  -581.549202963     a.u. after    6 cycles
 Normal termination of Gaussian 16 at Sun Dec 13 21:30:00 2020.
 Gaussian 16:  ES64L-G16RevA.03 25-Dec-2016

 ----------------------------------------------------------------------
 # B3LYP/6-311++G(d,p) empiricaldispersion=gd3bj scf=xqc pop=npa geom=c
 heck
 ----------------------------------------------------------------------

 ------------------------------------
 CID_122240193_JID_3768_Energie_anion
 ------------------------------------
 Structure from the checkpoint file:  "JID_3768.chk"
 Charge = -1 Multiplicity = 2

                         Standard orientation:
 ---------------------------------------------------------------------
 Center     Atomic      Atomic             Coordinates (Angstroms)
 Number     Number       Type             X           Y           Z
 ---------------------------------------------------------------------
      1          6           0       -3.389815   -0.192198    1.274855
      2          6           0       -2.635841    0.051070   -0.034267
      3          6           0       -1.953870   -1.248232   -0.564005
      4          6           0       -0.625614   -0.805329    0.105209
      5          6           0       -1.210295    0.631901    0.212417
      6          6           0        0.658238   -1.040705   -0.680855
      7          6           0        1.968420   -0.500812   -0.043812
      8          6           0        2.205267   -1.100390    1.349384
      9          6           0        3.145791   -0.859561   -0.973660
     10          6           0        1.871548    1.023693   -0.021979
     11          8           0        1.811646    1.720093   -1.013905
     12          8           0        1.847800    1.559647    1.223861
     13          6           0       -3.506676    0.808096   -1.030843
     14          1           0       -4.298644   -0.781190    1.099226
     15          1           0       -2.774292   -0.736517    2.000648
     16          1           0       -3.687292    0.757811    1.735986
     17          1           0       -2.385537   -2.205478   -0.250846
     18          1           0       -1.871803   -1.243215   -1.657475
     19          1           0       -0.543828   -1.254699    1.100453
     20          1           0       -0.880146    1.262360   -0.619825
     21          1           0       -1.045304    1.173759    1.149337
     22          1           0        0.790500   -2.121494   -0.831310
     23          1           0        0.556370   -0.591748   -1.676583
     24          1           0        2.229854   -2.193675    1.276160
     25          1           0        3.161811   -0.765882    1.762807
     26          1           0        1.423565   -0.820217    2.058476
     27          1           0        3.003715   -0.419965   -1.964096
     28          1           0        4.095177   -0.492072   -0.567997
     29          1           0        3.219183   -1.947707   -1.075712
     30          1           0        1.767360    2.523269    1.089971
     31          1           0       -2.968985    0.986407   -1.969259
     32          1           0       -4.418742    0.244630   -1.266304
     33          1           0       -3.811448    1.782506   -0.627968
 ---------------------------------------------------------------------

 SCF Done:  E(UB3LYP) =  -581.882376597     A.U. after   33 cycles
 SCF Done:  E(UB3LYP) =  -581.882376597     a.u. after    1 cycles

 The electronic state is 2-A.
 Alpha  occ. eigenvalues --  -19.06968 -19.01385 -10.20428 -10.10205 -10.08029
 Alpha  occ. eigenvalues --  -10.07225 -10.07085 -10.06927 -10.06198 -10.06096
 Alpha  occ. eigenvalues --  -10.05978 -10.05689 -10.05615  -1.01043  -0.91955
 Alpha  occ. eigenvalues --   -0.76043  -0.72872  -0.65353  -0.59521  -0.59294
 Alpha  occ. eigenvalues --   -0.58625  -0.56205  -0.55539  -0.48854  -0.45415
 Alpha  occ. eigenvalues --   -0.42467  -0.39755  -0.38939  -0.37668  -0.36567
 Alpha  occ. eigenvalues --   -0.35924  -0.33710  -0.33165  -0.32331  -0.31982
 Alpha  occ. eigenvalues --   -0.30387  -0.30059  -0.29311  -0.29190  -0.27327
 Alpha  occ. eigenvalues --   -0.26992  -0.26759  -0.25885  -0.25271  -0.23591
 Alpha  occ. eigenvalues --   -0.22729  -0.21530  -0.20674  -0.19417  -0.18700
 Alpha  occ. eigenvalues --   -0.18009   0.04445
 Alpha virt. eigenvalues --    0.06581   0.06846   0.07792   0.08633   0.08967
 Alpha virt. eigenvalues --    0.09127   0.09427   0.09825   0.10721   0.10957
 Alpha virt. eigenvalues --    0.11449   0.12084   0.12306   0.12536   0.13557

  Beta  occ. eigenvalues --  -19.06924 -19.01368 -10.20424 -10.10198 -10.08029
  Beta  occ. eigenvalues --  -10.07215 -10.07075 -10.06906 -10.06183 -10.06065
  Beta  occ. eigenvalues --  -10.05958 -10.05660 -10.05597  -1.00988  -0.91905
  Beta  occ. eigenvalues --   -0.76026  -0.72849  -0.65325  -0.59470  -0.59260
  Beta  occ. eigenvalues --   -0.58574  -0.56151  -0.55477  -0.48802  -0.45350
  Beta  occ. eigenvalues --   -0.42417  -0.39714  -0.38901  -0.37625  -0.36526
  Beta  occ. eigenvalues --   -0.35896  -0.33685  -0.33136  -0.32298  -0.31947
  Beta  occ. eigenvalues --   -0.30355  -0.30031  -0.29282  -0.29157  -0.27299
  Beta  occ. eigenvalues --   -0.26958  -0.26726  -0.25856  -0.25242  -0.23565
  Beta  occ. eigenvalues --   -0.22687  -0.21504  -0.20645  -0.19392  -0.18677
  Beta  occ. eigenvalues --   -0.17958
  Beta virt. eigenvalues --    0.06556   0.07249   0.07993   0.08225   0.08998
  Beta virt. eigenvalues --    0.09387   0.09469   0.09724   0.10235   0.11103
  Beta virt. eigenvalues --    0.11211   0.11773   0.12257   0.12556   0.12872

 Mulliken charges and spin densities:
               1          2
     1  C    0.884933  -1.566048
     2  C   -1.821742   2.908818
     3  C    0.518375  -1.430827
     4  C   -0.933806   1.464945
     5  C    0.446899  -1.342356
     6  C    1.135930  -2.247103
     7  C   -0.874674   2.205474
     8  C    1.059097  -1.664588
     9  C    0.638349  -1.097357
    10  C    0.158686  -0.925016
    11  O   -0.252795   0.051416
    12  O   -0.147945   0.083653
    13  C   -0.476029  -0.109167
    14  H   -0.129119   0.272570
    15  H   -0.454053   0.606809
    16  H   -0.133920   0.267670
    17  H   -0.298604   0.455814
    18  H    0.092617   0.041974
    19  H    0.506003  -0.332786
    20  H    0.121805   0.070481
    21  H    0.043013   0.145283
    22  H   -0.086962   0.261372
    23  H    0.262298  -0.062236
    24  H   -0.336804   0.479216
    25  H   -0.109870   0.288449
    26  H   -0.158391   0.349771
    27  H    0.050321   0.109026
    28  H   -0.143796   0.301914
    29  H    0.033327   0.108799
    30  H   -0.393381   0.702528
    31  H    0.003273   0.128417
    32  H   -0.137629   0.274284
    33  H   -0.065404   0.198803
 Sum of Mulliken charges =  -1.00000   1.00000

 Dipole moment (field-independent basis, Debye):
    X=              0.5546    Y=             -0.9659    Z=             -3.0902  Tot=              3.2848
 Quadrupole moment (field-independent basis, Debye-Ang):
   XX=           -151.5103   YY=           -127.8322   ZZ=           -121.3167
   XY=             -3.7747   XZ=              0.3982   YZ=              0.4179

 Summary of Natural Population Analysis:

                                       Natural Population
                Natural  -----------------------------------------------
    Atom  No    Charge         Core      Valence    Rydberg      Total
 -----------------------------------------------------------------------
      C    1   -0.28200      0.99962     2.27574    0.00665     3.28200
      C    2   -0.04649      0.99959     2.03408    0.01282     3.04649
      C    3   -0.17827      0.99959     2.16980    0.00888     3.17827
      C    4   -0.11434      0.99959     2.10432    0.01042     3.11434
      C    5   -0.18806      0.99958     2.17908    0.00940     3.18806
      C    6   -0.18081      0.99958     2.17097    0.01026     3.18081
      C    7   -0.08327      0.99953     2.07036    0.01338     3.08327
      C    8   -0.28678      0.99963     2.27890    0.00824     3.28678
      C    9   -0.27741      0.99963     2.27182    0.00595     3.27741
      C   10    0.41728      0.99963     1.55571    0.02739     2.58272
      O   11   -0.31407      0.99987     3.30821    0.00599     4.31407
      O   12   -0.34104      0.99988     3.33367    0.00749     4.34104
      C   13   -0.28072      0.99962     2.27599    0.00512     3.28072
      H   14    0.09789      0.00000     0.40103    0.00108     0.40211
      H   15    0.10075      0.00000     0.39791    0.00134     0.39925
      H   16    0.09933      0.00000     0.39963    0.00104     0.40067
      H   17    0.09822      0.00000     0.40075    0.00104     0.40178
      H   18    0.09501      0.00000     0.40387    0.00112     0.40499
      H   19    0.09861      0.00000     0.39903    0.00236     0.40139
      H   20    0.10196      0.00000     0.39672    0.00132     0.39804
      H   21    0.10309      0.00000     0.39528    0.00163     0.39691
      H   22    0.10038      0.00000     0.39851    0.00110     0.39962
      H   23    0.10292      0.00000     0.39568    0.00140     0.39708
      H   24    0.09936      0.00000     0.39946    0.00118     0.40064
      H   25    0.10434      0.00000     0.39447    0.00119     0.39566
      H   26    0.10841      0.00000     0.39003    0.00156     0.39159
      H   27    0.10718      0.00000     0.39184    0.00098     0.39282
      H   28    0.10101      0.00000     0.39797    0.00102     0.39899
      H   29    0.09947      0.00000     0.39954    0.00098     0.40053
      H   30    0.24261      0.00000     0.24813    0.00926     0.25739
      H   31    0.09805      0.00000     0.40101    0.00094     0.40195
      H   32    0.09791      0.00000     0.40114    0.00095     0.40209
      H   33    0.09945      0.00000     0.39964    0.00092     0.40055
 =======================================================================
   * Total *   -0.00000     12.99533    37.84028    0.16439    51.00000

 Normal termination of Gaussian 16 at Sun Dec 13 21:45:52 2020.
