 Gaussian 16, Revision A.03,

 -----------------------------------------------------------
 # opt freq B3LYP/6-31G(d) empiricaldispersion=gd3bj scf=xqc
 -----------------------------------------------------------

 -------------------------------
 CID_123292660_JID_1958_neutraal
 -------------------------------
 Symbolic Z-matrix:
 Charge =  0 Multiplicity = 1

 SCF Done:  E(RB3LYP) =  -429.943806017     A.U. after   14 cycles
 SCF Done:  E(RB3LYP) =  -429.969049321     A.U. after   12 cycles
 SCF Done:  E(RB3LYP) =  -429.972643696     A.U. after   12 cycles
 SCF Done:  E(RB3LYP) =  -429.974047216     A.U. after   12 cycles
 SCF Done:  E(RB3LYP) =  -429.973477324     A.U. after   12 cycles
 SCF Done:  E(RB3LYP) =  -429.972388016     A.U. after   12 cycles
 SCF Done:  E(RB3LYP) =  -429.971137485     A.U. after   12 cycles
 SCF Done:  E(RB3LYP) =  -429.974112901     A.U. after    9 cycles
 SCF Done:  E(RB3LYP) =  -429.974640772     A.U. after   11 cycles
 SCF Done:  E(RB3LYP) =  -429.974647723     A.U. after   10 cycles
 SCF Done:  E(RB3LYP) =  -429.974655983     A.U. after    8 cycles
 SCF Done:  E(RB3LYP) =  -429.974656252     A.U. after    8 cycles
 SCF Done:  E(RB3LYP) =  -429.974656311     A.U. after    7 cycles
 SCF Done:  E(RB3LYP) =  -429.974656350     A.U. after    7 cycles
 SCF Done:  E(RB3LYP) =  -429.974656361     A.U. after    7 cycles
 Optimization completed.
    -- Stationary point found.
 Normal termination of Gaussian 16 at Tue Dec  8 21:44:23 2020.

 --------------------------------------------------------------------
 #N Geom=AllCheck Guess=TCheck SCRF=Check GenChk RB3LYP/6-31G(d) Freq
 --------------------------------------------------------------------

 Structure from the checkpoint file:  "JID_1958.chk"
 -------------------------------
 CID_123292660_JID_1958_neutraal
 -------------------------------
 Charge =  0 Multiplicity = 1

 SCF Done:  E(RB3LYP) =  -429.974656361     A.U. after    1 cycles

  Exact polarizability: 156.531  -0.723 109.735  -7.589   1.643  88.179
 Approx polarizability: 199.634  -2.859 155.066 -15.147   5.636 132.839

                      1                      2                      3
                      A                      A                      A
 Frequencies --     33.7603                43.4406                59.8650
 Red. masses --      3.4482                 3.0393                 3.2607
 Frc consts  --      0.0023                 0.0034                 0.0069
 IR Inten    --      0.0937                 0.0479                 0.0115

                      4                      5                      6
                      A                      A                      A
 Frequencies --     65.6933               108.8191               161.4661
 Red. masses --      3.2150                 2.9458                 2.9949
 Frc consts  --      0.0082                 0.0206                 0.0460
 IR Inten    --      0.2548                 0.0815                 0.0619

                      7                      8                      9
                      A                      A                      A
 Frequencies --    192.6150               247.8927               257.0295
 Red. masses --      2.8278                 1.2193                 2.2192
 Frc consts  --      0.0618                 0.0441                 0.0864
 IR Inten    --      0.1926                 0.2107                 0.5346

                     10                     11                     12
                      A                      A                      A
 Frequencies --    297.0494               300.6107               328.9813
 Red. masses --      1.8880                 1.7987                 2.0344
 Frc consts  --      0.0982                 0.0958                 0.1297
 IR Inten    --      0.0282                 0.8283                 1.2715

                     13                     14                     15
                      A                      A                      A
 Frequencies --    353.8522               361.7545               405.8996
 Red. masses --      2.0700                 2.0018                 1.8890
 Frc consts  --      0.1527                 0.1543                 0.1834
 IR Inten    --      3.4919                 0.3581                 1.4206

                     16                     17                     18
                      A                      A                      A
 Frequencies --    475.4137               563.8489               588.0421
 Red. masses --      2.0438                 3.4973                 2.0870
 Frc consts  --      0.2722                 0.6551                 0.4252
 IR Inten    --      0.4649                 3.9197                 5.7671

                     19                     20                     21
                      A                      A                      A
 Frequencies --    627.6597               682.1661               747.2943
 Red. masses --      2.0028                 1.6034                 1.6846
 Frc consts  --      0.4649                 0.4396                 0.5543
 IR Inten    --      1.4497                 1.4403                13.2947

                     22                     23                     24
                      A                      A                      A
 Frequencies --    760.2971               837.7743               863.9921
 Red. masses --      2.0549                 2.2519                 1.3694
 Frc consts  --      0.6998                 0.9312                 0.6023
 IR Inten    --      7.2845                 2.1270                46.6134

                     25                     26                     27
                      A                      A                      A
 Frequencies --    869.2049               909.6800               927.1541
 Red. masses --      1.8093                 1.2065                 1.8040
 Frc consts  --      0.8054                 0.5883                 0.9137
 IR Inten    --      6.7930                 8.5918                 2.3424

                     28                     29                     30
                      A                      A                      A
 Frequencies --    938.4005               953.4519               977.9154
 Red. masses --      1.3662                 2.1145                 1.5962
 Frc consts  --      0.7088                 1.1325                 0.8994
 IR Inten    --     40.0134                 5.9835                 0.4362

                     31                     32                     33
                      A                      A                      A
 Frequencies --   1000.2661              1034.2966              1039.1283
 Red. masses --      1.2952                 1.5292                 1.4295
 Frc consts  --      0.7635                 0.9638                 0.9094
 IR Inten    --      3.0756                 3.4481                 2.7070

                     34                     35                     36
                      A                      A                      A
 Frequencies --   1042.4331              1069.4268              1077.1640
 Red. masses --      1.4025                 1.5713                 2.0230
 Frc consts  --      0.8979                 1.0588                 1.3830
 IR Inten    --     10.0125                 4.2548                 2.8563

                     37                     38                     39
                      A                      A                      A
 Frequencies --   1122.2490              1147.9159              1164.4489
 Red. masses --      2.0779                 2.1090                 1.8156
 Frc consts  --      1.5419                 1.6374                 1.4504
 IR Inten    --      2.1959                 0.4009                 1.2884

                     40                     41                     42
                      A                      A                      A
 Frequencies --   1183.0571              1222.0967              1231.7267
 Red. masses --      1.3880                 1.3696                 1.6238
 Frc consts  --      1.1446                 1.2052                 1.4514
 IR Inten    --      0.7059                 1.7716                 1.0402

                     43                     44                     45
                      A                      A                      A
 Frequencies --   1288.0101              1321.7842              1336.2483
 Red. masses --      1.2204                 1.2913                 1.2559
 Frc consts  --      1.1928                 1.3293                 1.3212
 IR Inten    --      0.2941                 1.3537                 1.9580

                     46                     47                     48
                      A                      A                      A
 Frequencies --   1350.4090              1364.0446              1373.5114
 Red. masses --      1.2994                 1.2765                 1.2837
 Frc consts  --      1.3961                 1.3993                 1.4268
 IR Inten    --      1.6386                14.0112                 2.6325

                     49                     50                     51
                      A                      A                      A
 Frequencies --   1385.5931              1402.3024              1420.3922
 Red. masses --      1.4253                 1.3390                 1.3383
 Frc consts  --      1.6122                 1.5513                 1.5908
 IR Inten    --     11.3198                 4.0959                 4.7544

                     52                     53                     54
                      A                      A                      A
 Frequencies --   1424.6483              1439.0403              1480.7072
 Red. masses --      1.4297                 1.2661                 1.2132
 Frc consts  --      1.7096                 1.5448                 1.5672
 IR Inten    --      0.8083                 4.6542                 4.7870

                     55                     56                     57
                      A                      A                      A
 Frequencies --   1507.5554              1509.3884              1518.6765
 Red. masses --      1.0853                 1.5105                 1.0716
 Frc consts  --      1.4533                 2.0276                 1.4562
 IR Inten    --      2.5899                 0.5591                 3.9768

                     58                     59                     60
                      A                      A                      A
 Frequencies --   1522.9273              1527.5944              1531.1247
 Red. masses --      1.0742                 1.0619                 1.0898
 Frc consts  --      1.4679                 1.4601                 1.5053
 IR Inten    --      7.8962                10.6635                 1.5310

                     61                     62                     63
                      A                      A                      A
 Frequencies --   1541.6148              1727.5095              2077.5510
 Red. masses --      1.0642                 4.4851                10.1140
 Frc consts  --      1.4901                 7.8861                25.7202
 IR Inten    --      3.8723                 5.3468                48.6614

                     64                     65                     66
                      A                      A                      A
 Frequencies --   3018.7171              3032.7930              3039.7397
 Red. masses --      1.0766                 1.0705                 1.0613
 Frc consts  --      5.7805                 5.8013                 5.7777
 IR Inten    --      7.7570                29.2302                45.6425

                     67                     68                     69
                      A                      A                      A
 Frequencies --   3045.1650              3048.0034              3052.5417
 Red. masses --      1.0548                 1.0462                 1.0626
 Frc consts  --      5.7630                 5.7265                 5.8334
 IR Inten    --      3.4592                36.4660                 0.9902

                     70                     71                     72
                      A                      A                      A
 Frequencies --   3064.6584              3077.7126              3085.0370
 Red. masses --      1.0997                 1.0964                 1.1007
 Frc consts  --      6.0852                 6.1191                 6.1723
 IR Inten    --      7.1328                67.2303               106.1075

                     73                     74                     75
                      A                      A                      A
 Frequencies --   3098.9191              3112.0284              3120.1335
 Red. masses --      1.1023                 1.1018                 1.1024
 Frc consts  --      6.2367                 6.2869                 6.3229
 IR Inten    --     22.1148                32.5047                33.2516

                     76                     77                     78
                      A                      A                      A
 Frequencies --   3138.9667              3141.7930              3149.9759
 Red. masses --      1.0628                 1.0821                 1.0624
 Frc consts  --      6.1697                 6.2931                 6.2111
 IR Inten    --     14.0723                 9.2070                22.8598

                     79                     80                     81
                      A                      A                      A
 Frequencies --   3159.2210              3206.7310              3233.3907
 Red. masses --      1.0863                 1.1152                 1.1153
 Frc consts  --      6.3877                 6.7568                 6.8701
 IR Inten    --      7.6330                 6.6061                20.5062

 - Thermochemistry -
 -------------------
 Temperature   298.150 Kelvin.  Pressure   1.00000 Atm.
 Atom     1 has atomic number  6 and mass  12.00000

 Molecular mass:   150.14085 amu.
 Principal axes and moments of inertia in atomic units:
                           1         2         3
     Eigenvalues --   893.538873810.543424259.32678
           X            0.99999   0.00417  -0.00265
           Y           -0.00416   0.99999   0.00339
           Z            0.00267  -0.00338   0.99999
 This molecule is an asymmetric top.
 Rotational symmetry number  1.
 Warning -- assumption of classical behavior for rotation
           may cause significant error
 Rotational temperatures (Kelvin)      0.09693     0.02273     0.02034
 Rotational constants (GHZ):           2.01977     0.47362     0.42372
 Zero-point vibrational energy     688758.3 (Joules/Mol)
                                  164.61718 (Kcal/Mol)
 Warning -- explicit consideration of  18 degrees of freedom as
           vibrations may cause significant error
 Vibrational temperatures:     48.57    62.50    86.13    94.52   156.57
          (Kelvin)            232.31   277.13   356.66   369.81   427.39
                              432.51   473.33   509.11   520.48   584.00
                              684.01   811.25   846.06   903.06   981.48
                             1075.19  1093.90  1205.37  1243.09  1250.59
                             1308.83  1333.97  1350.15  1371.80  1407.00
                             1439.16  1488.12  1495.07  1499.83  1538.67
                             1549.80  1614.67  1651.59  1675.38  1702.16
                             1758.32  1772.18  1853.16  1901.75  1922.56
                             1942.94  1962.56  1976.18  1993.56  2017.60
                             2043.63  2049.75  2070.46  2130.41  2169.04
                             2171.67  2185.04  2191.15  2197.87  2202.95
                             2218.04  2485.50  2989.13  4343.26  4363.51
                             4373.51  4381.31  4385.40  4391.93  4409.36
                             4428.14  4438.68  4458.65  4477.51  4489.18
                             4516.27  4520.34  4532.11  4545.41  4613.77
                             4652.13

 Zero-point correction=                           0.262334 (Hartree/Particle)
 Thermal correction to Energy=                    0.275513
 Thermal correction to Enthalpy=                  0.276457
 Thermal correction to Gibbs Free Energy=         0.221686
 Sum of electronic and zero-point Energies=           -429.712322
 Sum of electronic and thermal Energies=              -429.699143
 Sum of electronic and thermal Enthalpies=            -429.698199
 Sum of electronic and thermal Free Energies=         -429.752971

                     E (Thermal)             CV                S
                      KCal/Mol        Cal/Mol-Kelvin    Cal/Mol-Kelvin
 Total                  172.887             48.516            115.276
 Electronic               0.000              0.000              0.000
 Translational            0.889              2.981             40.929
 Rotational               0.889              2.981             31.051
 Vibrational            171.110             42.555             43.296
 Vibration     1          0.594              1.983              5.595
 Vibration     2          0.595              1.980              5.096
 Vibration     3          0.597              1.973              4.462
 Vibration     4          0.597              1.971              4.278
 Vibration     5          0.606              1.942              3.290
 Vibration     6          0.622              1.890              2.533
 Vibration     7          0.635              1.850              2.203
 Vibration     8          0.662              1.766              1.746
 Vibration     9          0.667              1.751              1.682
 Vibration    10          0.691              1.679              1.433
 Vibration    11          0.693              1.673              1.413
 Vibration    12          0.712              1.618              1.265
 Vibration    13          0.730              1.567              1.149
 Vibration    14          0.736              1.551              1.115
 Vibration    15          0.771              1.457              0.941
 Vibration    16          0.832              1.305              0.723
 Vibration    17          0.920              1.109              0.516
 Vibration    18          0.945              1.057              0.471

 Optimization completed.
    -- Stationary point found.
 Normal termination of Gaussian 16 at Tue Dec  8 21:50:28 2020.

 ----------------------------------------------------------------------
 # B3LYP/6-311++G(d,p) empiricaldispersion=gd3bj scf=xqc pop=npa geom=c
 heck
 ----------------------------------------------------------------------

 ---------------------------------------
 CID_123292660_JID_1958_Energie_neutraal
 ---------------------------------------
 Structure from the checkpoint file:  "JID_1958.chk"
 Charge =  0 Multiplicity = 1

 SCF Done:  E(RB3LYP) =  -430.096850391     A.U. after   13 cycles
 Normal termination of Gaussian 16 at Tue Dec  8 21:53:14 2020.

 ----------------------------------------------------------------------
 # B3LYP/6-311++G(d,p) empiricaldispersion=gd3bj scf=xqc pop=npa geom=c
 heck
 ----------------------------------------------------------------------

 -------------------------------------
 CID_123292660_JID_1958_Energie_kation
 -------------------------------------
 Structure from the checkpoint file:  "JID_1958.chk"
 Charge =  1 Multiplicity = 2

 SCF Done:  E(UB3LYP) =  -429.779906506     A.U. after   29 cycles
 Normal termination of Gaussian 16 at Tue Dec  8 22:00:32 2020.
 Gaussian 16:  ES64L-G16RevA.03 25-Dec-2016

 ----------------------------------------------------------------------
 # B3LYP/6-311++G(d,p) empiricaldispersion=gd3bj scf=xqc pop=npa geom=c
 heck
 ----------------------------------------------------------------------

 ------------------------------------
 CID_123292660_JID_1958_Energie_anion
 ------------------------------------
 Structure from the checkpoint file:  "JID_1958.chk"
 Charge = -1 Multiplicity = 2

                         Standard orientation:
 ---------------------------------------------------------------------
 Center     Atomic      Atomic             Coordinates (Angstroms)
 Number     Number       Type             X           Y           Z
 ---------------------------------------------------------------------
      1          6           0       -3.249469   -1.117240   -0.371670
      2          6           0       -2.425316   -0.114200    0.450929
      3          6           0       -1.139369   -0.756595    1.037940
      4          6           0       -0.212774   -1.531800    0.086815
      5          6           0        0.482820   -0.734072   -1.027182
      6          6           0        1.276039    0.499076   -0.553423
      7          6           0        2.327405    0.167499    0.483150
      8          6           0        3.616703    0.191638    0.263293
      9          6           0        4.903065    0.228998    0.032498
     10          6           0       -2.165522    1.144015   -0.341347
     11          6           0       -2.377509    2.381419    0.108183
     12          1           0       -2.732690   -1.395645   -1.297337
     13          1           0       -4.217856   -0.688263   -0.649891
     14          1           0       -3.433035   -2.036180    0.197392
     15          1           0       -3.028231    0.181700    1.320886
     16          1           0       -0.573030    0.027438    1.555956
     17          1           0       -1.462724   -1.460883    1.816941
     18          1           0        0.560315   -2.009633    0.702773
     19          1           0       -0.771681   -2.356585   -0.372741
     20          1           0        1.172143   -1.408988   -1.550753
     21          1           0       -0.252195   -0.409181   -1.773665
     22          1           0        1.758716    0.965997   -1.418603
     23          1           0        0.582664    1.240356   -0.136708
     24          1           0        1.974501   -0.126506    1.472573
     25          1           0        5.489011    1.130164    0.205324
     26          1           0        5.442412   -0.640409   -0.339612
     27          1           0       -1.786889    1.011517   -1.354559
     28          1           0       -2.171982    3.257192   -0.501333
     29          1           0       -2.765896    2.565481    1.108242
 ---------------------------------------------------------------------

 SCF Done:  E(UB3LYP) =  -430.079144701     A.U. after   33 cycles
 SCF Done:  E(UB3LYP) =  -430.079144701     a.u. after    1 cycles

 The electronic state is 2-A.
 Alpha  occ. eigenvalues --  -10.08781 -10.08087 -10.07788 -10.07551 -10.07526
 Alpha  occ. eigenvalues --  -10.07323 -10.06552 -10.06471 -10.06133 -10.05944
 Alpha  occ. eigenvalues --  -10.05561  -0.72634  -0.71070  -0.67706  -0.64647
 Alpha  occ. eigenvalues --   -0.62141  -0.58808  -0.54718  -0.50922  -0.46926
 Alpha  occ. eigenvalues --   -0.43987  -0.41824  -0.38086  -0.37584  -0.35835
 Alpha  occ. eigenvalues --   -0.34962  -0.34364  -0.33345  -0.32384  -0.30624
 Alpha  occ. eigenvalues --   -0.29597  -0.28347  -0.27550  -0.25899  -0.25274
 Alpha  occ. eigenvalues --   -0.23899  -0.22341  -0.21703  -0.20966  -0.17060
 Alpha  occ. eigenvalues --   -0.16286  -0.15631   0.04748
 Alpha virt. eigenvalues --    0.06732   0.07300   0.07398   0.08364   0.08580
 Alpha virt. eigenvalues --    0.09308   0.09398   0.09880   0.10053   0.10478
 Alpha virt. eigenvalues --    0.11101   0.11307   0.11998   0.12510   0.13021

  Beta  occ. eigenvalues --  -10.08771 -10.08073 -10.07752 -10.07542 -10.07516
  Beta  occ. eigenvalues --  -10.07311 -10.06536 -10.06456 -10.06111 -10.05923
  Beta  occ. eigenvalues --  -10.05524  -0.72602  -0.71036  -0.67667  -0.64612
  Beta  occ. eigenvalues --   -0.62095  -0.58752  -0.54658  -0.50865  -0.46872
  Beta  occ. eigenvalues --   -0.43934  -0.41769  -0.38045  -0.37533  -0.35806
  Beta  occ. eigenvalues --   -0.34920  -0.34323  -0.33315  -0.32339  -0.30581
  Beta  occ. eigenvalues --   -0.29561  -0.28305  -0.27518  -0.25856  -0.25243
  Beta  occ. eigenvalues --   -0.23867  -0.22309  -0.21663  -0.20923  -0.16991
  Beta  occ. eigenvalues --   -0.16265  -0.15597
  Beta virt. eigenvalues --    0.06779   0.07448   0.07906   0.07917   0.08667
  Beta virt. eigenvalues --    0.08967   0.09477   0.09686   0.10371   0.10505
  Beta virt. eigenvalues --    0.10938   0.11446   0.11498   0.12359   0.12858

 Mulliken charges and spin densities:
               1          2
     1  C    1.217171  -1.954844
     2  C   -1.304211   1.553610
     3  C    1.170106  -1.452254
     4  C   -0.156516  -0.238431
     5  C    0.501259  -0.819539
     6  C   -0.435426   0.189659
     7  C   -0.171062  -0.087690
     8  C    1.497024  -1.286369
     9  C   -0.955745   0.512261
    10  C   -0.214694   0.333900
    11  C    0.630914  -1.254143
    12  H   -0.077464   0.226401
    13  H   -0.178717   0.316208
    14  H   -0.392230   0.543402
    15  H   -0.511014   0.718880
    16  H   -0.028185   0.164537
    17  H   -0.350178   0.537043
    18  H    0.100743   0.057119
    19  H   -0.294931   0.464962
    20  H   -0.123831   0.278396
    21  H   -0.043414   0.174522
    22  H   -0.206846   0.391856
    23  H    0.135247   0.013878
    24  H   -0.360054   0.549592
    25  H   -0.002997   0.119509
    26  H   -0.191947   0.320890
    27  H   -0.104628   0.245235
    28  H   -0.095047   0.211020
    29  H   -0.053328   0.170391
 Sum of Mulliken charges =  -1.00000   1.00000

 Dipole moment (field-independent basis, Debye):
    X=              1.6953    Y=              2.7427    Z=             -1.3903  Tot=              3.5114
 Quadrupole moment (field-independent basis, Debye-Ang):
   XX=           -150.0324   YY=           -110.7411   ZZ=           -106.3199
   XY=             -2.9107   XZ=              2.9466   YZ=              2.2691

 Summary of Natural Population Analysis:

                                       Natural Population
                Natural  -----------------------------------------------
    Atom  No    Charge         Core      Valence    Rydberg      Total
 -----------------------------------------------------------------------
      C    1   -0.28330      0.99965     2.27710    0.00655     3.28330
      C    2   -0.13173      0.99958     2.11886    0.01330     3.13173
      C    3   -0.18507      0.99960     2.17516    0.01031     3.18507
      C    4   -0.19492      0.99962     2.18627    0.00903     3.19492
      C    5   -0.18543      0.99962     2.17770    0.00811     3.18543
      C    6   -0.20146      0.99960     2.19277    0.00908     3.20146
      C    7   -0.13280      0.99946     2.12464    0.00870     3.13280
      C    8    0.04186      0.99951     1.95018    0.00846     2.95814
      C    9   -0.23760      0.99952     2.23237    0.00572     3.23760
      C   10   -0.07604      0.99954     2.06597    0.01054     3.07604
      C   11   -0.19443      0.99955     2.18840    0.00648     3.19443
      H   12    0.09634      0.00000     0.40242    0.00124     0.40366
      H   13    0.10090      0.00000     0.39797    0.00113     0.39910
      H   14    0.10269      0.00000     0.39590    0.00141     0.39731
      H   15    0.09816      0.00000     0.39953    0.00231     0.40184
      H   16    0.09580      0.00000     0.40232    0.00188     0.40420
      H   17    0.10259      0.00000     0.39557    0.00185     0.39741
      H   18    0.09954      0.00000     0.39897    0.00149     0.40046
      H   19    0.09988      0.00000     0.39868    0.00144     0.40012
      H   20    0.09839      0.00000     0.40024    0.00137     0.40161
      H   21    0.09377      0.00000     0.40448    0.00175     0.40623
      H   22    0.10160      0.00000     0.39715    0.00125     0.39840
      H   23    0.10599      0.00000     0.39243    0.00158     0.39401
      H   24    0.10954      0.00000     0.38878    0.00167     0.39046
      H   25    0.10013      0.00000     0.39814    0.00173     0.39987
      H   26    0.10289      0.00000     0.39489    0.00222     0.39711
      H   27    0.09068      0.00000     0.40736    0.00195     0.40932
      H   28    0.09166      0.00000     0.40719    0.00115     0.40834
      H   29    0.09037      0.00000     0.40817    0.00146     0.40963
 =======================================================================
   * Total *    0.00000     10.99523    30.87960    0.12516    42.00000

 Normal termination of Gaussian 16 at Tue Dec  8 22:08:48 2020.
