 Gaussian 16, Revision A.03,

 -----------------------------------------------------------
 # opt freq B3LYP/6-31G(d) empiricaldispersion=gd3bj scf=xqc
 -----------------------------------------------------------

 -------------------------------
 CID_153385290_JID_2930_neutraal
 -------------------------------
 Symbolic Z-matrix:
 Charge =  0 Multiplicity = 1

 SCF Done:  E(RB3LYP) =  -558.346632471     A.U. after   14 cycles
 SCF Done:  E(RB3LYP) =  -558.354345643     A.U. after   13 cycles
 SCF Done:  E(RB3LYP) =  -558.355138929     A.U. after   11 cycles
 SCF Done:  E(RB3LYP) =  -558.355499759     A.U. after   11 cycles
 SCF Done:  E(RB3LYP) =  -558.354825896     A.U. after   13 cycles
 SCF Done:  E(RB3LYP) =  -558.355731694     A.U. after   12 cycles
 SCF Done:  E(RB3LYP) =  -558.355941066     A.U. after   10 cycles
 SCF Done:  E(RB3LYP) =  -558.356008565     A.U. after   10 cycles
 SCF Done:  E(RB3LYP) =  -558.356031136     A.U. after    9 cycles
 SCF Done:  E(RB3LYP) =  -558.356089481     A.U. after   10 cycles
 SCF Done:  E(RB3LYP) =  -558.356365603     A.U. after    8 cycles
 SCF Done:  E(RB3LYP) =  -558.356365906     A.U. after    8 cycles
 SCF Done:  E(RB3LYP) =  -558.356366099     A.U. after    8 cycles
 SCF Done:  E(RB3LYP) =  -558.356366172     A.U. after    7 cycles
 SCF Done:  E(RB3LYP) =  -558.356366172     A.U. after    6 cycles
 Optimization completed.
    -- Stationary point found.
 Normal termination of Gaussian 16 at Wed Dec  9 18:34:31 2020.

 --------------------------------------------------------------------
 #N Geom=AllCheck Guess=TCheck SCRF=Check GenChk RB3LYP/6-31G(d) Freq
 --------------------------------------------------------------------

 Structure from the checkpoint file:  "JID_2930.chk"
 -------------------------------
 CID_153385290_JID_2930_neutraal
 -------------------------------
 Charge =  0 Multiplicity = 1

 SCF Done:  E(RB3LYP) =  -558.356366172     A.U. after    1 cycles

  Exact polarizability: 115.405  -6.852 119.908  -1.825   6.456  84.799
 Approx polarizability: 167.106 -19.148 170.379  -7.139  19.183 122.624

                      1                      2                      3
                      A                      A                      A
 Frequencies --     23.1750                30.0297                44.2318
 Red. masses --      3.0243                 2.8026                 2.8417
 Frc consts  --      0.0010                 0.0015                 0.0033
 IR Inten    --      0.2011                 0.1637                 0.0412

                      4                      5                      6
                      A                      A                      A
 Frequencies --     55.5809                61.5755                66.6893
 Red. masses --      3.4655                 1.4901                 3.2790
 Frc consts  --      0.0063                 0.0033                 0.0086
 IR Inten    --      0.3621                 0.0045                 0.0807

                      7                      8                      9
                      A                      A                      A
 Frequencies --     94.2641               103.8497               127.2063
 Red. masses --      1.8319                 1.7884                 4.4229
 Frc consts  --      0.0096                 0.0114                 0.0422
 IR Inten    --      0.0833                 0.0200                 0.7437

                     10                     11                     12
                      A                      A                      A
 Frequencies --    223.3281               237.3937               270.4414
 Red. masses --      1.0991                 2.1266                 1.8688
 Frc consts  --      0.0323                 0.0706                 0.0805
 IR Inten    --      0.1713                 0.3518                 1.1225

                     13                     14                     15
                      A                      A                      A
 Frequencies --    289.5235               319.0645               321.8039
 Red. masses --      2.1786                 1.2274                 1.1262
 Frc consts  --      0.1076                 0.0736                 0.0687
 IR Inten    --      0.4258                33.8383                36.4886

                     16                     17                     18
                      A                      A                      A
 Frequencies --    335.8036               365.0818               412.8871
 Red. masses --      1.8170                 2.9741                 3.5601
 Frc consts  --      0.1207                 0.2335                 0.3576
 IR Inten    --     31.4382                20.3965                 4.7718

                     19                     20                     21
                      A                      A                      A
 Frequencies --    448.8720               518.0141               546.3634
 Red. masses --      3.4118                 4.7171                 5.1576
 Frc consts  --      0.4050                 0.7458                 0.9071
 IR Inten    --      8.2265                 1.7944                 8.6556

                     22                     23                     24
                      A                      A                      A
 Frequencies --    613.3885               641.2992               693.6504
 Red. masses --      3.5079                 4.9614                 5.3781
 Frc consts  --      0.7776                 1.2022                 1.5246
 IR Inten    --      1.3416                 1.5051                10.2919

                     25                     26                     27
                      A                      A                      A
 Frequencies --    757.8428               792.1559               833.4322
 Red. masses --      1.4558                 1.1888                 1.0680
 Frc consts  --      0.4926                 0.4395                 0.4371
 IR Inten    --     27.7364                 3.3136                 6.3307

                     28                     29                     30
                      A                      A                      A
 Frequencies --    835.9688               843.7448               885.4954
 Red. masses --      1.0790                 3.4837                 2.7281
 Frc consts  --      0.4443                 1.4612                 1.2603
 IR Inten    --     13.3229                62.9589                23.6211

                     31                     32                     33
                      A                      A                      A
 Frequencies --    931.8709               932.6931               966.4630
 Red. masses --      1.4226                 2.5365                 3.1469
 Frc consts  --      0.7278                 1.3001                 1.7318
 IR Inten    --      8.7597                18.0830                 9.8973

                     34                     35                     36
                      A                      A                      A
 Frequencies --    989.7383              1011.2753              1021.3240
 Red. masses --      2.2424                 3.2678                 2.0556
 Frc consts  --      1.2942                 1.9690                 1.2633
 IR Inten    --     11.7314                 0.2253                 4.8785

                     37                     38                     39
                      A                      A                      A
 Frequencies --   1035.3196              1085.2367              1176.4001
 Red. masses --      1.8555                 1.8357                 2.4169
 Frc consts  --      1.1718                 1.2738                 1.9707
 IR Inten    --      8.0109                 2.6787                40.6491

                     40                     41                     42
                      A                      A                      A
 Frequencies --   1191.1086              1221.5162              1235.5116
 Red. masses --      2.0978                 1.3630                 1.4642
 Frc consts  --      1.7536                 1.1983                 1.3169
 IR Inten    --     19.1360                37.7296                 0.0911

                     43                     44                     45
                      A                      A                      A
 Frequencies --   1236.8420              1264.3324              1287.2446
 Red. masses --      1.4631                 2.2371                 3.2432
 Frc consts  --      1.3187                 2.1070                 3.1662
 IR Inten    --      0.0066                 2.3290                46.5862

                     46                     47                     48
                      A                      A                      A
 Frequencies --   1320.7749              1354.2089              1380.2708
 Red. masses --      1.2011                 1.7028                 1.4362
 Frc consts  --      1.2345                 1.8399                 1.6121
 IR Inten    --     49.2607                84.9382                15.6674

                     49                     50                     51
                      A                      A                      A
 Frequencies --   1407.0074              1433.3203              1435.3289
 Red. masses --      1.8829                 1.1975                 1.2504
 Frc consts  --      2.1962                 1.4494                 1.5178
 IR Inten    --    173.6151                 1.7229                 5.1963

                     52                     53                     54
                      A                      A                      A
 Frequencies --   1443.1536              1455.1878              1510.7413
 Red. masses --      1.2282                 1.2535                 1.0692
 Frc consts  --      1.5071                 1.5639                 1.4377
 IR Inten    --      0.6250                 2.3810                 1.1579

                     55                     56                     57
                      A                      A                      A
 Frequencies --   1522.7113              1528.1982              1532.0233
 Red. masses --      1.0444                 1.0551                 1.0253
 Frc consts  --      1.4267                 1.4518                 1.4179
 IR Inten    --      1.9524                 1.0066                 3.8079

                     58                     59                     60
                      A                      A                      A
 Frequencies --   1533.6093              1536.2411              1537.7533
 Red. masses --      1.0219                 1.0516                 1.0609
 Frc consts  --      1.4161                 1.4623                 1.4780
 IR Inten    --      2.6867                 3.2993                11.1141

                     61                     62                     63
                      A                      A                      A
 Frequencies --   1538.1469              1541.0356              1703.9635
 Red. masses --      1.0620                 1.0469                 8.9352
 Frc consts  --      1.4803                 1.4648                15.2853
 IR Inten    --     15.4007                 1.9032                15.9808

                     64                     65                     66
                      A                      A                      A
 Frequencies --   1792.6231              3047.5452              3049.6253
 Red. masses --      7.5454                 1.0376                 1.0359
 Frc consts  --     14.2859                 5.6780                 5.6760
 IR Inten    --    170.8610                16.4255                26.2408

                     67                     68                     69
                      A                      A                      A
 Frequencies --   3051.7726              3053.9377              3058.0074
 Red. masses --      1.0405                 1.0520                 1.0369
 Frc consts  --      5.7093                 5.7808                 5.7128
 IR Inten    --     21.1302                25.9008                18.2973

                     70                     71                     72
                      A                      A                      A
 Frequencies --   3090.7157              3098.6259              3103.0684
 Red. masses --      1.1033                 1.1011                 1.1015
 Frc consts  --      6.2093                 6.2290                 6.2493
 IR Inten    --      4.3543                 1.3961                 3.7404

                     73                     74                     75
                      A                      A                      A
 Frequencies --   3117.3457              3121.2541              3123.0330
 Red. masses --      1.1016                 1.1029                 1.1027
 Frc consts  --      6.3074                 6.3304                 6.3367
 IR Inten    --     31.0685                81.6594                63.5089

                     76                     77                     78
                      A                      A                      A
 Frequencies --   3126.7729              3129.7169              3130.7356
 Red. masses --      1.1028                 1.1021                 1.1025
 Frc consts  --      6.3526                 6.3604                 6.3668
 IR Inten    --     67.7185                10.4787                24.9982

                     79                     80                     81
                      A                      A                      A
 Frequencies --   3168.7403              3247.8195              3720.3085
 Red. masses --      1.0888                 1.0914                 1.0647
 Frc consts  --      6.4413                 6.7827                 8.6825
 IR Inten    --     10.6057                 3.2204                85.0311

 - Thermochemistry -
 -------------------
 Temperature   298.150 Kelvin.  Pressure   1.00000 Atm.
 Atom     1 has atomic number  6 and mass  12.00000

 Molecular mass:   171.12593 amu.
 Principal axes and moments of inertia in atomic units:
                           1         2         3
     Eigenvalues --  1907.131932924.999594089.43919
           X            0.99911   0.04196  -0.00318
           Y           -0.04200   0.99904  -0.01281
           Z            0.00264   0.01293   0.99991
 This molecule is an asymmetric top.
 Rotational symmetry number  1.
 Warning -- assumption of classical behavior for rotation
           may cause significant error
 Rotational temperatures (Kelvin)      0.04542     0.02961     0.02118
 Rotational constants (GHZ):           0.94631     0.61701     0.44132
 Zero-point vibrational energy     659886.2 (Joules/Mol)
                                  157.71659 (Kcal/Mol)
 Warning -- explicit consideration of  22 degrees of freedom as
           vibrations may cause significant error
 Vibrational temperatures:     33.34    43.21    63.64    79.97    88.59
          (Kelvin)             95.95   135.62   149.42   183.02   321.32
                              341.56   389.10   416.56   459.06   463.00
                              483.15   525.27   594.05   645.83   745.31
                              786.10   882.53   922.69   998.01  1090.37
                             1139.74  1199.12  1202.77  1213.96  1274.03
                             1340.75  1341.94  1390.52  1424.01  1455.00
                             1469.46  1489.59  1561.41  1692.58  1713.74
                             1757.49  1777.63  1779.54  1819.09  1852.06
                             1900.30  1948.40  1985.90  2024.37  2062.23
                             2065.12  2076.38  2093.69  2173.62  2190.84
                             2198.74  2204.24  2206.52  2210.31  2212.48
                             2213.05  2217.21  2451.62  2579.18  4384.74
                             4387.73  4390.82  4393.94  4399.79  4446.85
                             4458.23  4464.62  4485.17  4490.79  4493.35
                             4498.73  4502.96  4504.43  4559.11  4672.89
                             5352.69

 Zero-point correction=                           0.251337 (Hartree/Particle)
 Thermal correction to Energy=                    0.267128
 Thermal correction to Enthalpy=                  0.268072
 Thermal correction to Gibbs Free Energy=         0.205617
 Sum of electronic and zero-point Energies=           -558.105029
 Sum of electronic and thermal Energies=              -558.089238
 Sum of electronic and thermal Enthalpies=            -558.088294
 Sum of electronic and thermal Free Energies=         -558.150750

                     E (Thermal)             CV                S
                      KCal/Mol        Cal/Mol-Kelvin    Cal/Mol-Kelvin
 Total                  167.625             54.607            131.448
 Electronic               0.000              0.000              0.000
 Translational            0.889              2.981             41.319
 Rotational               0.889              2.981             31.501
 Vibrational            165.848             48.645             58.628
 Vibration     1          0.593              1.985              6.342
 Vibration     2          0.594              1.984              5.827
 Vibration     3          0.595              1.980              5.060
 Vibration     4          0.596              1.975              4.608
 Vibration     5          0.597              1.973              4.406
 Vibration     6          0.598              1.970              4.249
 Vibration     7          0.603              1.953              3.570
 Vibration     8          0.605              1.946              3.381
 Vibration     9          0.611              1.926              2.988
 Vibration    10          0.649              1.806              1.932
 Vibration    11          0.656              1.783              1.822
 Vibration    12          0.674              1.728              1.593
 Vibration    13          0.686              1.693              1.477
 Vibration    14          0.705              1.637              1.315
 Vibration    15          0.707              1.632              1.301
 Vibration    16          0.717              1.604              1.232
 Vibration    17          0.738              1.544              1.100
 Vibration    18          0.777              1.442              0.916
 Vibration    19          0.808              1.363              0.799
 Vibration    20          0.873              1.210              0.615
 Vibration    21          0.902              1.148              0.552
 Vibration    22          0.973              1.004              0.427

 Optimization completed on the basis of negligible forces.
    -- Stationary point found.
 Normal termination of Gaussian 16 at Wed Dec  9 18:41:12 2020.

 ----------------------------------------------------------------------
 # B3LYP/6-311++G(d,p) empiricaldispersion=gd3bj scf=xqc pop=npa geom=c
 heck
 ----------------------------------------------------------------------

 ---------------------------------------
 CID_153385290_JID_2930_Energie_neutraal
 ---------------------------------------
 Structure from the checkpoint file:  "JID_2930.chk"
 Charge =  0 Multiplicity = 1

 SCF Done:  E(RB3LYP) =  -558.525439695     A.U. after   15 cycles
 Normal termination of Gaussian 16 at Wed Dec  9 18:43:48 2020.

 ----------------------------------------------------------------------
 # B3LYP/6-311++G(d,p) empiricaldispersion=gd3bj scf=xqc pop=npa geom=c
 heck
 ----------------------------------------------------------------------

 -------------------------------------
 CID_153385290_JID_2930_Energie_kation
 -------------------------------------
 Structure from the checkpoint file:  "JID_2930.chk"
 Charge =  1 Multiplicity = 2

 SCF Done:  E(UB3LYP) =  -558.222447306     A.U. after   21 cycles
 Normal termination of Gaussian 16 at Wed Dec  9 18:48:32 2020.
 Gaussian 16:  ES64L-G16RevA.03 25-Dec-2016

 ----------------------------------------------------------------------
 # B3LYP/6-311++G(d,p) empiricaldispersion=gd3bj scf=xqc pop=npa geom=c
 heck
 ----------------------------------------------------------------------

 ------------------------------------
 CID_153385290_JID_2930_Energie_anion
 ------------------------------------
 Structure from the checkpoint file:  "JID_2930.chk"
 Charge = -1 Multiplicity = 2

                         Standard orientation:
 ---------------------------------------------------------------------
 Center     Atomic      Atomic             Coordinates (Angstroms)
 Number     Number       Type             X           Y           Z
 ---------------------------------------------------------------------
      1          6           0       -3.627710   -0.227228   -0.731827
      2          6           0       -3.873497   -1.020993    0.552822
      3          6           0        0.343863    2.967255   -0.931343
      4          6           0        0.063241    1.461665   -0.963744
      5          6           0        0.326224    0.688862    0.365134
      6          6           0        0.085475   -0.790319    0.178634
      7          6           0        1.109676   -1.560078   -0.192305
      8          8           0        2.399944   -1.110384   -0.308284
      9          7           0        2.758002    0.054819    0.441436
     10          6           0        1.787404    0.830175    0.737771
     11          8           0        1.032795   -2.874634   -0.495517
     12          6           0       -0.550936    1.238161    1.504821
     13          1           0       -4.433875   -0.384833   -1.457053
     14          1           0       -2.688405   -0.524936   -1.210523
     15          1           0       -3.571124    0.849387   -0.531333
     16          1           0       -4.818533   -0.731447    1.026097
     17          1           0       -3.918803   -2.097303    0.352323
     18          1           0       -3.075514   -0.855866    1.286034
     19          1           0       -0.295752    3.489995   -0.212356
     20          1           0        0.157006    3.408241   -1.916310
     21          1           0        1.387395    3.179610   -0.672080
     22          1           0       -0.984131    1.283565   -1.237813
     23          1           0        0.672879    0.991343   -1.743580
     24          1           0       -0.894377   -1.222598    0.333602
     25          1           0        2.108011    1.694691    1.318443
     26          1           0        1.940096   -3.225121   -0.487804
     27          1           0       -0.322806    2.285798    1.726347
     28          1           0       -1.608411    1.174997    1.226602
     29          1           0       -0.404027    0.655886    2.419986
 ---------------------------------------------------------------------

 SCF Done:  E(UB3LYP) =  -558.511483366     A.U. after   33 cycles
 SCF Done:  E(UB3LYP) =  -558.511483366     a.u. after    1 cycles

 The electronic state is 2-A.
 Alpha  occ. eigenvalues --  -19.09492 -19.06737 -14.28152 -10.18696 -10.12541
 Alpha  occ. eigenvalues --  -10.10944 -10.07476 -10.06730 -10.06678 -10.06506
 Alpha  occ. eigenvalues --  -10.06237 -10.06220  -1.03448  -0.96517  -0.79711
 Alpha  occ. eigenvalues --   -0.73809  -0.66195  -0.66144  -0.62763  -0.56387
 Alpha  occ. eigenvalues --   -0.55673  -0.52493  -0.50768  -0.47271  -0.42431
 Alpha  occ. eigenvalues --   -0.41495  -0.38090  -0.36846  -0.34780  -0.34613
 Alpha  occ. eigenvalues --   -0.34429  -0.32067  -0.31966  -0.30220  -0.29808
 Alpha  occ. eigenvalues --   -0.29185  -0.28634  -0.28041  -0.27842  -0.25770
 Alpha  occ. eigenvalues --   -0.25294  -0.25038  -0.24826  -0.23965  -0.20746
 Alpha  occ. eigenvalues --   -0.19018  -0.12565   0.04373
 Alpha virt. eigenvalues --    0.06143   0.06545   0.07158   0.07841   0.08785
 Alpha virt. eigenvalues --    0.09087   0.09585   0.10117   0.11149   0.11479
 Alpha virt. eigenvalues --    0.12100   0.12670   0.13266   0.13489   0.14133

  Beta  occ. eigenvalues --  -19.09481 -19.06695 -14.28136 -10.18687 -10.12522
  Beta  occ. eigenvalues --  -10.10942 -10.07465 -10.06695 -10.06653 -10.06481
  Beta  occ. eigenvalues --  -10.06229 -10.06178  -1.03410  -0.96445  -0.79674
  Beta  occ. eigenvalues --   -0.73785  -0.66158  -0.66107  -0.62711  -0.56351
  Beta  occ. eigenvalues --   -0.55598  -0.52412  -0.50690  -0.47214  -0.42394
  Beta  occ. eigenvalues --   -0.41442  -0.38054  -0.36818  -0.34746  -0.34587
  Beta  occ. eigenvalues --   -0.34400  -0.32030  -0.31930  -0.30171  -0.29764
  Beta  occ. eigenvalues --   -0.29146  -0.28597  -0.27998  -0.27780  -0.25738
  Beta  occ. eigenvalues --   -0.25263  -0.25008  -0.24791  -0.23929  -0.20704
  Beta  occ. eigenvalues --   -0.18986  -0.12537
  Beta virt. eigenvalues --    0.06574   0.06999   0.07389   0.07742   0.08236
  Beta virt. eigenvalues --    0.09468   0.09488   0.09966   0.10477   0.11407
  Beta virt. eigenvalues --    0.11933   0.12466   0.12981   0.13309   0.13776

 Mulliken charges and spin densities:
               1          2
     1  C   -0.011781  -0.371732
     2  C    0.294624  -0.725725
     3  C    0.974266  -1.646620
     4  C   -1.138506   0.919822
     5  C   -1.115408   1.609746
     6  C    2.235247  -1.791519
     7  C   -2.081317   1.438411
     8  O    0.068119  -0.009065
     9  N   -0.289466   0.046627
    10  C    0.691742  -1.033362
    11  O   -0.216325   0.022611
    12  C    1.350196  -2.054541
    13  H   -0.196908   0.334084
    14  H    0.011046   0.130907
    15  H   -0.135999   0.270783
    16  H   -0.158020   0.290267
    17  H   -0.072862   0.200306
    18  H   -0.109622   0.245156
    19  H   -0.442000   0.595371
    20  H   -0.215771   0.362668
    21  H   -0.195081   0.354007
    22  H    0.061777   0.079488
    23  H    0.111285   0.062044
    24  H    0.403431  -0.147223
    25  H   -0.226876   0.488746
    26  H   -0.378282   0.664867
    27  H   -0.266415   0.408132
    28  H    0.149516  -0.009356
    29  H   -0.100611   0.265100
 Sum of Mulliken charges =  -1.00000   1.00000

 Dipole moment (field-independent basis, Debye):
    X=              1.1963    Y=             -1.6880    Z=             -0.4822  Tot=              2.1243
 Quadrupole moment (field-independent basis, Debye-Ang):
   XX=           -139.1250   YY=           -138.4030   ZZ=           -106.7795
   XY=              4.2207   XZ=              0.4683   YZ=             -4.0064

 Summary of Natural Population Analysis:

                                       Natural Population
                Natural  -----------------------------------------------
    Atom  No    Charge         Core      Valence    Rydberg      Total
 -----------------------------------------------------------------------
      C    1   -0.28921      0.99968     2.28475    0.00478     3.28921
      C    2   -0.28650      0.99968     2.28277    0.00405     3.28650
      C    3   -0.28966      0.99966     2.28465    0.00535     3.28966
      C    4   -0.18375      0.99959     2.17463    0.00952     3.18375
      C    5   -0.07671      0.99955     2.06371    0.01345     3.07671
      C    6   -0.18330      0.99944     2.17275    0.01111     3.18330
      C    7    0.31355      0.99934     1.66953    0.01758     2.68645
      O    8   -0.21901      0.99985     3.20919    0.00997     4.21901
      N    9   -0.06425      0.99965     2.55082    0.01379     3.56425
      C   10    0.05326      0.99959     1.93008    0.01707     2.94674
      O   11   -0.33782      0.99987     3.33067    0.00728     4.33782
      C   12   -0.28316      0.99964     2.27512    0.00841     3.28316
      H   13    0.09511      0.00000     0.40388    0.00100     0.40489
      H   14    0.09767      0.00000     0.40100    0.00133     0.40233
      H   15    0.09724      0.00000     0.40139    0.00137     0.40276
      H   16    0.09561      0.00000     0.40307    0.00132     0.40439
      H   17    0.09470      0.00000     0.40406    0.00124     0.40530
      H   18    0.09638      0.00000     0.40241    0.00121     0.40362
      H   19    0.10056      0.00000     0.39792    0.00152     0.39944
      H   20    0.10168      0.00000     0.39741    0.00090     0.39832
      H   21    0.09718      0.00000     0.40144    0.00137     0.40282
      H   22    0.10098      0.00000     0.39743    0.00159     0.39902
      H   23    0.09850      0.00000     0.40015    0.00135     0.40150
      H   24    0.11231      0.00000     0.38579    0.00190     0.38769
      H   25    0.10464      0.00000     0.39349    0.00187     0.39536
      H   26    0.24263      0.00000     0.24819    0.00918     0.25737
      H   27    0.10437      0.00000     0.39390    0.00172     0.39563
      H   28    0.10418      0.00000     0.39426    0.00156     0.39582
      H   29    0.10279      0.00000     0.39584    0.00136     0.39721
 =======================================================================
   * Total *    0.00000     11.99554    34.85029    0.15416    47.00000

 Normal termination of Gaussian 16 at Wed Dec  9 18:55:57 2020.
