 Gaussian 16, Revision A.03,

 -----------------------------------------------------------
 # opt freq B3LYP/6-31G(d) empiricaldispersion=gd3bj scf=xqc
 -----------------------------------------------------------

 ------------------------------
 CID_87113358_JID_2065_neutraal
 ------------------------------
 Symbolic Z-matrix:
 Charge =  0 Multiplicity = 1

 SCF Done:  E(RB3LYP) =  -558.364737880     A.U. after   15 cycles
 SCF Done:  E(RB3LYP) =  -558.367767428     A.U. after   13 cycles
 SCF Done:  E(RB3LYP) =  -558.365585430     A.U. after   14 cycles
 SCF Done:  E(RB3LYP) =  -558.368764805     A.U. after   12 cycles
 SCF Done:  E(RB3LYP) =  -558.369733105     A.U. after   11 cycles
 SCF Done:  E(RB3LYP) =  -558.370353794     A.U. after   12 cycles
 SCF Done:  E(RB3LYP) =  -558.370532028     A.U. after   11 cycles
 SCF Done:  E(RB3LYP) =  -558.370607738     A.U. after   11 cycles
 SCF Done:  E(RB3LYP) =  -558.370644516     A.U. after   10 cycles
 SCF Done:  E(RB3LYP) =  -558.370660131     A.U. after   10 cycles
 SCF Done:  E(RB3LYP) =  -558.370669406     A.U. after    9 cycles
 SCF Done:  E(RB3LYP) =  -558.370670860     A.U. after    8 cycles
 SCF Done:  E(RB3LYP) =  -558.370671016     A.U. after    7 cycles
 SCF Done:  E(RB3LYP) =  -558.370671044     A.U. after    7 cycles
 SCF Done:  E(RB3LYP) =  -558.370671052     A.U. after    6 cycles
 Optimization completed.
    -- Stationary point found.
 Normal termination of Gaussian 16 at Wed Dec  9 16:50:07 2020.

 --------------------------------------------------------------------
 #N Geom=AllCheck Guess=TCheck SCRF=Check GenChk RB3LYP/6-31G(d) Freq
 --------------------------------------------------------------------

 Structure from the checkpoint file:  "JID_2065.chk"
 ------------------------------
 CID_87113358_JID_2065_neutraal
 ------------------------------
 Charge =  0 Multiplicity = 1

 SCF Done:  E(RB3LYP) =  -558.370671052     A.U. after    1 cycles

  Exact polarizability: 125.030  -6.355  96.112   3.648   1.756 103.499
 Approx polarizability: 148.468  -8.751 135.088   6.808   9.453 176.225

                      1                      2                      3
                      A                      A                      A
 Frequencies --     24.2906                51.7004                53.2265
 Red. masses --      2.7703                 3.8584                 2.9140
 Frc consts  --      0.0010                 0.0061                 0.0049
 IR Inten    --      0.9520                 1.7665                 0.9198

                      4                      5                      6
                      A                      A                      A
 Frequencies --     85.6945               109.0629               148.4737
 Red. masses --      2.9679                 4.1212                 2.1887
 Frc consts  --      0.0128                 0.0289                 0.0284
 IR Inten    --      1.9258                 1.1500                 4.3635

                      7                      8                      9
                      A                      A                      A
 Frequencies --    173.0484               204.4912               212.5704
 Red. masses --      1.0516                 1.2449                 1.2599
 Frc consts  --      0.0186                 0.0307                 0.0335
 IR Inten    --      0.5097                 0.2557                 1.0429

                     10                     11                     12
                      A                      A                      A
 Frequencies --    225.3663               231.9742               264.6521
 Red. masses --      1.4914                 2.5295                 1.7716
 Frc consts  --      0.0446                 0.0802                 0.0731
 IR Inten    --      0.2347                 2.0220                 0.7061

                     13                     14                     15
                      A                      A                      A
 Frequencies --    277.1482               320.2898               352.0787
 Red. masses --      3.1741                 3.3140                 3.0217
 Frc consts  --      0.1436                 0.2003                 0.2207
 IR Inten    --      2.2447                 8.5442                 2.1110

                     16                     17                     18
                      A                      A                      A
 Frequencies --    376.1938               396.5498               420.9164
 Red. masses --      3.8964                 2.1717                 2.4634
 Frc consts  --      0.3249                 0.2012                 0.2571
 IR Inten    --      6.0514                 0.5361                 0.4162

                     19                     20                     21
                      A                      A                      A
 Frequencies --    448.3884               540.2729               571.2943
 Red. masses --      2.7741                 3.1346                 3.6950
 Frc consts  --      0.3286                 0.5391                 0.7105
 IR Inten    --      2.0221                 9.6328                12.1224

                     22                     23                     24
                      A                      A                      A
 Frequencies --    587.4927               675.6774               759.7800
 Red. masses --      3.7514                 1.6400                 3.9760
 Frc consts  --      0.7629                 0.4411                 1.3523
 IR Inten    --      5.4204                 2.8510                12.1510

                     25                     26                     27
                      A                      A                      A
 Frequencies --    808.3463               830.7557               894.4268
 Red. masses --      2.4527                 2.5119                 3.3562
 Frc consts  --      0.9443                 1.0214                 1.5819
 IR Inten    --      9.0478                 4.8874                 7.9027

                     28                     29                     30
                      A                      A                      A
 Frequencies --    937.3667               939.3125               952.4272
 Red. masses --      1.4081                 1.5317                 1.3497
 Frc consts  --      0.7290                 0.7962                 0.7214
 IR Inten    --      1.2477                 0.4965                37.6820

                     31                     32                     33
                      A                      A                      A
 Frequencies --    958.9089               978.1306               982.1951
 Red. masses --      1.7242                 1.9139                 1.5416
 Frc consts  --      0.9341                 1.0788                 0.8762
 IR Inten    --      8.8418                 3.4565                 3.4300

                     34                     35                     36
                      A                      A                      A
 Frequencies --   1033.9087              1074.3875              1087.4349
 Red. masses --      1.4072                 5.1183                 1.4738
 Frc consts  --      0.8863                 3.4810                 1.0268
 IR Inten    --     12.1950               140.5838                 1.2064

                     37                     38                     39
                      A                      A                      A
 Frequencies --   1113.5342              1157.5591              1162.2081
 Red. masses --      1.8448                 2.1149                 1.6017
 Frc consts  --      1.3478                 1.6696                 1.2746
 IR Inten    --     99.0744                 1.0498                 7.4205

                     40                     41                     42
                      A                      A                      A
 Frequencies --   1179.6394              1193.9822              1206.4436
 Red. masses --      3.4557                 1.8759                 1.8130
 Frc consts  --      2.8332                 1.5757                 1.5548
 IR Inten    --      2.6643                 1.5278                 0.3985

                     43                     44                     45
                      A                      A                      A
 Frequencies --   1294.8630              1321.3111              1337.7147
 Red. masses --      2.8621                 1.2706                 1.2641
 Frc consts  --      2.8274                 1.3070                 1.3327
 IR Inten    --      7.5426                 3.1388                 1.0800

                     46                     47                     48
                      A                      A                      A
 Frequencies --   1374.5070              1393.8116              1426.8335
 Red. masses --      3.8614                 1.3243                 1.3216
 Frc consts  --      4.2982                 1.5159                 1.5853
 IR Inten    --     84.4104                 2.3957                16.1152

                     49                     50                     51
                      A                      A                      A
 Frequencies --   1430.8639              1432.1314              1453.4813
 Red. masses --      1.2614                 1.2585                 1.2254
 Frc consts  --      1.5216                 1.5208                 1.5253
 IR Inten    --      1.4770                 2.8469                12.7651

                     52                     53                     54
                      A                      A                      A
 Frequencies --   1464.2870              1470.8607              1500.5237
 Red. masses --      1.2175                 1.1935                 1.0886
 Frc consts  --      1.5381                 1.5213                 1.4441
 IR Inten    --      6.2471                 3.2308                 0.7144

                     55                     56                     57
                      A                      A                      A
 Frequencies --   1503.4804              1515.2196              1517.3387
 Red. masses --      1.0480                 1.0521                 1.0475
 Frc consts  --      1.3957                 1.4232                 1.4210
 IR Inten    --      8.7891                 2.4201                 6.2287

                     58                     59                     60
                      A                      A                      A
 Frequencies --   1524.5857              1526.6256              1535.6790
 Red. masses --      1.0547                 1.0487                 1.0592
 Frc consts  --      1.4444                 1.4400                 1.4718
 IR Inten    --     11.9201                 2.9079                 3.5839

                     61                     62                     63
                      A                      A                      A
 Frequencies --   1542.1520              1544.2594              1715.4395
 Red. masses --      1.0545                 1.0589                 5.0813
 Frc consts  --      1.4776                 1.4877                 8.8099
 IR Inten    --     11.1635                 7.6778                22.9109

                     64                     65                     66
                      A                      A                      A
 Frequencies --   1768.4404              3018.6245              3036.6852
 Red. masses --     11.7157                 1.0651                 1.0388
 Frc consts  --     21.5873                 5.7181                 5.6440
 IR Inten    --    191.1300                28.2420                27.2898

                     67                     68                     69
                      A                      A                      A
 Frequencies --   3043.2409              3049.7575              3053.6497
 Red. masses --      1.0467                 1.0404                 1.0408
 Frc consts  --      5.7114                 5.7012                 5.7179
 IR Inten    --     30.0540                19.2771                49.9632

                     70                     71                     72
                      A                      A                      A
 Frequencies --   3068.7798              3095.8675              3097.7176
 Red. masses --      1.0815                 1.0990                 1.0993
 Frc consts  --      6.0006                 6.2059                 6.2152
 IR Inten    --     10.2884                12.5271                15.2939

                     73                     74                     75
                      A                      A                      A
 Frequencies --   3106.9439              3112.4094              3118.5745
 Red. masses --      1.0993                 1.0942                 1.1017
 Frc consts  --      6.2521                 6.2451                 6.3131
 IR Inten    --     69.3270                12.2985                40.2529

                     76                     77                     78
                      A                      A                      A
 Frequencies --   3119.6822              3145.3652              3165.0751
 Red. masses --      1.1016                 1.1040                 1.0599
 Frc consts  --      6.3168                 6.4352                 6.2560
 IR Inten    --     22.9192                12.3111                 6.6331

                     79                     80                     81
                      A                      A                      A
 Frequencies --   3174.8703              3194.4927              3248.0808
 Red. masses --      1.0933                 1.0981                 1.1161
 Frc consts  --      6.4932                 6.6025                 6.9376
 IR Inten    --     19.2644                 7.7216                13.3803

 - Thermochemistry -
 -------------------
 Temperature   298.150 Kelvin.  Pressure   1.00000 Atm.
 Atom     1 has atomic number  6 and mass  12.00000

 Molecular mass:   171.12593 amu.
 Principal axes and moments of inertia in atomic units:
                           1         2         3
     Eigenvalues --  1166.097613285.475083598.75543
           X            0.99996   0.00842  -0.00204
           Y           -0.00840   0.99994   0.00743
           Z            0.00210  -0.00741   0.99997
 This molecule is an asymmetric top.
 Rotational symmetry number  1.
 Warning -- assumption of classical behavior for rotation
           may cause significant error
 Rotational temperatures (Kelvin)      0.07428     0.02636     0.02407
 Rotational constants (GHZ):           1.54768     0.54931     0.50149
 Zero-point vibrational energy     666594.1 (Joules/Mol)
                                  159.31981 (Kcal/Mol)
 Warning -- explicit consideration of  22 degrees of freedom as
           vibrations may cause significant error
 Vibrational temperatures:     34.95    74.39    76.58   123.30   156.92
          (Kelvin)            213.62   248.98   294.22   305.84   324.25
                              333.76   380.78   398.75   460.83   506.56
                              541.26   570.55   605.60   645.13   777.33
                              821.97   845.27   972.15  1093.15  1163.03
                             1195.27  1286.88  1348.66  1351.46  1370.33
                             1379.66  1407.31  1413.16  1487.56  1545.80
                             1564.58  1602.13  1665.47  1672.16  1697.24
                             1717.87  1735.80  1863.02  1901.07  1924.67
                             1977.61  2005.38  2052.90  2058.69  2060.52
                             2091.24  2106.78  2116.24  2158.92  2163.17
                             2180.06  2183.11  2193.54  2196.47  2209.50
                             2218.81  2221.84  2468.13  2544.39  4343.13
                             4369.11  4378.54  4387.92  4393.52  4415.29
                             4454.26  4456.92  4470.20  4478.06  4486.93
                             4488.53  4525.48  4553.84  4567.93  4596.16
                             4673.26

 Zero-point correction=                           0.253892 (Hartree/Particle)
 Thermal correction to Energy=                    0.268548
 Thermal correction to Enthalpy=                  0.269492
 Thermal correction to Gibbs Free Energy=         0.211750
 Sum of electronic and zero-point Energies=           -558.116779
 Sum of electronic and thermal Energies=              -558.102124
 Sum of electronic and thermal Enthalpies=            -558.101179
 Sum of electronic and thermal Free Energies=         -558.158921

                     E (Thermal)             CV                S
                      KCal/Mol        Cal/Mol-Kelvin    Cal/Mol-Kelvin
 Total                  168.516             52.656            121.527
 Electronic               0.000              0.000              0.000
 Translational            0.889              2.981             41.319
 Rotational               0.889              2.981             31.001
 Vibrational            166.739             46.695             49.207
 Vibration     1          0.593              1.985              6.248
 Vibration     2          0.596              1.977              4.751
 Vibration     3          0.596              1.976              4.694
 Vibration     4          0.601              1.959              3.756
 Vibration     5          0.606              1.942              3.286
 Vibration     6          0.618              1.904              2.692
 Vibration     7          0.627              1.876              2.402
 Vibration     8          0.640              1.834              2.092
 Vibration     9          0.644              1.822              2.021
 Vibration    10          0.650              1.802              1.916
 Vibration    11          0.653              1.792              1.864
 Vibration    12          0.671              1.738              1.631
 Vibration    13          0.678              1.716              1.551
 Vibration    14          0.706              1.635              1.309
 Vibration    15          0.729              1.571              1.157
 Vibration    16          0.747              1.521              1.054
 Vibration    17          0.763              1.478              0.975
 Vibration    18          0.783              1.425              0.889
 Vibration    19          0.807              1.364              0.801
 Vibration    20          0.895              1.161              0.565
 Vibration    21          0.927              1.093              0.502
 Vibration    22          0.945              1.058              0.472

                           ! Non-Optimized Parameters !
 Normal termination of Gaussian 16 at Wed Dec  9 16:56:52 2020.

 ----------------------------------------------------------------------
 # B3LYP/6-311++G(d,p) empiricaldispersion=gd3bj scf=xqc pop=npa geom=c
 heck
 ----------------------------------------------------------------------

 --------------------------------------
 CID_87113358_JID_2065_Energie_neutraal
 --------------------------------------
 Structure from the checkpoint file:  "JID_2065.chk"
 Charge =  0 Multiplicity = 1

 SCF Done:  E(RB3LYP) =  -558.532893477     A.U. after   16 cycles
 Normal termination of Gaussian 16 at Wed Dec  9 16:59:52 2020.

 ----------------------------------------------------------------------
 # B3LYP/6-311++G(d,p) empiricaldispersion=gd3bj scf=xqc pop=npa geom=c
 heck
 ----------------------------------------------------------------------

 ------------------------------------
 CID_87113358_JID_2065_Energie_kation
 ------------------------------------
 Structure from the checkpoint file:  "JID_2065.chk"
 Charge =  1 Multiplicity = 2

 SCF Done:  E(UB3LYP) =  -558.205727564     A.U. after   32 cycles
 Normal termination of Gaussian 16 at Wed Dec  9 17:07:59 2020.
 Gaussian 16:  ES64L-G16RevA.03 25-Dec-2016

 ----------------------------------------------------------------------
 # B3LYP/6-311++G(d,p) empiricaldispersion=gd3bj scf=xqc pop=npa geom=c
 heck
 ----------------------------------------------------------------------

 -----------------------------------
 CID_87113358_JID_2065_Energie_anion
 -----------------------------------
 Structure from the checkpoint file:  "JID_2065.chk"
 Charge = -1 Multiplicity = 2

                         Standard orientation:
 ---------------------------------------------------------------------
 Center     Atomic      Atomic             Coordinates (Angstroms)
 Number     Number       Type             X           Y           Z
 ---------------------------------------------------------------------
      1          6           0       -1.664273   -1.444511    0.848487
      2          6           0       -2.378919   -0.544829   -0.168742
      3          6           0       -3.901467   -0.659091    0.005511
      4          6           0       -1.984890    0.934860   -0.063270
      5          8           0       -0.760854    1.302830   -0.715401
      6          7           0        0.367276    0.955761    0.051576
      7          6           0        0.960966    2.172728    0.597601
      8          6           0        1.114970   -0.071363   -0.518590
      9          8           0        0.741352   -0.702154   -1.495027
     10          6           0        2.362933   -0.477445    0.219750
     11          6           0        2.358401   -0.613227    1.550740
     12          6           0        3.514881   -0.874443   -0.661819
     13          1           0       -1.827550   -1.080520    1.871650
     14          1           0       -0.589923   -1.500615    0.671361
     15          1           0       -2.058844   -2.465756    0.794126
     16          1           0       -2.108194   -0.870356   -1.180347
     17          1           0       -4.214981   -0.290191    0.991321
     18          1           0       -4.440431   -0.082295   -0.755105
     19          1           0       -4.223753   -1.702979   -0.071440
     20          1           0       -2.722155    1.551348   -0.588721
     21          1           0       -1.956459    1.258317    0.987919
     22          1           0        1.917413    1.936314    1.060551
     23          1           0        1.104934    2.912089   -0.199516
     24          1           0        0.291300    2.591989    1.354011
     25          1           0        3.221767   -1.007341    2.080722
     26          1           0        1.486444   -0.361218    2.146549
     27          1           0        3.180656   -1.617661   -1.392372
     28          1           0        3.890040   -0.014999   -1.232008
     29          1           0        4.339215   -1.287935   -0.074318
 ---------------------------------------------------------------------

 SCF Done:  E(UB3LYP) =  -558.521235543     A.U. after   33 cycles
 SCF Done:  E(UB3LYP) =  -558.521235543     a.u. after    1 cycles

 The electronic state is 2-A.
 Alpha  occ. eigenvalues --  -19.04402 -18.96276 -14.26094 -10.13881 -10.10495
 Alpha  occ. eigenvalues --  -10.08817 -10.06317 -10.06310 -10.05677 -10.05433
 Alpha  occ. eigenvalues --  -10.04237 -10.04168  -0.97927  -0.90198  -0.76487
 Alpha  occ. eigenvalues --   -0.69261  -0.67896  -0.59642  -0.57970  -0.57536
 Alpha  occ. eigenvalues --   -0.56155  -0.48961  -0.45615  -0.43179  -0.38718
 Alpha  occ. eigenvalues --   -0.37777  -0.36516  -0.34357  -0.33603  -0.32499
 Alpha  occ. eigenvalues --   -0.31715  -0.31009  -0.30064  -0.29421  -0.28181
 Alpha  occ. eigenvalues --   -0.27680  -0.27320  -0.26387  -0.26135  -0.24837
 Alpha  occ. eigenvalues --   -0.23085  -0.22501  -0.22005  -0.16542  -0.14936
 Alpha  occ. eigenvalues --   -0.13982  -0.12754   0.04917
 Alpha virt. eigenvalues --    0.07034   0.07541   0.08056   0.08805   0.09506
 Alpha virt. eigenvalues --    0.10052   0.10701   0.11039   0.11373   0.12529
 Alpha virt. eigenvalues --    0.12870   0.13078   0.13154   0.14094   0.14784

  Beta  occ. eigenvalues --  -19.04407 -18.96104 -14.26086 -10.13745 -10.10467
  Beta  occ. eigenvalues --  -10.08773 -10.06306 -10.06245 -10.05653 -10.05412
  Beta  occ. eigenvalues --  -10.04149 -10.04071  -0.97887  -0.89906  -0.76399
  Beta  occ. eigenvalues --   -0.69185  -0.67709  -0.59538  -0.57836  -0.57489
  Beta  occ. eigenvalues --   -0.55979  -0.48692  -0.45513  -0.43054  -0.38658
  Beta  occ. eigenvalues --   -0.37669  -0.36341  -0.34284  -0.33516  -0.32351
  Beta  occ. eigenvalues --   -0.31609  -0.30873  -0.29965  -0.29332  -0.28139
  Beta  occ. eigenvalues --   -0.27634  -0.27238  -0.26240  -0.25835  -0.24731
  Beta  occ. eigenvalues --   -0.22878  -0.22402  -0.21922  -0.16471  -0.14367
  Beta  occ. eigenvalues --   -0.13580  -0.12414
  Beta virt. eigenvalues --    0.07217   0.07661   0.08515   0.08974   0.09236
  Beta virt. eigenvalues --    0.09851   0.10309   0.10944   0.11491   0.11649
  Beta virt. eigenvalues --    0.12757   0.12925   0.13264   0.13316   0.14305

 Mulliken charges and spin densities:
               1          2
     1  C    0.417246  -0.976756
     2  C   -1.282586   1.674782
     3  C    0.337518  -0.997535
     4  C    0.730062  -1.150824
     5  O    0.130985   0.001807
     6  N   -0.381346   0.184489
     7  C    0.722779  -1.053211
     8  C   -0.461720   0.259464
     9  O   -0.268025   0.063762
    10  C    0.363466   0.350829
    11  C   -1.008122   0.258936
    12  C    0.371203  -0.818381
    13  H   -0.171572   0.314232
    14  H    0.104200   0.051846
    15  H   -0.005218   0.131500
    16  H    0.236192  -0.024534
    17  H   -0.161803   0.302351
    18  H   -0.093606   0.216900
    19  H   -0.110466   0.237437
    20  H   -0.136024   0.296301
    21  H    0.020716   0.137583
    22  H    0.126880   0.034409
    23  H   -0.222630   0.385545
    24  H   -0.317454   0.473764
    25  H   -0.093402   0.202781
    26  H    0.074843   0.063740
    27  H    0.085763   0.102498
    28  H    0.015355   0.127976
    29  H   -0.023233   0.148307
 Sum of Mulliken charges =  -1.00000   1.00000

 Dipole moment (field-independent basis, Debye):
    X=              1.1730    Y=             -0.0008    Z=             -0.1911  Tot=              1.1884
 Quadrupole moment (field-independent basis, Debye-Ang):
   XX=           -124.8076   YY=           -111.5785   ZZ=           -105.1172
   XY=              3.6591   XZ=              4.5368   YZ=              0.2410

 Summary of Natural Population Analysis:

                                       Natural Population
                Natural  -----------------------------------------------
    Atom  No    Charge         Core      Valence    Rydberg      Total
 -----------------------------------------------------------------------
      C    1   -0.28444      0.99964     2.27811    0.00669     3.28444
      C    2   -0.13388      0.99961     2.12509    0.00918     3.13388
      C    3   -0.28415      0.99965     2.27915    0.00535     3.28415
      C    4   -0.00150      0.99953     1.98814    0.01382     3.00150
      O    5   -0.21556      0.99989     3.20481    0.01086     4.21556
      N    6   -0.10956      0.99963     2.59616    0.01378     3.60956
      C    7   -0.17921      0.99962     2.17105    0.00854     3.17921
      C    8    0.34389      0.99957     1.63335    0.02319     2.65611
      O    9   -0.29298      0.99988     3.28763    0.00548     4.29298
      C   10   -0.03945      0.99949     2.02949    0.01047     3.03945
      C   11   -0.15761      0.99951     2.15126    0.00684     3.15761
      C   12   -0.29451      0.99963     2.28948    0.00541     3.29451
      H   13    0.09378      0.00000     0.40506    0.00117     0.40622
      H   14    0.10956      0.00000     0.38906    0.00138     0.39044
      H   15    0.09402      0.00000     0.40514    0.00084     0.40598
      H   16    0.10477      0.00000     0.39342    0.00181     0.39523
      H   17    0.09645      0.00000     0.40249    0.00106     0.40355
      H   18    0.09672      0.00000     0.40239    0.00089     0.40328
      H   19    0.09848      0.00000     0.40068    0.00084     0.40152
      H   20    0.08879      0.00000     0.40980    0.00140     0.41121
      H   21    0.08280      0.00000     0.41549    0.00170     0.41720
      H   22    0.10641      0.00000     0.39247    0.00112     0.39359
      H   23    0.09287      0.00000     0.40520    0.00193     0.40713
      H   24    0.09496      0.00000     0.40351    0.00153     0.40504
      H   25    0.08707      0.00000     0.41185    0.00108     0.41293
      H   26    0.09566      0.00000     0.40283    0.00151     0.40434
      H   27    0.11201      0.00000     0.38632    0.00167     0.38799
      H   28    0.09879      0.00000     0.39976    0.00145     0.40121
      H   29    0.09584      0.00000     0.40288    0.00128     0.40416
 =======================================================================
   * Total *   -0.00000     11.99565    34.86208    0.14228    47.00000

 Normal termination of Gaussian 16 at Wed Dec  9 17:17:00 2020.
