 Gaussian 16, Revision A.03,

 -----------------------------------------------------------
 # opt freq B3LYP/6-31G(d) empiricaldispersion=gd3bj scf=xqc
 -----------------------------------------------------------

 -------------------------------
 CID_134495227_JID_4444_neutraal
 -------------------------------
 Symbolic Z-matrix:
 Charge =  0 Multiplicity = 1

 SCF Done:  E(RB3LYP) =  -592.475124540     A.U. after   15 cycles
 SCF Done:  E(RB3LYP) =  -592.485175755     A.U. after   14 cycles
 SCF Done:  E(RB3LYP) =  -592.483850701     A.U. after   14 cycles
 SCF Done:  E(RB3LYP) =  -592.486455577     A.U. after   13 cycles
 SCF Done:  E(RB3LYP) =  -592.487797650     A.U. after   12 cycles
 SCF Done:  E(RB3LYP) =  -592.488138934     A.U. after   12 cycles
 SCF Done:  E(RB3LYP) =  -592.488182800     A.U. after   11 cycles
 SCF Done:  E(RB3LYP) =  -592.488213010     A.U. after   10 cycles
 SCF Done:  E(RB3LYP) =  -592.488218347     A.U. after   10 cycles
 SCF Done:  E(RB3LYP) =  -592.488219248     A.U. after    9 cycles
 SCF Done:  E(RB3LYP) =  -592.488219623     A.U. after    8 cycles
 SCF Done:  E(RB3LYP) =  -592.488219856     A.U. after    8 cycles
 SCF Done:  E(RB3LYP) =  -592.488219937     A.U. after    7 cycles
 SCF Done:  E(RB3LYP) =  -592.488219973     A.U. after    7 cycles
 SCF Done:  E(RB3LYP) =  -592.488219983     A.U. after    7 cycles
 Optimization completed.
    -- Stationary point found.
 Normal termination of Gaussian 16 at Thu Dec 10 09:48:21 2020.

 --------------------------------------------------------------------
 #N Geom=AllCheck Guess=TCheck SCRF=Check GenChk RB3LYP/6-31G(d) Freq
 --------------------------------------------------------------------

 Structure from the checkpoint file:  "JID_4444.chk"
 -------------------------------
 CID_134495227_JID_4444_neutraal
 -------------------------------
 Charge =  0 Multiplicity = 1

 SCF Done:  E(RB3LYP) =  -592.488219983     A.U. after    1 cycles

  Exact polarizability: 138.280  10.264 181.494 -16.018   0.943  82.826
 Approx polarizability: 191.812  19.782 323.631 -35.012   3.703 132.238

                      1                      2                      3
                      A                      A                      A
 Frequencies --     30.9345                49.4782                60.4028
 Red. masses --      4.3783                 2.5920                 3.7337
 Frc consts  --      0.0025                 0.0037                 0.0080
 IR Inten    --      0.3623                 0.1266                 1.3809

                      4                      5                      6
                      A                      A                      A
 Frequencies --     77.7329               106.4273               151.9180
 Red. masses --      4.0380                 4.3214                 2.6754
 Frc consts  --      0.0144                 0.0288                 0.0364
 IR Inten    --      4.0153                 0.1984                 2.8278

                      7                      8                      9
                      A                      A                      A
 Frequencies --    176.3267               183.9699               238.6944
 Red. masses --      3.4960                 3.5362                 3.0273
 Frc consts  --      0.0640                 0.0705                 0.1016
 IR Inten    --      0.0387                 3.5738                 0.1223

                     10                     11                     12
                      A                      A                      A
 Frequencies --    271.9624               332.0417               385.0266
 Red. masses --      1.5438                 2.6644                 3.0382
 Frc consts  --      0.0673                 0.1731                 0.2654
 IR Inten    --      0.2478                 0.9045                 4.0497

                     13                     14                     15
                      A                      A                      A
 Frequencies --    386.9216               438.9457               456.5541
 Red. masses --      2.5408                 3.0659                 2.3642
 Frc consts  --      0.2241                 0.3480                 0.2903
 IR Inten    --      2.1448                 1.9880                 1.7296

                     16                     17                     18
                      A                      A                      A
 Frequencies --    494.2179               513.0697               525.7071
 Red. masses --      3.5176                 3.5180                 5.1253
 Frc consts  --      0.5062                 0.5456                 0.8346
 IR Inten    --      2.8900                18.8370                 1.1202

                     19                     20                     21
                      A                      A                      A
 Frequencies --    551.6052               589.7475               660.7519
 Red. masses --      5.4625                 3.7529                 7.2293
 Frc consts  --      0.9793                 0.7690                 1.8596
 IR Inten    --      2.0126                 1.2442                 8.0779

                     22                     23                     24
                      A                      A                      A
 Frequencies --    710.5295               723.0270               754.6946
 Red. masses --      2.1104                 4.8572                 1.6675
 Frc consts  --      0.6277                 1.4960                 0.5596
 IR Inten    --      7.2188                 3.1076                 3.9504

                     25                     26                     27
                      A                      A                      A
 Frequencies --    759.0206               787.9015               839.2375
 Red. masses --      1.3073                 2.3380                 3.3631
 Frc consts  --      0.4437                 0.8551                 1.3956
 IR Inten    --     53.1678                 3.1834                 0.1902

                     28                     29                     30
                      A                      A                      A
 Frequencies --    859.4896               865.2521               903.3935
 Red. masses --      1.4375                 1.7605                 2.0898
 Frc consts  --      0.6257                 0.7765                 1.0048
 IR Inten    --      7.2309                 1.9469                 4.8703

                     31                     32                     33
                      A                      A                      A
 Frequencies --    933.6717               959.4269              1005.3466
 Red. masses --      1.2991                 1.7494                 1.4043
 Frc consts  --      0.6672                 0.9488                 0.8363
 IR Inten    --      2.3139                 1.0555                 1.1987

                     34                     35                     36
                      A                      A                      A
 Frequencies --   1006.2903              1030.6097              1056.6592
 Red. masses --      1.4849                 1.6632                 2.3233
 Frc consts  --      0.8859                 1.0408                 1.5284
 IR Inten    --      1.1275                 0.2637                 8.5175

                     37                     38                     39
                      A                      A                      A
 Frequencies --   1086.4517              1109.3703              1121.9399
 Red. masses --      2.2573                 3.9748                 2.1567
 Frc consts  --      1.5699                 2.8821                 1.5995
 IR Inten    --      2.2612                23.4799                12.3145

                     40                     41                     42
                      A                      A                      A
 Frequencies --   1142.6500              1157.8331              1182.0132
 Red. masses --      2.1277                 2.4315                 1.2085
 Frc consts  --      1.6367                 1.9205                 0.9948
 IR Inten    --      1.6341                 9.8171                15.6141

                     43                     44                     45
                      A                      A                      A
 Frequencies --   1198.4151              1235.5167              1255.6656
 Red. masses --      2.0166                 1.2591                 1.3121
 Frc consts  --      1.7064                 1.1324                 1.2189
 IR Inten    --     20.6834                 5.8864                 3.0883

                     46                     47                     48
                      A                      A                      A
 Frequencies --   1295.2933              1300.7906              1345.6312
 Red. masses --      2.1788                 1.2596                 1.1488
 Frc consts  --      2.1538                 1.2558                 1.2256
 IR Inten    --     11.0286                 1.6829                 0.5945

                     49                     50                     51
                      A                      A                      A
 Frequencies --   1377.9041              1386.5272              1400.6901
 Red. masses --      1.6001                 1.3365                 1.4643
 Frc consts  --      1.7899                 1.5139                 1.6926
 IR Inten    --     12.3547                12.5318                 2.9092

                     52                     53                     54
                      A                      A                      A
 Frequencies --   1418.6839              1425.6695              1445.6659
 Red. masses --      1.3956                 1.4002                 1.2945
 Frc consts  --      1.6549                 1.6768                 1.5940
 IR Inten    --      1.8485                 2.9246                 3.3403

                     55                     56                     57
                      A                      A                      A
 Frequencies --   1448.7843              1504.8168              1507.0118
 Red. masses --      1.9849                 1.3339                 1.3717
 Frc consts  --      2.4547                 1.7796                 1.8355
 IR Inten    --      3.6964                 4.2682                11.1304

                     58                     59                     60
                      A                      A                      A
 Frequencies --   1518.4264              1521.4734              1533.4693
 Red. masses --      1.0824                 1.0858                 1.0657
 Frc consts  --      1.4703                 1.4809                 1.4765
 IR Inten    --      4.8922                 2.0916                18.8324

                     61                     62                     63
                      A                      A                      A
 Frequencies --   1539.2330              1546.7157              1598.6918
 Red. masses --      1.0808                 1.1821                 5.7167
 Frc consts  --      1.5088                 1.6662                 8.6084
 IR Inten    --      3.5391                22.0594                74.1910

                     64                     65                     66
                      A                      A                      A
 Frequencies --   1647.1433              1712.5420              2288.1736
 Red. masses --      6.4822                 6.1097                12.5985
 Frc consts  --     10.3617                10.5573                38.8640
 IR Inten    --    450.2605               302.2935               301.3791

                     67                     68                     69
                      A                      A                      A
 Frequencies --   3029.0973              3037.4804              3048.9979
 Red. masses --      1.0655                 1.0629                 1.0367
 Frc consts  --      5.7601                 5.7780                 5.6781
 IR Inten    --     28.6593                21.4573                18.5473

                     70                     71                     72
                      A                      A                      A
 Frequencies --   3064.5483              3069.0430              3082.9185
 Red. masses --      1.0935                 1.0890                 1.0779
 Frc consts  --      6.0506                 6.0434                 6.0360
 IR Inten    --     20.6237                23.5413                45.0126

                     73                     74                     75
                      A                      A                      A
 Frequencies --   3105.3318              3114.4742              3118.4377
 Red. masses --      1.0752                 1.1017                 1.1002
 Frc consts  --      6.1089                 6.2962                 6.3034
 IR Inten    --      6.1122                40.6885                53.4379

                     76                     77                     78
                      A                      A                      A
 Frequencies --   3124.8770              3182.7724              3209.0208
 Red. masses --      1.0947                 1.0979                 1.0894
 Frc consts  --      6.2983                 6.5527                 6.6098
 IR Inten    --     24.5729                 0.3593                 9.8687

                     79                     80                     81
                      A                      A                      A
 Frequencies --   3235.5391              3246.4486              3251.8020
 Red. masses --      1.0885                 1.0940                 1.0983
 Frc consts  --      6.7140                 6.7933                 6.8429
 IR Inten    --      0.3469                 1.7751                 5.0164

 - Thermochemistry -
 -------------------
 Temperature   298.150 Kelvin.  Pressure   1.00000 Atm.
 Atom     1 has atomic number  6 and mass  12.00000

 Molecular mass:   189.12660 amu.
 Principal axes and moments of inertia in atomic units:
                           1         2         3
     Eigenvalues --  2102.825803303.863144972.00024
           X            0.99972   0.02329  -0.00339
           Y           -0.02329   0.99973   0.00041
           Z            0.00340  -0.00033   0.99999
 This molecule is an asymmetric top.
 Rotational symmetry number  1.
 Warning -- assumption of classical behavior for rotation
           may cause significant error
 Rotational temperatures (Kelvin)      0.04119     0.02622     0.01742
 Rotational constants (GHZ):           0.85825     0.54625     0.36298
 Zero-point vibrational energy     652269.6 (Joules/Mol)
                                  155.89619 (Kcal/Mol)
 Warning -- explicit consideration of  20 degrees of freedom as
           vibrations may cause significant error
 Vibrational temperatures:     44.51    71.19    86.91   111.84   153.13
          (Kelvin)            218.58   253.69   264.69   343.43   391.29
                              477.73   553.97   556.69   631.54   656.88
                              711.07   738.19   756.38   793.64   848.52
                              950.67  1022.29  1040.27  1085.84  1092.06
                             1133.61  1207.48  1236.61  1244.90  1299.78
                             1343.35  1380.40  1446.47  1447.83  1482.82
                             1520.30  1563.16  1596.14  1614.22  1644.02
                             1665.86  1700.65  1724.25  1777.63  1806.62
                             1863.64  1871.55  1936.06  1982.50  1994.90
                             2015.28  2041.17  2051.22  2079.99  2084.48
                             2165.10  2168.25  2184.68  2189.06  2206.32
                             2214.61  2225.38  2300.16  2369.87  2463.97
                             3292.17  4358.20  4370.26  4386.83  4409.20
                             4415.67  4435.63  4467.88  4481.03  4486.74
                             4496.00  4579.30  4617.07  4655.22  4670.92
                             4678.62

 Zero-point correction=                           0.248436 (Hartree/Particle)
 Thermal correction to Energy=                    0.262016
 Thermal correction to Enthalpy=                  0.262960
 Thermal correction to Gibbs Free Energy=         0.206927
 Sum of electronic and zero-point Energies=           -592.239784
 Sum of electronic and thermal Energies=              -592.226204
 Sum of electronic and thermal Enthalpies=            -592.225260
 Sum of electronic and thermal Free Energies=         -592.281293

                     E (Thermal)             CV                S
                      KCal/Mol        Cal/Mol-Kelvin    Cal/Mol-Kelvin
 Total                  164.418             51.085            117.932
 Electronic               0.000              0.000              0.000
 Translational            0.889              2.981             41.618
 Rotational               0.889              2.981             31.913
 Vibrational            162.640             45.123             44.401
 Vibration     1          0.594              1.984              5.769
 Vibration     2          0.595              1.978              4.838
 Vibration     3          0.597              1.973              4.444
 Vibration     4          0.599              1.964              3.947
 Vibration     5          0.605              1.944              3.333
 Vibration     6          0.619              1.901              2.648
 Vibration     7          0.628              1.872              2.367
 Vibration     8          0.631              1.862              2.288
 Vibration     9          0.657              1.781              1.813
 Vibration    10          0.675              1.725              1.584
 Vibration    11          0.714              1.612              1.250
 Vibration    12          0.754              1.502              1.019
 Vibration    13          0.755              1.498              1.012
 Vibration    14          0.799              1.385              0.830
 Vibration    15          0.815              1.346              0.776
 Vibration    16          0.850              1.263              0.673
 Vibration    17          0.868              1.221              0.626
 Vibration    18          0.881              1.193              0.597
 Vibration    19          0.907              1.136              0.541
 Vibration    20          0.947              1.054              0.468

 Optimization completed.
    -- Stationary point found.
 Normal termination of Gaussian 16 at Thu Dec 10 09:56:08 2020.

 ----------------------------------------------------------------------
 # B3LYP/6-311++G(d,p) empiricaldispersion=gd3bj scf=xqc pop=npa geom=c
 heck
 ----------------------------------------------------------------------

 ---------------------------------------
 CID_134495227_JID_4444_Energie_neutraal
 ---------------------------------------
 Structure from the checkpoint file:  "JID_4444.chk"
 Charge =  0 Multiplicity = 1

 SCF Done:  E(RB3LYP) =  -592.647840803     A.U. after   17 cycles
 Normal termination of Gaussian 16 at Thu Dec 10 09:59:39 2020.

 ----------------------------------------------------------------------
 # B3LYP/6-311++G(d,p) empiricaldispersion=gd3bj scf=xqc pop=npa geom=c
 heck
 ----------------------------------------------------------------------

 -------------------------------------
 CID_134495227_JID_4444_Energie_kation
 -------------------------------------
 Structure from the checkpoint file:  "JID_4444.chk"
 Charge =  1 Multiplicity = 2

 SCF Done:  E(UB3LYP) =  -592.357837841     A.U. after   23 cycles
 Normal termination of Gaussian 16 at Thu Dec 10 10:06:17 2020.
 Gaussian 16:  ES64L-G16RevA.03 25-Dec-2016

 ----------------------------------------------------------------------
 # B3LYP/6-311++G(d,p) empiricaldispersion=gd3bj scf=xqc pop=npa geom=c
 heck
 ----------------------------------------------------------------------

 ------------------------------------
 CID_134495227_JID_4444_Energie_anion
 ------------------------------------
 Structure from the checkpoint file:  "JID_4444.chk"
 Charge = -1 Multiplicity = 2

                         Standard orientation:
 ---------------------------------------------------------------------
 Center     Atomic      Atomic             Coordinates (Angstroms)
 Number     Number       Type             X           Y           Z
 ---------------------------------------------------------------------
      1          6           0        4.262506   -0.124854   -0.212500
      2          6           0        3.088135   -0.999270    0.236958
      3          6           0        2.034477   -0.252438    1.070523
      4          6           0        1.353148    0.932523    0.372971
      5          6           0        0.516661    0.563009   -0.856928
      6          7           0       -0.631437   -0.307898   -0.515546
      7          6           0       -0.480391   -1.658250   -0.714698
      8          6           0       -1.414860   -2.572810   -0.335431
      9          6           0       -2.590715   -2.098096    0.304851
     10          6           0       -2.758561   -0.760106    0.506349
     11          6           0       -1.783516    0.211277    0.089800
     12          7           0       -2.061705    1.475612    0.313785
     13          6           0       -1.380021    2.547999   -0.024036
     14          7           0       -0.868822    3.576329   -0.271519
     15          1           0        3.943990    0.667273   -0.899069
     16          1           0        5.022600   -0.720903   -0.728979
     17          1           0        4.742352    0.357842    0.647371
     18          1           0        2.622513   -1.458525   -0.646515
     19          1           0        3.469164   -1.836042    0.836104
     20          1           0        1.269516   -0.964488    1.408307
     21          1           0        2.515713    0.124192    1.982565
     22          1           0        0.713703    1.459977    1.086772
     23          1           0        2.095303    1.668800    0.044038
     24          1           0        0.144729    1.462698   -1.342756
     25          1           0        1.113289    0.016244   -1.590530
     26          1           0        0.444531   -1.943064   -1.199656
     27          1           0       -1.248468   -3.626079   -0.523863
     28          1           0       -3.355012   -2.797791    0.629069
     29          1           0       -3.641356   -0.352340    0.982955
 ---------------------------------------------------------------------

 SCF Done:  E(UB3LYP) =  -592.660594219     A.U. after   28 cycles

 The electronic state is 2-A.
 Alpha  occ. eigenvalues --  -14.22603 -14.16222 -14.12984 -10.11732 -10.08749
 Alpha  occ. eigenvalues --  -10.07370 -10.07120 -10.07020 -10.06679 -10.06367
 Alpha  occ. eigenvalues --  -10.05610 -10.03852 -10.02601 -10.01836  -0.85924
 Alpha  occ. eigenvalues --   -0.78666  -0.72432  -0.70679  -0.68194  -0.63953
 Alpha  occ. eigenvalues --   -0.61693  -0.58503  -0.53365  -0.50806  -0.50437
 Alpha  occ. eigenvalues --   -0.46467  -0.42243  -0.38906  -0.37380  -0.36489
 Alpha  occ. eigenvalues --   -0.35757  -0.33533  -0.32895  -0.31315  -0.30227
 Alpha  occ. eigenvalues --   -0.29438  -0.28165  -0.26929  -0.26082  -0.25396
 Alpha  occ. eigenvalues --   -0.23965  -0.23300  -0.22993  -0.22575  -0.21621
 Alpha  occ. eigenvalues --   -0.21119  -0.19802  -0.16258  -0.15669  -0.11252
 Alpha  occ. eigenvalues --   -0.07250   0.04256
 Alpha virt. eigenvalues --    0.06375   0.08296   0.08677   0.09401   0.09890
 Alpha virt. eigenvalues --    0.10787   0.11785   0.11833   0.12159   0.12452
 Alpha virt. eigenvalues --    0.12871   0.13514   0.14409   0.14967   0.15705

  Beta  occ. eigenvalues --  -14.22190 -14.16183 -14.12921 -10.11640 -10.08760
  Beta  occ. eigenvalues --  -10.07369 -10.07107 -10.07021 -10.06366 -10.06298
  Beta  occ. eigenvalues --  -10.05591 -10.04000 -10.02181 -10.01685  -0.85343
  Beta  occ. eigenvalues --   -0.78411  -0.72300  -0.70607  -0.67821  -0.63758
  Beta  occ. eigenvalues --   -0.61195  -0.58371  -0.53164  -0.50457  -0.50110
  Beta  occ. eigenvalues --   -0.46401  -0.41907  -0.38672  -0.37271  -0.36329
  Beta  occ. eigenvalues --   -0.35505  -0.33244  -0.32699  -0.31207  -0.30036
  Beta  occ. eigenvalues --   -0.28870  -0.28008  -0.26838  -0.25872  -0.25241
  Beta  occ. eigenvalues --   -0.23506  -0.23171  -0.22911  -0.22382  -0.21355
  Beta  occ. eigenvalues --   -0.20958  -0.19655  -0.15139  -0.13799  -0.11157
  Beta  occ. eigenvalues --   -0.06241
  Beta virt. eigenvalues --    0.06395   0.08241   0.08607   0.09231   0.09913
  Beta virt. eigenvalues --    0.10696   0.10921   0.11849   0.11942   0.12400
  Beta virt. eigenvalues --    0.12616   0.12880   0.13401   0.14353   0.14989

 Mulliken charges and spin densities:
               1          2
     1  C   -0.337997  -0.289877
     2  C   -0.217670   0.113709
     3  C   -0.238571  -0.049947
     4  C   -0.027150  -0.122715
     5  C   -0.315698  -0.025480
     6  N    0.222399   0.130466
     7  C   -0.181597   0.215407
     8  C   -0.145926  -0.097164
     9  C   -0.557070   0.246982
    10  C    0.530583   0.140708
    11  C   -0.684353   0.043968
    12  N   -0.047718   0.010782
    13  C   -0.026923  -0.015870
    14  N   -0.437055   0.032571
    15  H    0.062669   0.087022
    16  H   -0.051618   0.179614
    17  H    0.100866   0.022787
    18  H    0.129911  -0.020471
    19  H    0.116531   0.017724
    20  H    0.175201  -0.005063
    21  H    0.145989   0.006497
    22  H    0.218169  -0.004695
    23  H    0.119469   0.016224
    24  H    0.196557   0.022210
    25  H   -0.050503   0.217366
    26  H   -0.059705   0.113504
    27  H    0.090105   0.048599
    28  H    0.109348  -0.027042
    29  H    0.161762  -0.007816
 Sum of Mulliken charges =  -1.00000   1.00000

 Dipole moment (field-independent basis, Debye):
    X=              4.7915    Y=             -5.2663    Z=              1.1935  Tot=              7.2192
 Quadrupole moment (field-independent basis, Debye-Ang):
   XX=           -118.6929   YY=           -133.1603   ZZ=            -98.9359
   XY=              5.3210   XZ=              2.7856   YZ=              0.4821

 Summary of Natural Population Analysis:

                                       Natural Population
                Natural  -----------------------------------------------
    Atom  No    Charge         Core      Valence    Rydberg      Total
 -----------------------------------------------------------------------
      C    1   -0.28702      0.99967     2.28297    0.00438     3.28702
      C    2   -0.19397      0.99964     2.18564    0.00869     3.19397
      C    3   -0.19190      0.99963     2.18575    0.00652     3.19190
      C    4   -0.19772      0.99962     2.18893    0.00917     3.19772
      C    5   -0.09116      0.99961     2.08031    0.01124     3.09116
      N    6   -0.16045      0.99962     2.65147    0.00936     3.66045
      C    7    0.09712      0.99956     1.89086    0.01246     2.90288
      C    8   -0.17823      0.99957     2.16925    0.00941     3.17823
      C    9   -0.00697      0.99956     1.99836    0.00904     3.00697
      C   10   -0.10413      0.99953     2.09581    0.00879     3.10413
      C   11    0.23926      0.99952     1.74494    0.01627     2.76074
      N   12   -0.32469      0.99955     2.81429    0.01086     3.82469
      C   13    0.21101      0.99964     1.76956    0.01979     2.78899
      N   14   -0.27303      0.99978     2.76486    0.00839     3.77303
      H   15    0.09834      0.00000     0.40062    0.00104     0.40166
      H   16    0.09568      0.00000     0.40332    0.00100     0.40432
      H   17    0.09304      0.00000     0.40593    0.00103     0.40696
      H   18    0.09484      0.00000     0.40386    0.00129     0.40516
      H   19    0.09223      0.00000     0.40678    0.00099     0.40777
      H   20    0.10513      0.00000     0.39385    0.00102     0.39487
      H   21    0.09207      0.00000     0.40696    0.00096     0.40793
      H   22    0.11019      0.00000     0.38895    0.00086     0.38981
      H   23    0.09839      0.00000     0.40053    0.00108     0.40161
      H   24    0.11532      0.00000     0.38328    0.00140     0.38468
      H   25    0.09544      0.00000     0.40343    0.00114     0.40456
      H   26    0.08720      0.00000     0.41148    0.00133     0.41280
      H   27    0.09792      0.00000     0.40114    0.00094     0.40208
      H   28    0.08693      0.00000     0.41211    0.00096     0.41307
      H   29    0.09914      0.00000     0.39999    0.00087     0.40086
 =======================================================================
   * Total *    0.00000     13.99451    36.84522    0.16028    51.00000

 Normal termination of Gaussian 16 at Thu Dec 10 10:15:05 2020.
