 Gaussian 16, Revision A.03,

 -----------------------------------------------------------
 # opt freq B3LYP/6-31G(d) empiricaldispersion=gd3bj scf=xqc
 -----------------------------------------------------------

 ------------------------------
 CID_56994544_JID_1496_neutraal
 ------------------------------
 Symbolic Z-matrix:
 Charge =  0 Multiplicity = 1

 SCF Done:  E(RB3LYP) =  -573.662840446     A.U. after   15 cycles
 SCF Done:  E(RB3LYP) =  -573.672063812     A.U. after   13 cycles
 SCF Done:  E(RB3LYP) =  -573.673509566     A.U. after   13 cycles
 SCF Done:  E(RB3LYP) =  -573.673527100     A.U. after   13 cycles
 SCF Done:  E(RB3LYP) =  -573.674970194     A.U. after   12 cycles
 SCF Done:  E(RB3LYP) =  -573.675574794     A.U. after   13 cycles
 SCF Done:  E(RB3LYP) =  -573.675615209     A.U. after   14 cycles
 SCF Done:  E(RB3LYP) =  -573.676539894     A.U. after   12 cycles
 SCF Done:  E(RB3LYP) =  -573.677190227     A.U. after   13 cycles
 SCF Done:  E(RB3LYP) =  -573.677221081     A.U. after   14 cycles
 SCF Done:  E(RB3LYP) =  -573.678156184     A.U. after   10 cycles
 SCF Done:  E(RB3LYP) =  -573.678163666     A.U. after   10 cycles
 SCF Done:  E(RB3LYP) =  -573.678164524     A.U. after    9 cycles
 SCF Done:  E(RB3LYP) =  -573.678165070     A.U. after    8 cycles
 SCF Done:  E(RB3LYP) =  -573.678165255     A.U. after    8 cycles
 SCF Done:  E(RB3LYP) =  -573.678165310     A.U. after    7 cycles
 Optimization completed.
    -- Stationary point found.

 1\1\GINC-NODE112\FOpt\RB3LYP\6-31G(d)\C7H10O4\VSC10255\08-Dec-2020\0\\
 # opt freq B3LYP/6-31G(d) empiricaldispersion=gd3bj scf=xqc\\CID_56994
 544_JID_1496_neutraal\\0,1\C,0.3617393835,-0.3859765272,-0.4055938282\
 C,0.1690132469,-1.812581747,-0.0043322353\C,-0.2162381944,-2.203147727
 9,1.2197315404\C,-0.4154121588,-3.5962891788,1.6226796222\O,-0.7062794
 452,-3.9804109645,2.7220922572\O,-0.1332502647,-4.5513344274,0.6020166
 946\C,-1.1131175749,-4.7998907826,-0.308483141\O,-2.2144816513,-4.3064
 354798,-0.2640076773\C,-0.6331484893,-5.7435305312,-1.392426554\C,-0.8

 Normal termination of Gaussian 16 at Tue Dec  8 20:12:36 2020.

 --------------------------------------------------------------------
 #N Geom=AllCheck Guess=TCheck SCRF=Check GenChk RB3LYP/6-31G(d) Freq
 --------------------------------------------------------------------

 Structure from the checkpoint file:  "JID_1496.chk"
 ------------------------------
 CID_56994544_JID_1496_neutraal
 ------------------------------
 Charge =  0 Multiplicity = 1

 SCF Done:  E(RB3LYP) =  -573.678165310     A.U. after    1 cycles

  Exact polarizability:  91.673   3.176 101.985  -1.442   1.159  60.009
 Approx polarizability: 115.211  17.749 157.640  -2.428   0.042  99.144

                      1                      2                      3
                      A                      A                      A
 Frequencies --     39.4093                58.4500                61.8154
 Red. masses --      4.7371                 5.9917                 5.0198
 Frc consts  --      0.0043                 0.0121                 0.0113
 IR Inten    --      1.6104                 3.6608                 1.1190

                      4                      5                      6
                      A                      A                      A
 Frequencies --    117.8249               125.1324               138.2227
 Red. masses --      1.7502                 4.5813                 3.6962
 Frc consts  --      0.0143                 0.0423                 0.0416
 IR Inten    --      0.4146                 1.1267                 0.3351

                      7                      8                      9
                      A                      A                      A
 Frequencies --    191.5666               205.4198               222.3626
 Red. masses --      3.2731                 2.9241                 1.6121
 Frc consts  --      0.0708                 0.0727                 0.0470
 IR Inten    --      3.6721                 1.1549                 1.0133

                     10                     11                     12
                      A                      A                      A
 Frequencies --    247.0876               273.9520               341.2475
 Red. masses --      2.0123                 1.5130                 2.9682
 Frc consts  --      0.0724                 0.0669                 0.2036
 IR Inten    --     72.6920                64.8936                 1.0895

                     13                     14                     15
                      A                      A                      A
 Frequencies --    390.6403               431.9831               521.2205
 Red. masses --      4.1948                 3.0741                 5.2125
 Frc consts  --      0.3771                 0.3380                 0.8343
 IR Inten    --      0.1932                 8.3891                12.6289

                     16                     17                     18
                      A                      A                      A
 Frequencies --    587.0554               646.1722               663.1003
 Red. masses --      4.9390                 4.3645                 4.5381
 Frc consts  --      1.0029                 1.0737                 1.1757
 IR Inten    --      1.5276                 4.1082                19.0938

                     19                     20                     21
                      A                      A                      A
 Frequencies --    731.8098               814.2362               853.2535
 Red. masses --      2.5682                 3.7584                 2.3759
 Frc consts  --      0.8104                 1.4681                 1.0191
 IR Inten    --      5.0725                56.4440                22.6589

                     22                     23                     24
                      A                      A                      A
 Frequencies --    901.2145               924.7982               963.4625
 Red. masses --      2.5333                 3.9780                 1.5960
 Frc consts  --      1.2122                 2.0045                 0.8729
 IR Inten    --     13.7701                11.4494                36.4334

                     25                     26                     27
                      A                      A                      A
 Frequencies --   1004.5695              1019.0947              1076.4814
 Red. masses --      2.5582                 1.1060                 2.3757
 Frc consts  --      1.5210                 0.6767                 1.6220
 IR Inten    --     47.9674                27.8598                28.1742

                     28                     29                     30
                      A                      A                      A
 Frequencies --   1092.6198              1097.0725              1129.1938
 Red. masses --      1.5435                 2.5630                 3.2727
 Frc consts  --      1.0856                 1.8175                 2.4586
 IR Inten    --      3.9860                27.3648               119.6617

                     31                     32                     33
                      A                      A                      A
 Frequencies --   1160.8355              1209.0696              1258.2650
 Red. masses --      1.9820                 1.7126                 1.6208
 Frc consts  --      1.5736                 1.4751                 1.5119
 IR Inten    --    314.9665               300.9743                37.9977

                     34                     35                     36
                      A                      A                      A
 Frequencies --   1277.9103              1317.0262              1319.4268
 Red. masses --      1.5398                 1.2775                 1.3927
 Frc consts  --      1.4815                 1.3056                 1.4285
 IR Inten    --     43.7688                29.3137                 2.9228

                     37                     38                     39
                      A                      A                      A
 Frequencies --   1366.6989              1400.1093              1436.9990
 Red. masses --      1.2474                 1.6438                 1.2527
 Frc consts  --      1.3727                 1.8986                 1.5241
 IR Inten    --      5.0605                67.4872                 3.8726

                     40                     41                     42
                      A                      A                      A
 Frequencies --   1462.9406              1494.9934              1505.0746
 Red. masses --      1.4231                 1.1145                 1.0457
 Frc consts  --      1.7945                 1.4676                 1.3956
 IR Inten    --      3.8828                13.4333                 8.2224

                     43                     44                     45
                      A                      A                      A
 Frequencies --   1511.6655              1547.9661              1723.2829
 Red. masses --      1.0682                 1.0848                 5.2015
 Frc consts  --      1.4382                 1.5315                 9.1010
 IR Inten    --     17.2192                 5.6538                48.9930

                     46                     47                     48
                      A                      A                      A
 Frequencies --   1829.8572              1870.8228              3021.8868
 Red. masses --     12.1295                12.2244                 1.0595
 Frc consts  --     23.9292                25.2082                 5.7004
 IR Inten    --    228.3532               342.4827                68.5411

                     49                     50                     51
                      A                      A                      A
 Frequencies --   3038.4766              3068.6172              3083.3899
 Red. masses --      1.0378                 1.1030                 1.0659
 Frc consts  --      5.6452                 6.1195                 5.9706
 IR Inten    --     13.6944                29.1145                 9.7606

                     52                     53                     54
                      A                      A                      A
 Frequencies --   3086.3103              3132.8840              3147.6845
 Red. masses --      1.0990                 1.1009                 1.1012
 Frc consts  --      6.1678                 6.3665                 6.4283
 IR Inten    --     13.8899                19.0522                10.1572

                     55                     56                     57
                      A                      A                      A
 Frequencies --   3189.1855              3202.0842              3763.2173
 Red. masses --      1.0934                 1.0885                 1.0665
 Frc consts  --      6.5523                 6.5756                 8.8986
 IR Inten    --      4.6926                 3.9499                22.4833

 - Thermochemistry -
 -------------------
 Temperature   298.150 Kelvin.  Pressure   1.00000 Atm.
 Atom     1 has atomic number  6 and mass  12.00000

 Molecular mass:   158.05791 amu.
 Principal axes and moments of inertia in atomic units:
                           1         2         3
     Eigenvalues --  1379.924372071.506793072.34544
           X            0.99633  -0.08535  -0.00719
           Y            0.08542   0.99629   0.01065
           Z            0.00625  -0.01123   0.99992
 This molecule is an asymmetric top.
 Rotational symmetry number  1.
 Warning -- assumption of classical behavior for rotation
           may cause significant error
 Rotational temperatures (Kelvin)      0.06277     0.04181     0.02819
 Rotational constants (GHZ):           1.30786     0.87122     0.58741
 Zero-point vibrational energy     438414.3 (Joules/Mol)
                                  104.78353 (Kcal/Mol)
 Warning -- explicit consideration of  16 degrees of freedom as
           vibrations may cause significant error
 Vibrational temperatures:     56.70    84.10    88.94   169.52   180.04
          (Kelvin)            198.87   275.62   295.55   319.93   355.50
                              394.16   490.98   562.04   621.53   749.92
                              844.64   929.70   954.05  1052.91  1171.50
                             1227.64  1296.65  1330.58  1386.21  1445.35
                             1466.25  1548.82  1572.04  1578.44  1624.66
                             1670.18  1739.58  1810.36  1838.63  1894.91
                             1898.36  1966.37  2014.45  2067.52  2104.85
                             2150.96  2165.47  2174.95  2227.18  2479.42
                             2632.76  2691.70  4347.82  4371.69  4415.06
                             4436.31  4440.51  4507.52  4528.82  4588.53
                             4607.08  5414.43

 Zero-point correction=                           0.166983 (Hartree/Particle)
 Thermal correction to Energy=                    0.179249
 Thermal correction to Enthalpy=                  0.180193
 Thermal correction to Gibbs Free Energy=         0.127453
 Sum of electronic and zero-point Energies=           -573.511182
 Sum of electronic and thermal Energies=              -573.498917
 Sum of electronic and thermal Enthalpies=            -573.497972
 Sum of electronic and thermal Free Energies=         -573.550712

                     E (Thermal)             CV                S
                      KCal/Mol        Cal/Mol-Kelvin    Cal/Mol-Kelvin
 Total                  112.480             42.236            111.000
 Electronic               0.000              0.000              0.000
 Translational            0.889              2.981             41.083
 Rotational               0.889              2.981             30.552
 Vibrational            110.703             36.275             39.365
 Vibration     1          0.594              1.981              5.289
 Vibration     2          0.596              1.974              4.509
 Vibration     3          0.597              1.973              4.398
 Vibration     4          0.608              1.935              3.136
 Vibration     5          0.610              1.928              3.020
 Vibration     6          0.614              1.915              2.828
 Vibration     7          0.634              1.852              2.213
 Vibration     8          0.640              1.832              2.084
 Vibration     9          0.648              1.807              1.940
 Vibration    10          0.661              1.768              1.751
 Vibration    11          0.676              1.721              1.571
 Vibration    12          0.721              1.593              1.206
 Vibration    13          0.758              1.490              0.998
 Vibration    14          0.793              1.401              0.852
 Vibration    15          0.876              1.203              0.607
 Vibration    16          0.944              1.059              0.472

                           ! Non-Optimized Parameters !

 1\1\GINC-NODE112\Freq\RB3LYP\6-31G(d)\C7H10O4\VSC10255\08-Dec-2020\0\\
 #N Geom=AllCheck Guess=TCheck SCRF=Check GenChk RB3LYP/6-31G(d) Freq\\
 CID_56994544_JID_1496_neutraal\\0,1\C,0.3617393835,-0.3859765272,-0.40
 55938282\C,0.1690132469,-1.812581747,-0.0043322353\C,-0.2162381944,-2.
 2031477279,1.2197315404\C,-0.4154121588,-3.5962891788,1.6226796222\O,-
 0.7062794452,-3.9804109645,2.7220922572\O,-0.1332502647,-4.5513344274,
 0.6020166946\C,-1.1131175749,-4.7998907826,-0.308483141\O,-2.214481651
 3,-4.3064354798,-0.2640076773\C,-0.6331484893,-5.7435305312,-1.3924265

 Normal termination of Gaussian 16 at Tue Dec  8 20:16:39 2020.

 ----------------------------------------------------------------------
 # B3LYP/6-311++G(d,p) empiricaldispersion=gd3bj scf=xqc pop=npa geom=c
 heck
 ----------------------------------------------------------------------

 --------------------------------------
 CID_56994544_JID_1496_Energie_neutraal
 --------------------------------------
 Structure from the checkpoint file:  "JID_1496.chk"
 Charge =  0 Multiplicity = 1

 SCF Done:  E(RB3LYP) =  -573.861610422     A.U. after   14 cycles
 Normal termination of Gaussian 16 at Tue Dec  8 20:18:21 2020.

 ----------------------------------------------------------------------
 # B3LYP/6-311++G(d,p) empiricaldispersion=gd3bj scf=xqc pop=npa geom=c
 heck
 ----------------------------------------------------------------------

 ------------------------------------
 CID_56994544_JID_1496_Energie_kation
 ------------------------------------
 Structure from the checkpoint file:  "JID_1496.chk"
 Charge =  1 Multiplicity = 2

 SCF Done:  E(UB3LYP) =  -573.507106608     A.U. after   25 cycles
 Normal termination of Gaussian 16 at Tue Dec  8 20:22:36 2020.
 Gaussian 16:  ES64L-G16RevA.03 25-Dec-2016

 -----------------------------------
 CID_56994544_JID_1496_Energie_anion
 -----------------------------------
 Structure from the checkpoint file:  "JID_1496.chk"
 Charge = -1 Multiplicity = 2

                         Standard orientation:
 ---------------------------------------------------------------------
 Center     Atomic      Atomic             Coordinates (Angstroms)
 Number     Number       Type             X           Y           Z
 ---------------------------------------------------------------------
      1          6           0        2.169871   -2.587799   -0.148081
      2          6           0        1.500002   -1.279639    0.122752
      3          6           0        2.096455   -0.086615   -0.019478
      4          6           0        1.449047    1.201290    0.235559
      5          8           0        1.970132    2.280663    0.170079
      6          8           0        0.101744    1.103665    0.692422
      7          6           0       -0.866354    0.939012   -0.249175
      8          8           0       -0.654831    0.931253   -1.438157
      9          6           0       -2.226566    0.736674    0.386939
     10          6           0       -2.819246   -0.582165   -0.092765
     11          8           0       -1.974213   -1.625796    0.392877
     12          1           0        3.208856   -2.462543   -0.466623
     13          1           0        1.629422   -3.137297   -0.930334
     14          1           0        2.151669   -3.223362    0.747091
     15          1           0        0.461388   -1.326688    0.444781
     16          1           0        3.130882   -0.002289   -0.341376
     17          1           0       -2.146946    0.747274    1.476045
     18          1           0       -2.877762    1.559983    0.072166
     19          1           0       -3.842740   -0.692633    0.293780
     20          1           0       -2.855756   -0.578369   -1.189939
     21          1           0       -2.220919   -2.446906   -0.057855
 ---------------------------------------------------------------------

 SCF Done:  E(UB3LYP) =  -573.865276643     A.U. after   32 cycles

 The electronic state is 2-A.
 Alpha  occ. eigenvalues --  -19.03544 -19.01705 -18.98891 -18.95621 -10.18223
 Alpha  occ. eigenvalues --  -10.13659 -10.11518 -10.07383 -10.04935 -10.02971
 Alpha  occ. eigenvalues --  -10.02703  -0.98640  -0.91938  -0.91473  -0.87609
 Alpha  occ. eigenvalues --   -0.67550  -0.66436  -0.58850  -0.55081  -0.49295
 Alpha  occ. eigenvalues --   -0.45002  -0.42029  -0.40028  -0.38177  -0.36256
 Alpha  occ. eigenvalues --   -0.33764  -0.32894  -0.31178  -0.30694  -0.29733
 Alpha  occ. eigenvalues --   -0.29090  -0.27688  -0.27274  -0.25749  -0.23985
 Alpha  occ. eigenvalues --   -0.23221  -0.22313  -0.19077  -0.17489  -0.16223
 Alpha  occ. eigenvalues --   -0.13462  -0.13186   0.04489
 Alpha virt. eigenvalues --    0.06301   0.08074   0.09203   0.10565   0.10763
 Alpha virt. eigenvalues --    0.11628   0.11943   0.12477   0.13099   0.13924
 Alpha virt. eigenvalues --    0.15850   0.16155   0.17102   0.17464   0.17817

  Beta  occ. eigenvalues --  -19.03551 -19.01670 -18.98877 -18.95265 -10.18186
  Beta  occ. eigenvalues --  -10.13380 -10.11488 -10.07380 -10.04965 -10.02748
  Beta  occ. eigenvalues --  -10.02529  -0.98529  -0.91782  -0.91269  -0.87269
  Beta  occ. eigenvalues --   -0.67404  -0.65986  -0.58555  -0.54978  -0.49082
  Beta  occ. eigenvalues --   -0.44353  -0.41919  -0.39958  -0.37939  -0.36120
  Beta  occ. eigenvalues --   -0.33562  -0.32682  -0.30921  -0.30563  -0.29334
  Beta  occ. eigenvalues --   -0.29013  -0.27456  -0.26997  -0.25553  -0.23653
  Beta  occ. eigenvalues --   -0.22466  -0.21799  -0.18992  -0.17437  -0.16182
  Beta  occ. eigenvalues --   -0.13050  -0.11769
  Beta virt. eigenvalues --    0.07342   0.08457   0.09526   0.10338   0.10725
  Beta virt. eigenvalues --    0.11097   0.11605   0.12152   0.12544   0.13300
  Beta virt. eigenvalues --    0.13971   0.15879   0.16209   0.17299   0.17471

 Mulliken charges and spin densities:
               1          2
     1  C   -0.468340  -0.233808
     2  C   -0.014546   0.419366
     3  C   -0.132023   0.036344
     4  C    0.034079   0.127035
     5  O   -0.346590   0.115210
     6  O    0.003936  -0.007957
     7  C    0.151563  -0.336744
     8  O   -0.217518   0.015358
     9  C   -1.051081   0.772389
    10  C    1.042946  -1.353467
    11  O   -0.295044   0.026077
    12  H    0.120151   0.000835
    13  H   -0.025670   0.169830
    14  H    0.097749   0.035922
    15  H    0.399656  -0.176629
    16  H    0.138528  -0.004353
    17  H    0.157388   0.054471
    18  H    0.066431   0.082105
    19  H   -0.508525   0.661316
    20  H   -0.000271   0.176960
    21  H   -0.152821   0.419737
 Sum of Mulliken charges =  -1.00000   1.00000

 Dipole moment (field-independent basis, Debye):
    X=              0.1526    Y=             -0.4004    Z=              0.7593  Tot=              0.8719
 Quadrupole moment (field-independent basis, Debye-Ang):
   XX=           -101.7345   YY=            -98.8036   ZZ=            -81.9035
   XY=            -17.1744   XZ=             -0.4239   YZ=              0.8114

 Summary of Natural Population Analysis:

                                       Natural Population
                Natural  -----------------------------------------------
    Atom  No    Charge         Core      Valence    Rydberg      Total
 -----------------------------------------------------------------------
      C    1   -0.30657      0.99966     2.30152    0.00539     3.30657
      C    2    0.02699      0.99956     1.96383    0.00962     2.97301
      C    3   -0.18551      0.99946     2.17691    0.00914     3.18551
      C    4    0.42404      0.99961     1.55131    0.02504     2.57596
      O    5   -0.25729      0.99986     3.25178    0.00564     4.25729
      O    6   -0.29781      0.99985     3.28970    0.00827     4.29781
      C    7    0.41321      0.99969     1.55837    0.02873     2.58679
      O    8   -0.30290      0.99986     3.29781    0.00522     4.30290
      C    9   -0.24482      0.99958     2.23528    0.00997     3.24482
      C   10   -0.00729      0.99961     1.99488    0.01280     3.00729
      O   11   -0.37193      0.99989     3.36453    0.00751     4.37193
      H   12    0.09330      0.00000     0.40584    0.00087     0.40670
      H   13    0.10568      0.00000     0.39305    0.00127     0.39432
      H   14    0.10093      0.00000     0.39810    0.00097     0.39907
      H   15    0.09986      0.00000     0.39855    0.00159     0.40014
      H   16    0.09436      0.00000     0.40472    0.00092     0.40564
      H   17    0.10993      0.00000     0.38875    0.00132     0.39007
      H   18    0.10951      0.00000     0.38955    0.00094     0.39049
      H   19    0.07781      0.00000     0.41977    0.00242     0.42219
      H   20    0.08446      0.00000     0.41399    0.00155     0.41554
      H   21    0.23404      0.00000     0.25843    0.00753     0.26596
 =======================================================================
   * Total *   -0.00000     10.99664    30.85665    0.14672    42.00000

 Normal termination of Gaussian 16 at Tue Dec  8 20:29:26 2020.
