 Gaussian 16, Revision A.03,

 -----------------------------------------------------------
 # opt freq B3LYP/6-31G(d) empiricaldispersion=gd3bj scf=xqc
 -----------------------------------------------------------

 -------------------------------
 CID_54796834_JID_10287_neutraal
 -------------------------------
 Symbolic Z-matrix:
 Charge =  0 Multiplicity = 1

 SCF Done:  E(RB3LYP) =  -865.705610252     A.U. after   14 cycles
 SCF Done:  E(RB3LYP) =  -865.710845268     A.U. after   12 cycles
 SCF Done:  E(RB3LYP) =  -865.711098404     A.U. after   12 cycles
 SCF Done:  E(RB3LYP) =  -865.711794481     A.U. after   12 cycles
 SCF Done:  E(RB3LYP) =  -865.712154965     A.U. after   12 cycles
 SCF Done:  E(RB3LYP) =  -865.712677847     A.U. after   14 cycles
 SCF Done:  E(RB3LYP) =  -865.713051146     A.U. after   11 cycles
 SCF Done:  E(RB3LYP) =  -865.713297127     A.U. after   12 cycles
 SCF Done:  E(RB3LYP) =  -865.713320486     A.U. after   12 cycles
 SCF Done:  E(RB3LYP) =  -865.713328211     A.U. after   13 cycles
 SCF Done:  E(RB3LYP) =  -865.713959977     A.U. after    6 cycles
 SCF Done:  E(RB3LYP) =  -865.713960002     A.U. after    7 cycles
 SCF Done:  E(RB3LYP) =  -865.713960021     A.U. after    6 cycles
 SCF Done:  E(RB3LYP) =  -865.713960041     A.U. after    7 cycles
 SCF Done:  E(RB3LYP) =  -865.713960054     A.U. after    6 cycles
 Optimization completed.
    -- Stationary point found.
 Normal termination of Gaussian 16 at Mon Dec 14 14:48:38 2020.

 --------------------------------------------------------------------
 #N Geom=AllCheck Guess=TCheck SCRF=Check GenChk RB3LYP/6-31G(d) Freq
 --------------------------------------------------------------------

 Structure from the checkpoint file:  "JID_10287.chk"
 -------------------------------
 CID_54796834_JID_10287_neutraal
 -------------------------------
 Charge =  0 Multiplicity = 1

 SCF Done:  E(RB3LYP) =  -865.713960054     A.U. after    1 cycles

  Exact polarizability: 193.894  -2.388 216.360 -41.199  -3.046 140.698
 Approx polarizability: 281.540  -8.864 348.638 -82.225  -5.726 225.602

                      1                      2                      3
                      A                      A                      A
 Frequencies --     16.9520                22.6230                31.9807
 Red. masses --      4.5936                 4.6103                 1.1167
 Frc consts  --      0.0008                 0.0014                 0.0007
 IR Inten    --      0.0158                 0.0346                 0.0499

                      4                      5                      6
                      A                      A                      A
 Frequencies --     35.7947                47.6927                73.1264
 Red. masses --      2.8385                 1.0456                 4.6077
 Frc consts  --      0.0021                 0.0014                 0.0145
 IR Inten    --      0.0634                 0.2272                 0.6224

                      7                      8                      9
                      A                      A                      A
 Frequencies --     83.8426                93.8207               126.1598
 Red. masses --      4.4183                 2.5707                 3.4602
 Frc consts  --      0.0183                 0.0133                 0.0324
 IR Inten    --      0.3598                 3.4530                 3.4035

                     10                     11                     12
                      A                      A                      A
 Frequencies --    139.2566               168.0100               184.4318
 Red. masses --      2.3421                 1.6789                 2.4046
 Frc consts  --      0.0268                 0.0279                 0.0482
 IR Inten    --      3.5999                 0.5250                 3.5628

                     13                     14                     15
                      A                      A                      A
 Frequencies --    200.1710               231.6387               252.1056
 Red. masses --      3.1739                 3.1301                 2.9777
 Frc consts  --      0.0749                 0.0990                 0.1115
 IR Inten    --      3.4098                 0.0965                 1.1247

                     16                     17                     18
                      A                      A                      A
 Frequencies --    270.9576               282.1955               291.7687
 Red. masses --      2.9972                 4.1675                 2.9941
 Frc consts  --      0.1296                 0.1955                 0.1502
 IR Inten    --      2.1210                 1.0343                 3.2198

                     19                     20                     21
                      A                      A                      A
 Frequencies --    323.4439               333.8311               364.7033
 Red. masses --      3.1735                 3.5605                 4.0282
 Frc consts  --      0.1956                 0.2338                 0.3157
 IR Inten    --      2.7094                 4.9383                 1.3815

                     22                     23                     24
                      A                      A                      A
 Frequencies --    444.4419               467.4232               482.8279
 Red. masses --      4.5773                 3.5093                 1.9544
 Frc consts  --      0.5327                 0.4517                 0.2684
 IR Inten    --      2.3926                 3.6435                31.1814

                     25                     26                     27
                      A                      A                      A
 Frequencies --    512.5614               523.1200               530.1156
 Red. masses --      2.9120                 4.5238                 3.4006
 Frc consts  --      0.4507                 0.7294                 0.5630
 IR Inten    --     15.4249                 0.7764                 4.9503

                     28                     29                     30
                      A                      A                      A
 Frequencies --    542.3382               556.3091               569.7667
 Red. masses --      2.9918                 3.5514                 4.9016
 Frc consts  --      0.5185                 0.6476                 0.9375
 IR Inten    --     12.8587                11.4856                 1.8135

                     31                     32                     33
                      A                      A                      A
 Frequencies --    587.3702               601.3071               603.3302
 Red. masses --      3.5799                 4.3287                 3.7780
 Frc consts  --      0.7277                 0.9222                 0.8103
 IR Inten    --      7.9625                11.7750                11.1215

                     34                     35                     36
                      A                      A                      A
 Frequencies --    695.5423               710.1196               737.3541
 Red. masses --      2.9134                 2.3699                 4.7441
 Frc consts  --      0.8304                 0.7041                 1.5197
 IR Inten    --      4.9620                 6.6172                 5.1422

                     37                     38                     39
                      A                      A                      A
 Frequencies --    774.4342               776.7767               831.5782
 Red. masses --      2.7775                 1.4595                 4.3551
 Frc consts  --      0.9815                 0.5188                 1.7744
 IR Inten    --     12.6463                41.3508                16.9915

                     40                     41                     42
                      A                      A                      A
 Frequencies --    838.9582               847.4173               860.2916
 Red. masses --      1.3724                 1.3033                 1.4805
 Frc consts  --      0.5691                 0.5514                 0.6456
 IR Inten    --     33.5415                 0.5633                 9.1676

                     43                     44                     45
                      A                      A                      A
 Frequencies --    873.9108               903.3632               927.5617
 Red. masses --      1.5135                 2.5978                 2.0408
 Frc consts  --      0.6810                 1.2491                 1.0345
 IR Inten    --      2.9848                26.1044                 2.4532

                     46                     47                     48
                      A                      A                      A
 Frequencies --    942.5131               970.8040               981.9473
 Red. masses --      1.5072                 1.2371                 3.4270
 Frc consts  --      0.7889                 0.6869                 1.9469
 IR Inten    --      5.5792                 0.0727                 2.5256

                     49                     50                     51
                      A                      A                      A
 Frequencies --    990.4462              1016.3022              1046.7557
 Red. masses --      1.8655                 5.1085                 1.4724
 Frc consts  --      1.0782                 3.1088                 0.9505
 IR Inten    --      8.6670                 4.2874                 0.5776

                     52                     53                     54
                      A                      A                      A
 Frequencies --   1048.1557              1064.8717              1068.9468
 Red. masses --      6.0824                 2.5203                 2.3447
 Frc consts  --      3.9371                 1.6838                 1.5785
 IR Inten    --     47.5870                45.2326                28.3208

                     55                     56                     57
                      A                      A                      A
 Frequencies --   1071.6764              1074.2525              1074.5288
 Red. masses --      1.5163                 1.5935                 2.2810
 Frc consts  --      1.0260                 1.0835                 1.5517
 IR Inten    --     13.3153                 5.0566                39.2616

                     58                     59                     60
                      A                      A                      A
 Frequencies --   1124.1560              1131.0971              1171.2372
 Red. masses --      2.0867                 1.8074                 2.6743
 Frc consts  --      1.5537                 1.3624                 2.1615
 IR Inten    --      6.1457                37.2344                10.4240

                     61                     62                     63
                      A                      A                      A
 Frequencies --   1185.1659              1186.3527              1204.7072
 Red. masses --      1.2430                 1.1032                 1.4329
 Frc consts  --      1.0287                 0.9148                 1.2253
 IR Inten    --      6.1798                 0.4238                 1.3860

                     64                     65                     66
                      A                      A                      A
 Frequencies --   1212.1527              1230.9153              1241.1640
 Red. masses --      1.5619                 1.8523                 2.3817
 Frc consts  --      1.3521                 1.6535                 2.1617
 IR Inten    --     21.6902                45.2475                59.1703

                     67                     68                     69
                      A                      A                      A
 Frequencies --   1273.4588              1288.7807              1304.0916
 Red. masses --      1.1252                 1.7524                 2.5329
 Frc consts  --      1.0751                 1.7149                 2.5380
 IR Inten    --      1.8796                40.8422               105.1269

                     70                     71                     72
                      A                      A                      A
 Frequencies --   1309.8352              1335.1702              1343.8665
 Red. masses --      1.7226                 1.9633                 2.4921
 Frc consts  --      1.7413                 2.0621                 2.6518
 IR Inten    --     27.2216                17.4276                 1.9515

                     73                     74                     75
                      A                      A                      A
 Frequencies --   1355.3929              1394.8485              1407.9202
 Red. masses --      1.9206                 3.7511                 1.5070
 Frc consts  --      2.0789                 4.3000                 1.7600
 IR Inten    --     19.4065                58.9226                 3.3780

                     76                     77                     78
                      A                      A                      A
 Frequencies --   1428.6090              1438.6227              1441.7979
 Red. masses --      1.3491                 1.2390                 1.3272
 Frc consts  --      1.6223                 1.5109                 1.6255
 IR Inten    --     19.1111                 0.0097                 0.9920

                     79                     80                     81
                      A                      A                      A
 Frequencies --   1473.0346              1482.3278              1491.2057
 Red. masses --      2.1353                 1.4037                 1.9149
 Frc consts  --      2.7298                 1.8172                 2.5089
 IR Inten    --     12.1354                 9.8701                20.2768

                     82                     83                     84
                      A                      A                      A
 Frequencies --   1504.0769              1515.1355              1517.3223
 Red. masses --      1.6731                 1.0555                 1.0512
 Frc consts  --      2.2301                 1.4276                 1.4260
 IR Inten    --     12.1225                 5.2614                 6.6453

                     85                     86                     87
                      A                      A                      A
 Frequencies --   1518.8658              1520.9227              1526.3078
 Red. masses --      1.0550                 1.1835                 1.0970
 Frc consts  --      1.4340                 1.6130                 1.5058
 IR Inten    --      2.7060                11.1514                 7.7131

                     88                     89                     90
                      A                      A                      A
 Frequencies --   1534.2578              1542.7451              1544.0455
 Red. masses --      1.1556                 1.4950                 1.1167
 Frc consts  --      1.6027                 2.0964                 1.5686
 IR Inten    --     52.5617                42.9095                 5.5878

                     91                     92                     93
                      A                      A                      A
 Frequencies --   1548.0826              1580.7472              1636.9839
 Red. masses --      1.9551                 1.7137                 6.5435
 Frc consts  --      2.7606                 2.5230                10.3311
 IR Inten    --     84.1293                49.3388                 3.7677

                     94                     95                     96
                      A                      A                      A
 Frequencies --   1654.5690              1665.3155              1668.6554
 Red. masses --      5.8868                 4.8454                 5.4845
 Frc consts  --      9.4951                 7.9173                 8.9975
 IR Inten    --      7.9647                37.7069               153.4947

                     97                     98                     99
                      A                      A                      A
 Frequencies --   3007.0848              3025.8842              3038.7477
 Red. masses --      1.0673                 1.0702                 1.0394
 Frc consts  --      5.6864                 5.7731                 5.6547
 IR Inten    --     58.3765                42.6621                51.1282

                    100                    101                    102
                      A                      A                      A
 Frequencies --   3039.6216              3039.9229              3061.8051
 Red. masses --      1.0389                 1.0389                 1.0947
 Frc consts  --      5.6551                 5.6563                 6.0467
 IR Inten    --     35.5607                60.8600                28.3413

                    103                    104                    105
                      A                      A                      A
 Frequencies --   3092.7892              3094.5837              3120.0069
 Red. masses --      1.0984                 1.0966                 1.1025
 Frc consts  --      6.1902                 6.1871                 6.3235
 IR Inten    --     23.3916                24.3586                19.2109

                    106                    107                    108
                      A                      A                      A
 Frequencies --   3121.6973              3123.3023              3131.3016
 Red. masses --      1.0956                 1.1013                 1.0956
 Frc consts  --      6.2907                 6.3295                 6.3291
 IR Inten    --     23.4484                20.2691                39.9887

                    109                    110                    111
                      A                      A                      A
 Frequencies --   3159.5854              3172.4596              3174.6076
 Red. masses --      1.1065                 1.0894                 1.0901
 Frc consts  --      6.5084                 6.4600                 6.4726
 IR Inten    --     18.1830                31.9875                 7.6354

                    112                    113                    114
                      A                      A                      A
 Frequencies --   3190.5761              3192.3845              3200.5670
 Red. masses --      1.0855                 1.0893                 1.0901
 Frc consts  --      6.5105                 6.5408                 6.5794
 IR Inten    --      0.6658                13.3615                12.9149

                    115                    116                    117
                      A                      A                      A
 Frequencies --   3212.2948              3223.0731              3596.0510
 Red. masses --      1.0947                 1.0951                 1.0755
 Frc consts  --      6.6556                 6.7025                 8.1940
 IR Inten    --     19.3899                 4.8923                27.4661

 - Thermochemistry -
 -------------------
 Temperature   298.150 Kelvin.  Pressure   1.00000 Atm.
 Atom     1 has atomic number  6 and mass  12.00000

 Molecular mass:   271.15723 amu.
 Principal axes and moments of inertia in atomic units:
                           1         2         3
     Eigenvalues --  3652.936256812.506978115.20330
           X            0.99993  -0.00490  -0.01048
           Y            0.00475   0.99989  -0.01421
           Z            0.01055   0.01415   0.99984
 This molecule is an asymmetric top.
 Rotational symmetry number  1.
 Warning -- assumption of classical behavior for rotation
           may cause significant error
 Rotational temperatures (Kelvin)      0.02371     0.01271     0.01067
 Rotational constants (GHZ):           0.49405     0.26492     0.22239
 Zero-point vibrational energy     915599.1 (Joules/Mol)
                                  218.83344 (Kcal/Mol)
 Warning -- explicit consideration of  33 degrees of freedom as
           vibrations may cause significant error
 Vibrational temperatures:     24.39    32.55    46.01    51.50    68.62
          (Kelvin)            105.21   120.63   134.99   181.52   200.36
                              241.73   265.36   288.00   333.28   362.72
                              389.85   406.02   419.79   465.36   480.31
                              524.73   639.45   672.52   694.68   737.46
                              752.65   762.72   780.30   800.40   819.77
                              845.09   865.15   868.06  1000.73  1021.70
                             1060.89  1114.24  1117.61  1196.46  1207.07
                             1219.24  1237.77  1257.36  1299.74  1334.55
                             1356.07  1396.77  1412.80  1425.03  1462.23
                             1506.05  1508.06  1532.11  1537.98  1541.90
                             1545.61  1546.01  1617.41  1627.40  1685.15
                             1705.19  1706.90  1733.30  1744.02  1771.01
                             1785.76  1832.22  1854.27  1876.30  1884.56
                             1921.01  1933.52  1950.11  2006.88  2025.68
                             2055.45  2069.86  2074.43  2119.37  2132.74
                             2145.51  2164.03  2179.94  2183.09  2185.31
                             2188.27  2196.02  2207.45  2219.67  2221.54
                             2227.35  2274.34  2355.25  2380.56  2396.02
                             2400.82  4326.52  4353.57  4372.08  4373.34
                             4373.77  4405.25  4449.83  4452.42  4488.99
                             4491.43  4493.74  4505.24  4545.94  4564.46
                             4567.55  4590.53  4593.13  4604.90  4621.78
                             4637.28  5173.92

 Zero-point correction=                           0.348733 (Hartree/Particle)
 Thermal correction to Energy=                    0.368880
 Thermal correction to Enthalpy=                  0.369824
 Thermal correction to Gibbs Free Energy=         0.297101
 Sum of electronic and zero-point Energies=           -865.365227
 Sum of electronic and thermal Energies=              -865.345080
 Sum of electronic and thermal Enthalpies=            -865.344136
 Sum of electronic and thermal Free Energies=         -865.416859

                     E (Thermal)             CV                S
                      KCal/Mol        Cal/Mol-Kelvin    Cal/Mol-Kelvin
 Total                  231.475             75.070            153.057
 Electronic               0.000              0.000              0.000
 Translational            0.889              2.981             42.691
 Rotational               0.889              2.981             33.668
 Vibrational            229.698             69.108             76.698
 Vibration     1          0.593              1.986              6.963
 Vibration     2          0.593              1.985              6.390
 Vibration     3          0.594              1.983              5.703
 Vibration     4          0.594              1.982              5.479
 Vibration     5          0.595              1.978              4.911
 Vibration     6          0.599              1.967              4.067
 Vibration     7          0.601              1.960              3.799
 Vibration     8          0.603              1.954              3.579
 Vibration     9          0.611              1.927              3.004
 Vibration    10          0.615              1.914              2.814
 Vibration    11          0.625              1.882              2.458
 Vibration    12          0.631              1.861              2.283
 Vibration    13          0.638              1.840              2.132
 Vibration    14          0.653              1.793              1.866
 Vibration    15          0.664              1.759              1.716
 Vibration    16          0.675              1.727              1.590
 Vibration    17          0.681              1.707              1.520
 Vibration    18          0.687              1.689              1.464
 Vibration    19          0.708              1.629              1.293
 Vibration    20          0.715              1.608              1.241
 Vibration    21          0.738              1.545              1.102
 Vibration    22          0.804              1.373              0.813
 Vibration    23          0.825              1.322              0.745
 Vibration    24          0.839              1.288              0.702
 Vibration    25          0.868              1.222              0.627
 Vibration    26          0.878              1.199              0.603
 Vibration    27          0.885              1.183              0.587
 Vibration    28          0.897              1.156              0.560
 Vibration    29          0.912              1.126              0.531
 Vibration    30          0.926              1.097              0.505
 Vibration    31          0.945              1.059              0.472
 Vibration    32          0.960              1.029              0.447
 Vibration    33          0.962              1.025              0.444

                           ! Non-Optimized Parameters !
 Normal termination of Gaussian 16 at Mon Dec 14 15:15:33 2020.

 ----------------------------------------------------------------------
 # B3LYP/6-311++G(d,p) empiricaldispersion=gd3bj scf=xqc pop=npa geom=c
 heck
 ----------------------------------------------------------------------

 ---------------------------------------
 CID_54796834_JID_10287_Energie_neutraal
 ---------------------------------------
 Structure from the checkpoint file:  "JID_10287.chk"
 Charge =  0 Multiplicity = 1

 SCF Done:  E(RB3LYP) =  -865.947986813     A.U. after   15 cycles
 Normal termination of Gaussian 16 at Mon Dec 14 15:27:15 2020.

 ----------------------------------------------------------------------
 # B3LYP/6-311++G(d,p) empiricaldispersion=gd3bj scf=xqc pop=npa geom=c
 heck
 ----------------------------------------------------------------------

 -------------------------------------
 CID_54796834_JID_10287_Energie_kation
 -------------------------------------
 Structure from the checkpoint file:  "JID_10287.chk"
 Charge =  1 Multiplicity = 2

 SCF Done:  E(UB3LYP) =  -865.694187414     A.U. after   23 cycles
 Normal termination of Gaussian 16 at Mon Dec 14 15:52:13 2020.
 Gaussian 16:  ES64L-G16RevA.03 25-Dec-2016

 ----------------------------------------------------------------------
 # B3LYP/6-311++G(d,p) empiricaldispersion=gd3bj scf=xqc pop=npa geom=c
 heck
 ----------------------------------------------------------------------

 ------------------------------------
 CID_54796834_JID_10287_Energie_anion
 ------------------------------------
 Structure from the checkpoint file:  "JID_10287.chk"
 Charge = -1 Multiplicity = 2

                         Standard orientation:
 ---------------------------------------------------------------------
 Center     Atomic      Atomic             Coordinates (Angstroms)
 Number     Number       Type             X           Y           Z
 ---------------------------------------------------------------------
      1          6           0       -2.845178    2.967289   -0.170430
      2          6           0       -2.597716    1.480376   -0.261330
      3          6           0       -3.548894    0.568660    0.217934
      4          6           0       -3.332324   -0.806798    0.121865
      5          6           0       -2.151693   -1.278596   -0.462123
      6          6           0       -1.184946   -0.384241   -0.940661
      7          6           0       -1.425239    0.997666   -0.833448
      8          7           0       -0.005271   -0.824183   -1.535276
      9          6           0        0.585330   -2.104838   -1.168727
     10          6           0        2.105968   -2.077796   -1.283360
     11          8           0        2.762534   -1.440870   -0.176981
     12          6           0        2.511593   -0.091854   -0.022545
     13          6           0        3.135233    0.847554   -0.844914
     14          6           0        2.856362    2.208046   -0.695701
     15          6           0        1.959616    2.628996    0.287015
     16          6           0        1.352990    1.693429    1.126738
     17          6           0        1.622705    0.332920    0.981504
     18          8           0        0.940320   -0.562232    1.763483
     19          6           0        1.745496   -1.337348    2.656304
     20          6           0       -4.345505   -1.787096    0.663884
     21          1           0       -3.458364    3.321443   -1.009760
     22          1           0       -3.377352    3.228082    0.751014
     23          1           0       -1.905665    3.529677   -0.191626
     24          1           0       -4.464360    0.938003    0.674488
     25          1           0       -1.990530   -2.349152   -0.547109
     26          1           0       -0.669177    1.694323   -1.188551
     27          1           0        0.672387   -0.082135   -1.646125
     28          1           0        0.320363   -2.376092   -0.138309
     29          1           0        0.209283   -2.901393   -1.828725
     30          1           0        2.495864   -3.098269   -1.281857
     31          1           0        2.407317   -1.596607   -2.225508
     32          1           0        3.830988    0.496635   -1.601503
     33          1           0        3.340618    2.932309   -1.343774
     34          1           0        1.734207    3.684662    0.405483
     35          1           0        0.640225    1.991833    1.888210
     36          1           0        2.461622   -1.956397    2.109144
     37          1           0        2.281064   -0.683788    3.357044
     38          1           0        1.051111   -1.971773    3.211169
     39          1           0       -5.302619   -1.298273    0.871123
     40          1           0       -4.529167   -2.605303   -0.042233
     41          1           0       -3.996533   -2.241902    1.600289
 ---------------------------------------------------------------------

 SCF Done:  E(UB3LYP) =  -865.934932618     A.U. after   33 cycles
 SCF Done:  E(UB3LYP) =  -865.934932618     a.u. after    1 cycles

 The electronic state is 2-A.
 Alpha  occ. eigenvalues --  -19.04978 -19.04877 -14.22405 -10.13687 -10.13594
 Alpha  occ. eigenvalues --  -10.13582 -10.12204 -10.11440 -10.10881 -10.08695
 Alpha  occ. eigenvalues --  -10.08584 -10.08542 -10.08460 -10.08312 -10.08226
 Alpha  occ. eigenvalues --  -10.07987 -10.07677 -10.06531 -10.06494 -10.06372
 Alpha  occ. eigenvalues --   -0.97558  -0.95497  -0.84077  -0.76360  -0.75576
 Alpha  occ. eigenvalues --   -0.68912  -0.68274  -0.66447  -0.65546  -0.62593
 Alpha  occ. eigenvalues --   -0.59889  -0.59415  -0.59019  -0.55186  -0.51805
 Alpha  occ. eigenvalues --   -0.50351  -0.49549  -0.47587  -0.44352  -0.42158
 Alpha  occ. eigenvalues --   -0.41147  -0.40918  -0.39792  -0.39302  -0.38088
 Alpha  occ. eigenvalues --   -0.36868  -0.36105  -0.35739  -0.34460  -0.34005
 Alpha  occ. eigenvalues --   -0.33621  -0.32662  -0.32542  -0.32350  -0.31328
 Alpha  occ. eigenvalues --   -0.30834  -0.30335  -0.29447  -0.28257  -0.28002
 Alpha  occ. eigenvalues --   -0.27919  -0.26448  -0.25733  -0.25472  -0.24456
 Alpha  occ. eigenvalues --   -0.24114  -0.20544  -0.19531  -0.18706  -0.16250
 Alpha  occ. eigenvalues --   -0.14612  -0.14158  -0.10535   0.04095
 Alpha virt. eigenvalues --    0.05843   0.06113   0.06759   0.07205   0.07299
 Alpha virt. eigenvalues --    0.07819   0.08119   0.08156   0.08784   0.09112
 Alpha virt. eigenvalues --    0.09368   0.09673   0.09912   0.10366   0.11082

  Beta  occ. eigenvalues --  -19.04981 -19.04876 -14.22403 -10.13682 -10.13547
  Beta  occ. eigenvalues --  -10.13544 -10.12178 -10.11439 -10.10863 -10.08695
  Beta  occ. eigenvalues --  -10.08584 -10.08528 -10.08443 -10.08305 -10.08183
  Beta  occ. eigenvalues --  -10.07975 -10.07661 -10.06528 -10.06489 -10.06366
  Beta  occ. eigenvalues --   -0.97537  -0.95481  -0.84066  -0.76307  -0.75569
  Beta  occ. eigenvalues --   -0.68901  -0.68230  -0.66405  -0.65494  -0.62557
  Beta  occ. eigenvalues --   -0.59855  -0.59386  -0.58992  -0.55125  -0.51769
  Beta  occ. eigenvalues --   -0.50315  -0.49500  -0.47562  -0.44317  -0.42127
  Beta  occ. eigenvalues --   -0.41111  -0.40893  -0.39756  -0.39269  -0.38055
  Beta  occ. eigenvalues --   -0.36833  -0.36074  -0.35719  -0.34427  -0.33976
  Beta  occ. eigenvalues --   -0.33605  -0.32640  -0.32525  -0.32311  -0.31307
  Beta  occ. eigenvalues --   -0.30812  -0.30308  -0.29394  -0.28217  -0.27965
  Beta  occ. eigenvalues --   -0.27883  -0.26422  -0.25712  -0.25454  -0.24423
  Beta  occ. eigenvalues --   -0.24075  -0.20521  -0.19517  -0.18669  -0.16158
  Beta  occ. eigenvalues --   -0.14520  -0.14110  -0.10521
  Beta virt. eigenvalues --    0.05916   0.06582   0.06712   0.07229   0.07361
  Beta virt. eigenvalues --    0.07766   0.08024   0.08293   0.08444   0.08844
  Beta virt. eigenvalues --    0.09465   0.09705   0.09937   0.10091   0.10604

 Mulliken charges and spin densities:
               1          2
     1  C    0.560921  -1.176922
     2  C   -0.188243   0.472274
     3  C   -1.279037  -0.068078
     4  C    0.078587   0.558969
     5  C   -0.061373   0.186021
     6  C    0.664952  -0.355407
     7  C   -0.142096  -0.126791
     8  N    0.068365  -0.025258
     9  C   -0.255815   0.329029
    10  C    0.902481  -1.587149
    11  O   -0.082847   0.010593
    12  C   -0.413640   0.025106
    13  C    0.558859  -0.515487
    14  C    1.041311  -1.289017
    15  C    0.067980  -0.302653
    16  C   -0.568053   0.649057
    17  C   -0.895961   0.509987
    18  O   -0.012790  -0.006750
    19  C    0.616082  -0.806648
    20  C   -0.295534  -0.266783
    21  H    0.063971   0.100158
    22  H   -0.011471   0.149682
    23  H   -0.046283   0.178447
    24  H    0.091138   0.028879
    25  H    0.040896   0.118498
    26  H    0.052094   0.098008
    27  H    0.357519  -0.099266
    28  H    0.257658  -0.124371
    29  H   -0.453514   0.642544
    30  H   -0.619374   0.814160
    31  H    0.018107   0.145075
    32  H   -0.357496   0.537560
    33  H   -0.408194   0.580189
    34  H   -0.317322   0.493480
    35  H    0.105016   0.067261
    36  H   -0.087164   0.291687
    37  H   -0.022053   0.138741
    38  H   -0.123980   0.276636
    39  H   -0.028968   0.164081
    40  H    0.047312   0.091457
    41  H    0.077959   0.093002
 Sum of Mulliken charges =  -1.00000   1.00000

 Dipole moment (field-independent basis, Debye):
    X=             -3.8169    Y=              1.0393    Z=              1.6059  Tot=              4.2694
 Quadrupole moment (field-independent basis, Debye-Ang):
   XX=           -188.6980   YY=           -185.0794   ZZ=           -158.5089
   XY=              2.0662   XZ=              4.5099   YZ=             -1.7033

 Summary of Natural Population Analysis:

                                       Natural Population
                Natural  -----------------------------------------------
    Atom  No    Charge         Core      Valence    Rydberg      Total
 -----------------------------------------------------------------------
      C    1   -0.29040      0.99964     2.28582    0.00495     3.29040
      C    2   -0.00815      0.99952     1.99846    0.01017     3.00815
      C    3   -0.12706      0.99947     2.11947    0.00812     3.12706
      C    4   -0.00470      0.99953     1.99734    0.00783     3.00470
      C    5   -0.13545      0.99947     2.12751    0.00847     3.13545
      C    6    0.10320      0.99950     1.88646    0.01084     2.89680
      C    7   -0.12474      0.99948     2.11704    0.00822     3.12474
      N    8   -0.31615      0.99968     2.80646    0.01001     3.81615
      C    9   -0.10512      0.99961     2.09417    0.01133     3.10512
      C   10   -0.00763      0.99954     1.99531    0.01277     3.00763
      O   11   -0.29526      0.99986     3.28387    0.01153     4.29526
      C   12    0.13090      0.99931     1.85447    0.01532     2.86910
      C   13   -0.12314      0.99951     2.11368    0.00994     3.12314
      C   14   -0.10478      0.99956     2.09496    0.01026     3.10478
      C   15   -0.10077      0.99956     2.09077    0.01044     3.10077
      C   16   -0.11190      0.99951     2.10159    0.01080     3.11190
      C   17    0.13779      0.99931     1.84774    0.01517     2.86221
      O   18   -0.28577      0.99986     3.27539    0.01052     4.28577
      C   19   -0.09923      0.99958     2.09083    0.00882     3.09923
      C   20   -0.29045      0.99964     2.28599    0.00482     3.29045
      H   21    0.10180      0.00000     0.39703    0.00116     0.39820
      H   22    0.10039      0.00000     0.39866    0.00095     0.39961
      H   23    0.10421      0.00000     0.39465    0.00115     0.39579
      H   24    0.09392      0.00000     0.40476    0.00132     0.40608
      H   25    0.10047      0.00000     0.39798    0.00154     0.39953
      H   26    0.10134      0.00000     0.39703    0.00163     0.39866
      H   27    0.18829      0.00000     0.30760    0.00411     0.31171
      H   28    0.10086      0.00000     0.39651    0.00263     0.39914
      H   29    0.09506      0.00000     0.40332    0.00162     0.40494
      H   30    0.09985      0.00000     0.39759    0.00256     0.40015
      H   31    0.08268      0.00000     0.41575    0.00157     0.41732
      H   32    0.10770      0.00000     0.39097    0.00133     0.39230
      H   33    0.10333      0.00000     0.39532    0.00135     0.39667
      H   34    0.10258      0.00000     0.39624    0.00119     0.39742
      H   35    0.10837      0.00000     0.39039    0.00124     0.39163
      H   36    0.09360      0.00000     0.40498    0.00141     0.40640
      H   37    0.08035      0.00000     0.41852    0.00113     0.41965
      H   38    0.08988      0.00000     0.40913    0.00099     0.41012
      H   39    0.09902      0.00000     0.40013    0.00085     0.40098
      H   40    0.10137      0.00000     0.39753    0.00111     0.39863
      H   41    0.10374      0.00000     0.39501    0.00124     0.39626
 =======================================================================
   * Total *    0.00000     19.99115    52.77646    0.23239    73.00000

 Normal termination of Gaussian 16 at Mon Dec 14 16:27:49 2020.
