 Gaussian 16, Revision A.03,

 -----------------------------------------------------------
 # opt freq B3LYP/6-31G(d) empiricaldispersion=gd3bj scf=xqc
 -----------------------------------------------------------

 -------------------------------
 CID_123831912_JID_7914_neutraal
 -------------------------------
 Symbolic Z-matrix:
 Charge =  0 Multiplicity = 1

 SCF Done:  E(RB3LYP) =  -743.681602074     A.U. after   15 cycles
 SCF Done:  E(RB3LYP) =  -743.685941777     A.U. after   12 cycles
 SCF Done:  E(RB3LYP) =  -743.686229458     A.U. after   12 cycles
 SCF Done:  E(RB3LYP) =  -743.686363929     A.U. after   11 cycles
 SCF Done:  E(RB3LYP) =  -743.686476977     A.U. after   11 cycles
 SCF Done:  E(RB3LYP) =  -743.686499047     A.U. after   10 cycles
 SCF Done:  E(RB3LYP) =  -743.686510297     A.U. after   10 cycles
 SCF Done:  E(RB3LYP) =  -743.686515936     A.U. after   10 cycles
 SCF Done:  E(RB3LYP) =  -743.686518848     A.U. after   10 cycles
 SCF Done:  E(RB3LYP) =  -743.686519667     A.U. after    8 cycles
 SCF Done:  E(RB3LYP) =  -743.686522236     A.U. after    9 cycles
 SCF Done:  E(RB3LYP) =  -743.686522648     A.U. after    9 cycles
 SCF Done:  E(RB3LYP) =  -743.686523000     A.U. after    8 cycles
 SCF Done:  E(RB3LYP) =  -743.686523032     A.U. after    7 cycles
 SCF Done:  E(RB3LYP) =  -743.686523064     A.U. after    6 cycles
 Optimization completed.
    -- Stationary point found.
 Normal termination of Gaussian 16 at Mon Dec 14 13:23:32 2020.

 --------------------------------------------------------------------
 #N Geom=AllCheck Guess=TCheck SCRF=Check GenChk RB3LYP/6-31G(d) Freq
 --------------------------------------------------------------------

 Structure from the checkpoint file:  "JID_7914.chk"
 -------------------------------
 CID_123831912_JID_7914_neutraal
 -------------------------------
 Charge =  0 Multiplicity = 1

 SCF Done:  E(RB3LYP) =  -743.686523064     A.U. after    1 cycles

  Exact polarizability: 179.652   4.934 144.078  -1.395  14.715 127.804
 Approx polarizability: 230.627   6.890 218.533  -1.530  35.192 210.426

                      1                      2                      3
                      A                      A                      A
 Frequencies --     17.8934                29.3659                45.1901
 Red. masses --      7.4938                 4.1384                 3.0564
 Frc consts  --      0.0014                 0.0021                 0.0037
 IR Inten    --      1.7871                 0.9004                 0.4987

                      4                      5                      6
                      A                      A                      A
 Frequencies --     58.9378                78.3703                89.3377
 Red. masses --      4.2778                 4.0528                 2.9072
 Frc consts  --      0.0088                 0.0147                 0.0137
 IR Inten    --      1.0391                 0.1305                 0.1302

                      7                      8                      9
                      A                      A                      A
 Frequencies --    100.3071               114.8391               161.6548
 Red. masses --      3.1230                 2.5803                 3.0336
 Frc consts  --      0.0185                 0.0200                 0.0467
 IR Inten    --      2.7302                 3.5898                 1.8121

                     10                     11                     12
                      A                      A                      A
 Frequencies --    189.4294               202.5798               215.8059
 Red. masses --      4.0699                 1.9910                 1.9496
 Frc consts  --      0.0860                 0.0481                 0.0535
 IR Inten    --      0.7696                 1.3180                 1.5649

                     13                     14                     15
                      A                      A                      A
 Frequencies --    260.1462               281.3687               290.8665
 Red. masses --      1.1895                 1.5737                 2.1478
 Frc consts  --      0.0474                 0.0734                 0.1071
 IR Inten    --     67.4935                 0.1262                 2.6864

                     16                     17                     18
                      A                      A                      A
 Frequencies --    309.1147               342.3653               380.9338
 Red. masses --      3.9546                 3.7458                 2.7663
 Frc consts  --      0.2226                 0.2587                 0.2365
 IR Inten    --      1.7292                 6.4811                 0.3396

                     19                     20                     21
                      A                      A                      A
 Frequencies --    409.1297               444.7836               461.2820
 Red. masses --      2.0629                 1.8862                 2.2436
 Frc consts  --      0.2034                 0.2199                 0.2813
 IR Inten    --      1.6363                 4.3554                 0.3306

                     22                     23                     24
                      A                      A                      A
 Frequencies --    474.1360               556.0871               576.7040
 Red. masses --      2.6941                 1.7896                 3.2781
 Frc consts  --      0.3568                 0.3260                 0.6424
 IR Inten    --      0.4608                48.7376                14.3560

                     25                     26                     27
                      A                      A                      A
 Frequencies --    607.2992               668.3391               691.4886
 Red. masses --      3.3287                 3.3100                 4.3794
 Frc consts  --      0.7233                 0.8711                 1.2338
 IR Inten    --      4.2151                 1.4001                 7.4588

                     28                     29                     30
                      A                      A                      A
 Frequencies --    735.2579               770.0281               810.3920
 Red. masses --      2.6909                 1.2090                 5.1655
 Frc consts  --      0.8571                 0.4224                 1.9987
 IR Inten    --     35.9984                 0.4808                 2.5347

                     31                     32                     33
                      A                      A                      A
 Frequencies --    820.4611               841.4836               850.5433
 Red. masses --      2.0108                 2.2914                 1.2913
 Frc consts  --      0.7975                 0.9560                 0.5504
 IR Inten    --      0.8236                 7.8255                11.4042

                     34                     35                     36
                      A                      A                      A
 Frequencies --    876.1730               878.3287               902.9418
 Red. masses --      1.9532                 2.0928                 1.9101
 Frc consts  --      0.8835                 0.9513                 0.9175
 IR Inten    --     38.1364                20.5682                41.4535

                     37                     38                     39
                      A                      A                      A
 Frequencies --    919.0031               941.3058               988.8299
 Red. masses --      1.6630                 1.4612                 1.7729
 Frc consts  --      0.8275                 0.7628                 1.0213
 IR Inten    --     21.4605                 1.6183                12.8367

                     40                     41                     42
                      A                      A                      A
 Frequencies --    995.6572              1004.2902              1031.6961
 Red. masses --      1.9243                 2.1589                 5.9330
 Frc consts  --      1.1240                 1.2829                 3.7207
 IR Inten    --      3.3822                 0.7400                 8.3940

                     43                     44                     45
                      A                      A                      A
 Frequencies --   1053.0220              1058.6248              1065.5624
 Red. masses --      2.2851                 2.6059                 2.9635
 Frc consts  --      1.4929                 1.7207                 1.9825
 IR Inten    --      3.7047                10.4831                 9.4903

                     46                     47                     48
                      A                      A                      A
 Frequencies --   1076.3662              1090.6439              1100.8871
 Red. masses --      2.6326                 2.2435                 2.1639
 Frc consts  --      1.7970                 1.5724                 1.5452
 IR Inten    --      8.4570                 3.0709                 4.5518

                     49                     50                     51
                      A                      A                      A
 Frequencies --   1112.2089              1123.9309              1128.9856
 Red. masses --      1.7854                 4.2796                 1.9295
 Frc consts  --      1.3013                 3.1852                 1.4490
 IR Inten    --      1.7408                 5.6971                 5.5221

                     52                     53                     54
                      A                      A                      A
 Frequencies --   1136.4203              1160.3283              1180.3561
 Red. masses --      1.9848                 1.5966                 1.2807
 Frc consts  --      1.5102                 1.2665                 1.0513
 IR Inten    --      7.3553                 3.3510                 3.8627

                     55                     56                     57
                      A                      A                      A
 Frequencies --   1191.4116              1194.7711              1214.9768
 Red. masses --      2.5061                 1.8075                 1.6301
 Frc consts  --      2.0959                 1.5202                 1.4177
 IR Inten    --      8.2326                19.5060                 0.6727

                     58                     59                     60
                      A                      A                      A
 Frequencies --   1241.2091              1272.8942              1278.2242
 Red. masses --      1.5260                 1.4267                 4.8772
 Frc consts  --      1.3851                 1.3619                 4.6950
 IR Inten    --      7.7451                 3.0717                 4.6909

                     61                     62                     63
                      A                      A                      A
 Frequencies --   1296.5172              1306.3176              1308.4422
 Red. masses --      1.4878                 1.2153                 1.3518
 Frc consts  --      1.4735                 1.2218                 1.3635
 IR Inten    --      0.3687                 2.2270                 5.1929

                     64                     65                     66
                      A                      A                      A
 Frequencies --   1323.7709              1324.3312              1358.9049
 Red. masses --      1.6234                 1.4383                 1.4020
 Frc consts  --      1.6761                 1.4863                 1.5254
 IR Inten    --     19.5189                 1.5716                 2.9832

                     67                     68                     69
                      A                      A                      A
 Frequencies --   1362.1747              1368.4081              1383.6669
 Red. masses --      1.5499                 1.3127                 1.3444
 Frc consts  --      1.6944                 1.4483                 1.5165
 IR Inten    --     10.6521                 3.0450                 4.9157

                     70                     71                     72
                      A                      A                      A
 Frequencies --   1386.5088              1405.6376              1413.2567
 Red. masses --      1.5724                 1.4036                 1.7907
 Frc consts  --      1.7810                 1.6339                 2.1072
 IR Inten    --      1.6700                 7.6995                 2.1745

                     73                     74                     75
                      A                      A                      A
 Frequencies --   1430.5692              1440.1723              1452.4056
 Red. masses --      1.5425                 1.3381                 1.4612
 Frc consts  --      1.8599                 1.6352                 1.8161
 IR Inten    --      0.7697                 4.5725                 9.4485

                     76                     77                     78
                      A                      A                      A
 Frequencies --   1486.4624              1506.7112              1512.3647
 Red. masses --      2.0866                 1.0793                 1.2180
 Frc consts  --      2.7164                 1.4437                 1.6414
 IR Inten    --      9.3200                 1.1295                 8.9167

                     79                     80                     81
                      A                      A                      A
 Frequencies --   1516.8726              1517.0011              1527.6092
 Red. masses --      1.0875                 1.0898                 1.0414
 Frc consts  --      1.4743                 1.4776                 1.4319
 IR Inten    --      3.5292                 0.3783                 6.5530

                     82                     83                     84
                      A                      A                      A
 Frequencies --   1527.8341              1533.1511              1538.9731
 Red. masses --      1.0988                 1.0906                 1.0559
 Frc consts  --      1.5112                 1.5104                 1.4734
 IR Inten    --      2.0725                 0.8322                 3.7083

                     85                     86                     87
                      A                      A                      A
 Frequencies --   1548.6436              1701.2067              1732.6228
 Red. masses --      4.6399                 1.0869                 6.6150
 Frc consts  --      6.5563                 1.8534                11.7001
 IR Inten    --     23.9181                34.4161                 1.6880

                     88                     89                     90
                      A                      A                      A
 Frequencies --   2970.5252              2993.1575              2997.7947
 Red. masses --      1.0712                 1.0701                 1.0703
 Frc consts  --      5.5692                 5.6485                 5.6672
 IR Inten    --     58.4807                24.7752                42.5698

                     91                     92                     93
                      A                      A                      A
 Frequencies --   3007.0582              3025.3233              3026.5850
 Red. masses --      1.0612                 1.0996                 1.0597
 Frc consts  --      5.6538                 5.9296                 5.7193
 IR Inten    --     42.8301                19.7996                31.1306

                     94                     95                     96
                      A                      A                      A
 Frequencies --   3047.9380              3050.4620              3051.8537
 Red. masses --      1.0897                 1.0857                 1.0351
 Frc consts  --      5.9643                 5.9522                 5.6803
 IR Inten    --     25.0427                 6.3004                25.9591

                     97                     98                     99
                      A                      A                      A
 Frequencies --   3058.4745              3064.4995              3069.6695
 Red. masses --      1.0888                 1.0949                 1.0857
 Frc consts  --      6.0006                 6.0583                 6.0276
 IR Inten    --     30.1331                21.3088                20.1132

                    100                    101                    102
                      A                      A                      A
 Frequencies --   3080.6175              3087.0961              3118.4624
 Red. masses --      1.0699                 1.0886                 1.1026
 Frc consts  --      5.9823                 6.1125                 6.3175
 IR Inten    --     46.2717                58.9670                35.3465

                    103                    104                    105
                      A                      A                      A
 Frequencies --   3121.0767              3123.9159              3203.4953
 Red. masses --      1.1027                 1.1024                 1.0927
 Frc consts  --      6.3285                 6.3383                 6.6068
 IR Inten    --     40.6347                14.2652                25.6067

                    106                    107                    108
                      A                      A                      A
 Frequencies --   3474.3133              3555.3960              3648.8870
 Red. masses --      1.0501                 1.0919                 1.0832
 Frc consts  --      7.4685                 8.1325                 8.4971
 IR Inten    --      1.9458                 0.7136               104.2496

 - Thermochemistry -
 -------------------
 Temperature   298.150 Kelvin.  Pressure   1.00000 Atm.
 Atom     1 has atomic number  6 and mass  12.00000

 Molecular mass:   235.17970 amu.
 Principal axes and moments of inertia in atomic units:
                           1         2         3
     Eigenvalues --  2519.949457854.684769412.82445
           X            0.99971   0.02423  -0.00077
           Y           -0.02423   0.99971  -0.00115
           Z            0.00074   0.00116   1.00000
 This molecule is an asymmetric top.
 Rotational symmetry number  1.
 Warning -- assumption of classical behavior for rotation
           may cause significant error
 Rotational temperatures (Kelvin)      0.03437     0.01103     0.00920
 Rotational constants (GHZ):           0.71618     0.22977     0.19173
 Zero-point vibrational energy     879806.2 (Joules/Mol)
                                  210.27873 (Kcal/Mol)
 Warning -- explicit consideration of  25 degrees of freedom as
           vibrations may cause significant error
 Vibrational temperatures:     25.74    42.25    65.02    84.80   112.76
          (Kelvin)            128.54   144.32   165.23   232.59   272.55
                              291.47   310.50   374.29   404.83   418.49
                              444.75   492.59   548.08   588.65   639.94
                              663.68   682.18   800.09   829.75   873.77
                              961.59   994.90  1057.87  1107.90  1165.97
                             1180.46  1210.71  1223.74  1260.62  1263.72
                             1299.13  1322.24  1354.33  1422.71  1432.53
                             1444.95  1484.38  1515.06  1523.12  1533.11
                             1548.65  1569.19  1583.93  1600.22  1617.09
                             1624.36  1635.06  1669.45  1698.27  1714.18
                             1719.01  1748.08  1785.82  1831.41  1839.08
                             1865.40  1879.50  1882.56  1904.61  1905.42
                             1955.16  1959.87  1968.83  1990.79  1994.88
                             2022.40  2033.36  2058.27  2072.09  2089.69
                             2138.69  2167.82  2175.96  2182.44  2182.63
                             2197.89  2198.21  2205.86  2214.24  2228.15
                             2447.66  2492.86  4273.92  4306.49  4313.16
                             4326.49  4352.77  4354.58  4385.30  4388.93
                             4390.94  4400.46  4409.13  4416.57  4432.32
                             4441.64  4486.77  4490.53  4494.62  4609.12
                             4998.76  5115.42  5249.93

 Zero-point correction=                           0.335100 (Hartree/Particle)
 Thermal correction to Energy=                    0.352363
 Thermal correction to Enthalpy=                  0.353307
 Thermal correction to Gibbs Free Energy=         0.287507
 Sum of electronic and zero-point Energies=           -743.351423
 Sum of electronic and thermal Energies=              -743.334160
 Sum of electronic and thermal Enthalpies=            -743.333216
 Sum of electronic and thermal Free Energies=         -743.399016

                     E (Thermal)             CV                S
                      KCal/Mol        Cal/Mol-Kelvin    Cal/Mol-Kelvin
 Total                  221.111             64.221            138.488
 Electronic               0.000              0.000              0.000
 Translational            0.889              2.981             42.267
 Rotational               0.889              2.981             33.588
 Vibrational            219.334             58.259             62.633
 Vibration     1          0.593              1.986              6.855
 Vibration     2          0.593              1.984              5.872
 Vibration     3          0.595              1.979              5.018
 Vibration     4          0.596              1.974              4.492
 Vibration     5          0.600              1.964              3.931
 Vibration     6          0.602              1.957              3.675
 Vibration     7          0.604              1.949              3.448
 Vibration     8          0.608              1.937              3.185
 Vibration     9          0.622              1.889              2.530
 Vibration    10          0.633              1.854              2.233
 Vibration    11          0.639              1.836              2.110
 Vibration    12          0.645              1.817              1.994
 Vibration    13          0.668              1.746              1.661
 Vibration    14          0.681              1.708              1.525
 Vibration    15          0.687              1.691              1.469
 Vibration    16          0.698              1.656              1.367
 Vibration    17          0.721              1.591              1.201
 Vibration    18          0.751              1.511              1.035
 Vibration    19          0.773              1.450              0.930
 Vibration    20          0.804              1.372              0.812
 Vibration    21          0.819              1.336              0.762
 Vibration    22          0.831              1.307              0.726
 Vibration    23          0.912              1.126              0.532
 Vibration    24          0.933              1.082              0.492
 Vibration    25          0.966              1.016              0.437

 Optimization completed.
    -- Stationary point found.
 Normal termination of Gaussian 16 at Mon Dec 14 13:37:26 2020.

 ----------------------------------------------------------------------
 # B3LYP/6-311++G(d,p) empiricaldispersion=gd3bj scf=xqc pop=npa geom=c
 heck
 ----------------------------------------------------------------------

 ---------------------------------------
 CID_123831912_JID_7914_Energie_neutraal
 ---------------------------------------
 Structure from the checkpoint file:  "JID_7914.chk"
 Charge =  0 Multiplicity = 1

 SCF Done:  E(RB3LYP) =  -743.896217152     A.U. after   15 cycles
 Normal termination of Gaussian 16 at Mon Dec 14 13:44:58 2020.

 ----------------------------------------------------------------------
 # B3LYP/6-311++G(d,p) empiricaldispersion=gd3bj scf=xqc pop=npa geom=c
 heck
 ----------------------------------------------------------------------

 -------------------------------------
 CID_123831912_JID_7914_Energie_kation
 -------------------------------------
 Structure from the checkpoint file:  "JID_7914.chk"
 Charge =  1 Multiplicity = 2

 SCF Done:  E(UB3LYP) =  -743.601361836     A.U. after   26 cycles
 Normal termination of Gaussian 16 at Mon Dec 14 14:03:49 2020.
 Gaussian 16:  ES64L-G16RevA.03 25-Dec-2016

 ----------------------------------------------------------------------
 # B3LYP/6-311++G(d,p) empiricaldispersion=gd3bj scf=xqc pop=npa geom=c
 heck
 ----------------------------------------------------------------------

 ------------------------------------
 CID_123831912_JID_7914_Energie_anion
 ------------------------------------
 Structure from the checkpoint file:  "JID_7914.chk"
 Charge = -1 Multiplicity = 2

                         Standard orientation:
 ---------------------------------------------------------------------
 Center     Atomic      Atomic             Coordinates (Angstroms)
 Number     Number       Type             X           Y           Z
 ---------------------------------------------------------------------
      1          6           0       -5.808844   -0.726728    0.121800
      2          6           0       -4.560839   -0.894541   -0.746378
      3          6           0       -3.314510   -0.263150   -0.198407
      4          6           0       -3.165214    0.429504    0.937533
      5          6           0       -1.759139    0.949763    1.114187
      6          6           0       -0.950114    0.142859    0.064301
      7          6           0       -2.009635   -0.313216   -0.968349
      8          6           0        0.229631    0.892780   -0.555802
      9          6           0        1.285097    1.397508    0.442167
     10          6           0        1.861973    0.273825    1.340444
     11          6           0        2.503136   -0.849069    0.592984
     12          7           0        3.807967   -0.927036    0.323197
     13          7           0        3.861495   -2.065142   -0.365112
     14          7           0        2.694022   -2.677337   -0.525957
     15          7           0        1.818280   -1.912667    0.078700
     16          6           0        2.416944    2.154712   -0.267973
     17          7           0        1.908366    3.347912   -0.957041
     18          1           0       -5.658328   -1.165018    1.114652
     19          1           0       -6.673611   -1.217890   -0.336586
     20          1           0       -6.054384    0.332310    0.258235
     21          1           0       -4.367624   -1.965541   -0.913220
     22          1           0       -4.751217   -0.483726   -1.750360
     23          1           0       -3.960035    0.642942    1.646101
     24          1           0       -1.373939    0.817051    2.133887
     25          1           0       -1.713820    2.031724    0.908149
     26          1           0       -0.577268   -0.764601    0.550946
     27          1           0       -2.053497    0.371725   -1.831421
     28          1           0       -1.787338   -1.308205   -1.375121
     29          1           0        0.712778    0.244858   -1.300803
     30          1           0       -0.166793    1.761338   -1.098430
     31          1           0        0.800859    2.115616    1.115914
     32          1           0        2.607686    0.705148    2.016328
     33          1           0        1.063374   -0.144375    1.959433
     34          1           0        4.726131   -2.447996   -0.723926
     35          1           0        3.138245    2.493139    0.485841
     36          1           0        2.961398    1.457460   -0.928778
     37          1           0        2.692934    3.926045   -1.252391
     38          1           0        1.432612    3.072413   -1.813990
 ---------------------------------------------------------------------

 SCF Done:  E(UB3LYP) =  -743.885248772     A.U. after   33 cycles
 SCF Done:  E(UB3LYP) =  -743.886660470     a.u. after    8 cycles

 The electronic state is 2-A.
 Alpha  occ. eigenvalues --  -14.32393 -14.28260 -14.25491 -14.24080 -14.20167
 Alpha  occ. eigenvalues --  -10.13439 -10.09625 -10.09037 -10.08982 -10.08372
 Alpha  occ. eigenvalues --  -10.08319 -10.07919 -10.07747 -10.07647 -10.07494
 Alpha  occ. eigenvalues --  -10.07172 -10.06859  -1.04400  -0.84560  -0.79576
 Alpha  occ. eigenvalues --   -0.78591  -0.76295  -0.71218  -0.68771  -0.63963
 Alpha  occ. eigenvalues --   -0.61711  -0.60355  -0.57783  -0.56028  -0.53726
 Alpha  occ. eigenvalues --   -0.52491  -0.48569  -0.47024  -0.44775  -0.42272
 Alpha  occ. eigenvalues --   -0.40842  -0.40209  -0.39454  -0.38223  -0.37103
 Alpha  occ. eigenvalues --   -0.36461  -0.34895  -0.33802  -0.32006  -0.31669
 Alpha  occ. eigenvalues --   -0.31098  -0.30976  -0.30119  -0.28247  -0.27369
 Alpha  occ. eigenvalues --   -0.27157  -0.26361  -0.26165  -0.25491  -0.25010
 Alpha  occ. eigenvalues --   -0.23107  -0.22909  -0.22321  -0.21932  -0.21417
 Alpha  occ. eigenvalues --   -0.19334  -0.18932  -0.15257  -0.14812   0.04005
 Alpha virt. eigenvalues --    0.05071   0.06038   0.06450   0.07002   0.07545
 Alpha virt. eigenvalues --    0.07752   0.08257   0.09379   0.09764   0.10240
 Alpha virt. eigenvalues --    0.10586   0.10856   0.11186   0.11619   0.11878

  Beta  occ. eigenvalues --  -14.32241 -14.28118 -14.25399 -14.24073 -14.20137
  Beta  occ. eigenvalues --  -10.13449 -10.09615 -10.09034 -10.08972 -10.08372
  Beta  occ. eigenvalues --  -10.08319 -10.07897 -10.07744 -10.07645 -10.07489
  Beta  occ. eigenvalues --  -10.07166 -10.06847  -1.04223  -0.84374  -0.79511
  Beta  occ. eigenvalues --   -0.78453  -0.76286  -0.71185  -0.68746  -0.63938
  Beta  occ. eigenvalues --   -0.61696  -0.60297  -0.57580  -0.55983  -0.53689
  Beta  occ. eigenvalues --   -0.52431  -0.48525  -0.46937  -0.44701  -0.42252
  Beta  occ. eigenvalues --   -0.40713  -0.40096  -0.39387  -0.38079  -0.37043
  Beta  occ. eigenvalues --   -0.36409  -0.34861  -0.33772  -0.31975  -0.31639
  Beta  occ. eigenvalues --   -0.31071  -0.30967  -0.30053  -0.28193  -0.27323
  Beta  occ. eigenvalues --   -0.27141  -0.26333  -0.26140  -0.25470  -0.24994
  Beta  occ. eigenvalues --   -0.23068  -0.22781  -0.21987  -0.21776  -0.21372
  Beta  occ. eigenvalues --   -0.19242  -0.18587  -0.15210  -0.14804
  Beta virt. eigenvalues --    0.05580   0.06384   0.07037   0.07464   0.07673
  Beta virt. eigenvalues --    0.07728   0.08046   0.08346   0.09629   0.09841
  Beta virt. eigenvalues --    0.10308   0.10632   0.10947   0.11139   0.11638

 Mulliken charges and spin densities:
               1          2
     1  C    0.098918  -0.703992
     2  C   -0.608954   0.411708
     3  C    1.061328  -0.127600
     4  C   -0.198604  -0.002954
     5  C   -0.178371  -0.882018
     6  C    1.130338   0.013090
     7  C   -1.818204   0.037974
     8  C   -0.620022  -0.240221
     9  C    0.391481   0.540096
    10  C    0.235635  -0.417604
    11  C   -0.674860  -0.183667
    12  N    0.082617  -0.037741
    13  N    0.100418  -0.103729
    14  N    0.174735   0.059264
    15  N   -0.226421  -0.034724
    16  C    0.094379  -0.800140
    17  N   -0.335167  -0.051868
    18  H    0.055575   0.082517
    19  H   -0.398143   0.553498
    20  H    0.012753   0.127518
    21  H    0.108555   0.056070
    22  H    0.040544   0.106740
    23  H    0.047977   0.125095
    24  H    0.094315   0.030007
    25  H    0.088949   0.075458
    26  H    0.166119   0.001936
    27  H    0.059735   0.125388
    28  H    0.147593   0.022552
    29  H    0.068706   0.095992
    30  H    0.046759   0.077939
    31  H    0.178914   0.038621
    32  H    0.079175   0.122047
    33  H    0.212563  -0.020256
    34  H   -0.626386   0.992856
    35  H    0.009510   0.149189
    36  H   -0.097014   0.279102
    37  H   -0.037404   0.283436
    38  H    0.031958   0.198420
 Sum of Mulliken charges =  -1.00000   1.00000

 Dipole moment (field-independent basis, Debye):
    X=             -4.3816    Y=              2.0872    Z=              3.2005  Tot=              5.8136
 Quadrupole moment (field-independent basis, Debye-Ang):
   XX=           -222.5115   YY=           -160.0206   ZZ=           -128.0660
   XY=              8.9523   XZ=              8.9373   YZ=             -1.2440

 Summary of Natural Population Analysis:

                                       Natural Population
                Natural  -----------------------------------------------
    Atom  No    Charge         Core      Valence    Rydberg      Total
 -----------------------------------------------------------------------
      C    1   -0.28369      0.99967     2.27953    0.00449     3.28369
      C    2   -0.20339      0.99959     2.19543    0.00838     3.20339
      C    3   -0.00004      0.99949     1.99145    0.00910     3.00004
      C    4   -0.10511      0.99945     2.09772    0.00795     3.10511
      C    5   -0.20138      0.99962     2.19449    0.00726     3.20138
      C    6   -0.11005      0.99960     2.10128    0.00917     3.11005
      C    7   -0.19469      0.99959     2.18791    0.00719     3.19469
      C    8   -0.19193      0.99959     2.18249    0.00985     3.19193
      C    9   -0.10657      0.99958     2.09658    0.01040     3.10657
      C   10   -0.21027      0.99957     2.20244    0.00826     3.21027
      C   11    0.15258      0.99965     1.82790    0.01987     2.84742
      N   12   -0.13942      0.99969     2.62655    0.01318     3.63942
      N   13   -0.06079      0.99975     2.54441    0.01663     3.56079
      N   14   -0.01606      0.99979     2.49920    0.01707     3.51606
      N   15   -0.16216      0.99971     2.64897    0.01348     3.66216
      C   16   -0.08805      0.99960     2.07678    0.01167     3.08805
      N   17   -0.42326      0.99977     2.91347    0.01002     3.92326
      H   18    0.09684      0.00000     0.40169    0.00147     0.40316
      H   19    0.09941      0.00000     0.39947    0.00113     0.40059
      H   20    0.09698      0.00000     0.40144    0.00158     0.40302
      H   21    0.10075      0.00000     0.39788    0.00137     0.39925
      H   22    0.10070      0.00000     0.39789    0.00141     0.39930
      H   23    0.09706      0.00000     0.40195    0.00099     0.40294
      H   24    0.09742      0.00000     0.40138    0.00120     0.40258
      H   25    0.09825      0.00000     0.40041    0.00133     0.40175
      H   26    0.10514      0.00000     0.39256    0.00230     0.39486
      H   27    0.09733      0.00000     0.40135    0.00131     0.40267
      H   28    0.10300      0.00000     0.39578    0.00123     0.39700
      H   29    0.10307      0.00000     0.39561    0.00132     0.39693
      H   30    0.09794      0.00000     0.40066    0.00140     0.40206
      H   31    0.09887      0.00000     0.39931    0.00182     0.40113
      H   32    0.10941      0.00000     0.38953    0.00106     0.39059
      H   33    0.10938      0.00000     0.38958    0.00104     0.39062
      H   34    0.20853      0.00000     0.26844    0.02303     0.29147
      H   35    0.09023      0.00000     0.40864    0.00113     0.40977
      H   36    0.08506      0.00000     0.41295    0.00199     0.41494
      H   37    0.17578      0.00000     0.32251    0.00171     0.32422
      H   38    0.17311      0.00000     0.32510    0.00179     0.32689
 =======================================================================
   * Total *   -0.00000     16.99372    46.77070    0.23558    64.00000

 Normal termination of Gaussian 16 at Mon Dec 14 16:46:38 2020.
