 Gaussian 16, Revision A.03,

 ----------------------------------------------------------------------
 # opt=(cartesian,calcfc,maxcycle=500) freq B3LYP/6-31G(d) empiricaldis
 persion=gd3bj scf=xqc
 ----------------------------------------------------------------------

 -------------------------------
 CID_151981385_JID_1939_neutraal
 -------------------------------
 Symbolic Z-matrix:
 Charge =  0 Multiplicity = 1

 SCF Done:  E(RB3LYP) =  -562.225242692     A.U. after   18 cycles
 SCF Done:  E(RB3LYP) =  -562.226705220     A.U. after   16 cycles
 SCF Done:  E(RB3LYP) =  -562.228747653     A.U. after   16 cycles
 SCF Done:  E(RB3LYP) =  -562.235297992     A.U. after   16 cycles
 SCF Done:  E(RB3LYP) =  -562.242582258     A.U. after   17 cycles
 SCF Done:  E(RB3LYP) =  -562.251765311     A.U. after   18 cycles
 SCF Done:  E(RB3LYP) =  -562.292045251     A.U. after   17 cycles
 SCF Done:  E(RB3LYP) =  -562.314162936     A.U. after   17 cycles
 SCF Done:  E(RB3LYP) =  -562.100379437     A.U. after   21 cycles
 SCF Done:  E(RB3LYP) =  -562.313769249     A.U. after   16 cycles
 SCF Done:  E(RB3LYP) =  -562.340566550     A.U. after   12 cycles
 SCF Done:  E(RB3LYP) =  -562.340566902     A.U. after    8 cycles
 SCF Done:  E(RB3LYP) =  -562.340566891     A.U. after   10 cycles
 SCF Done:  E(RB3LYP) =  -562.340567091     A.U. after   10 cycles
 SCF Done:  E(RB3LYP) =  -562.340567176     A.U. after   11 cycles
 SCF Done:  E(RB3LYP) =  -562.340567315     A.U. after   10 cycles
 Optimization completed.
    -- Stationary point found.
 Normal termination of Gaussian 16 at Sat Feb 27 18:36:42 2021.

 --------------------------------------------------------------------
 #N Geom=AllCheck Guess=TCheck SCRF=Check GenChk RB3LYP/6-31G(d) Freq
 --------------------------------------------------------------------

 Structure from the checkpoint file:  "JID_1939.chk"
 -------------------------------
 CID_151981385_JID_1939_neutraal
 -------------------------------
 Charge =  0 Multiplicity = 1

 SCF Done:  E(RB3LYP) =  -562.340567315     A.U. after    1 cycles

  Exact polarizability: 113.710  22.985  68.364 -12.111  20.446  58.909
 Approx polarizability: 207.641  51.514 122.681 -23.518  44.937 106.573

 ******    1 imaginary frequencies (negative Signs) ******

                      1                      2                      3
                      A                      A                      A
 Frequencies --    -16.5723                 6.5123                22.8078
 Red. masses --      8.1956                13.2729                 8.1797
 Frc consts  --      0.0013                 0.0003                 0.0025
 IR Inten    --      3.4022                 0.2789                 0.9571

                      4                      5                      6
                      A                      A                      A
 Frequencies --     43.0450                77.3501               102.2903
 Red. masses --     13.0283                11.3733                 9.5808
 Frc consts  --      0.0142                 0.0401                 0.0591
 IR Inten    --      0.5046                 1.3478                 0.2928

                      7                      8                      9
                      A                      A                      A
 Frequencies --    174.9140               248.4280               350.3057
 Red. masses --      8.1054                 8.6246                 5.7801
 Frc consts  --      0.1461                 0.3136                 0.4179
 IR Inten    --      0.0432                 3.5921                 0.1644

                     10                     11                     12
                      A                      A                      A
 Frequencies --    396.0512               404.7141               443.8745
 Red. masses --      6.2314                 1.1214                 3.5733
 Frc consts  --      0.5759                 0.1082                 0.4148
 IR Inten    --     10.5824               109.1310                15.2086

                     13                     14                     15
                      A                      A                      A
 Frequencies --    456.7245               527.1486               618.5942
 Red. masses --      6.0428                 3.2438                 8.7041
 Frc consts  --      0.7427                 0.5311                 1.9624
 IR Inten    --      0.9963                 0.0388                15.5548

                     16                     17                     18
                      A                      A                      A
 Frequencies --    673.1766               752.5054               786.9463
 Red. masses --      8.7876                 5.3251                 6.9384
 Frc consts  --      2.3463                 1.7766                 2.5316
 IR Inten    --      8.5897                 2.0744                19.6938

                     19                     20                     21
                      A                      A                      A
 Frequencies --    848.8810               880.1381               932.0790
 Red. masses --      1.4749                 7.8187                 1.4006
 Frc consts  --      0.6262                 3.5685                 0.7169
 IR Inten    --     38.4205                32.3614                 7.0455

                     22                     23                     24
                      A                      A                      A
 Frequencies --    984.0877              1030.1776              1125.0465
 Red. masses --      1.3057                 2.7555                 1.6202
 Frc consts  --      0.7450                 1.7230                 1.2083
 IR Inten    --      0.2966                10.7755               199.2184

                     25                     26                     27
                      A                      A                      A
 Frequencies --   1189.5091              1219.1499              1319.3469
 Red. masses --      1.7569                 1.9278                 1.5251
 Frc consts  --      1.4646                 1.6882                 1.5641
 IR Inten    --    190.8216                18.1083                19.6407

                     28                     29                     30
                      A                      A                      A
 Frequencies --   1331.7175              1378.9116              1475.5792
 Red. masses --      2.6112                 6.0890                 2.9694
 Frc consts  --      2.7284                 6.8213                 3.8094
 IR Inten    --    107.8724                58.7944                34.6191

                     31                     32                     33
                      A                      A                      A
 Frequencies --   1511.4214              1598.2207              1637.0426
 Red. masses --      3.1967                 6.7763                 6.6838
 Frc consts  --      4.3025                10.1980                10.5534
 IR Inten    --     18.9220               245.0599                90.4765

                     34                     35                     36
                      A                      A                      A
 Frequencies --   1657.5352              2458.0965              3178.7024
 Red. masses --      7.7127                14.0031                 1.0910
 Frc consts  --     12.4848                49.8507                 6.4950
 IR Inten    --      1.1964                 0.2140                14.7261

                     37                     38                     39
                      A                      A                      A
 Frequencies --   3195.5657              3237.8084              3739.2401
 Red. masses --      1.0913                 1.0920                 1.0661
 Frc consts  --      6.5659                 6.7452                 8.7827
 IR Inten    --     12.1991                 1.4426                70.1371

 - Thermochemistry -
 -------------------
 Temperature   298.150 Kelvin.  Pressure   1.00000 Atm.
 Atom     1 has atomic number  8 and mass  15.99491

 Molecular mass:   152.03343 amu.
 Principal axes and moments of inertia in atomic units:
                           1         2         3
     Eigenvalues --  1205.089212285.777122988.47470
           X            0.99997   0.00205  -0.00790
           Y           -0.00177   0.99939   0.03492
           Z            0.00797  -0.03490   0.99936
 This molecule is an asymmetric top.
 Rotational symmetry number  1.
 Warning -- assumption of classical behavior for rotation
           may cause significant error
 Rotational temperatures (Kelvin)      0.07187     0.03789     0.02898
 Rotational constants (GHZ):           1.49760     0.78955     0.60390
    1 imaginary frequencies ignored.
 Zero-point vibrational energy     251297.4 (Joules/Mol)
                                   60.06152 (Kcal/Mol)
 Warning -- explicit consideration of  14 degrees of freedom as
           vibrations may cause significant error
 Vibrational temperatures:      9.37    32.82    61.93   111.29   147.17
          (Kelvin)            251.66   357.43   504.01   569.83   582.29
                              638.64   657.12   758.45   890.02   968.55
                             1082.69  1132.24  1221.35  1266.32  1341.05
                             1415.88  1482.20  1618.69  1711.44  1754.08
                             1898.25  1916.04  1983.95  2123.03  2174.60
                             2299.48  2355.34  2384.82  3536.65  4573.44
                             4597.71  4658.48  5379.93

 Zero-point correction=                           0.095714 (Hartree/Particle)
 Thermal correction to Energy=                    0.106324
 Thermal correction to Enthalpy=                  0.107268
 Thermal correction to Gibbs Free Energy=         0.054684
 Sum of electronic and zero-point Energies=           -562.244853
 Sum of electronic and thermal Energies=              -562.234243
 Sum of electronic and thermal Enthalpies=            -562.233299
 Sum of electronic and thermal Free Energies=         -562.285883

                     E (Thermal)             CV                S
                      KCal/Mol        Cal/Mol-Kelvin    Cal/Mol-Kelvin
 Total                   66.719             34.813            110.672
 Electronic               0.000              0.000              0.000
 Translational            0.889              2.981             40.967
 Rotational               0.889              2.981             30.488
 Vibrational             64.942             28.851             39.217
 Vibration     1          0.593              1.987              8.863
 Vibration     2          0.593              1.985              6.373
 Vibration     3          0.595              1.980              5.114
 Vibration     4          0.599              1.964              3.957
 Vibration     5          0.604              1.947              3.410
 Vibration     6          0.627              1.873              2.382
 Vibration     7          0.662              1.765              1.742
 Vibration     8          0.727              1.575              1.165
 Vibration     9          0.763              1.479              0.977
 Vibration    10          0.770              1.460              0.945
 Vibration    11          0.803              1.374              0.815
 Vibration    12          0.815              1.346              0.776
 Vibration    13          0.882              1.190              0.594
 Vibration    14          0.978              0.993              0.419

 Normal termination of Gaussian 16 at Sat Feb 27 18:39:04 2021.

 ----------------------------------------------------------------------
 # B3LYP/6-311++G(d,p) empiricaldispersion=gd3bj scf=xqc pop=npa geom=c
 heck
 ----------------------------------------------------------------------

 ---------------------------------------
 CID_151981385_JID_1939_Energie_neutraal
 ---------------------------------------
 Structure from the checkpoint file:  "JID_1939.chk"
 Charge =  0 Multiplicity = 1

 SCF Done:  E(RB3LYP) =  -562.509068993     A.U. after   17 cycles
 Normal termination of Gaussian 16 at Sat Feb 27 18:39:51 2021.

 ----------------------------------------------------------------------
 # B3LYP/6-311++G(d,p) empiricaldispersion=gd3bj scf=xqc pop=npa geom=c
 heck
 ----------------------------------------------------------------------

 -------------------------------------
 CID_151981385_JID_1939_Energie_kation
 -------------------------------------
 Structure from the checkpoint file:  "JID_1939.chk"
 Charge =  1 Multiplicity = 2

 SCF Done:  E(UB3LYP) =  -562.195177495     A.U. after   24 cycles
 Normal termination of Gaussian 16 at Sat Feb 27 18:41:23 2021.
 Gaussian 16:  ES64L-G16RevA.03 25-Dec-2016

 ----------------------------------------------------------------------
 # B3LYP/6-311++G(d,p) empiricaldispersion=gd3bj scf=xqc pop=npa geom=c
 heck
 ----------------------------------------------------------------------

 ------------------------------------
 CID_151981385_JID_1939_Energie_anion
 ------------------------------------
 Structure from the checkpoint file:  "JID_1939.chk"
 Charge = -1 Multiplicity = 2

                         Standard orientation:
 ---------------------------------------------------------------------
 Center     Atomic      Atomic             Coordinates (Angstroms)
 Number     Number       Type             X           Y           Z
 ---------------------------------------------------------------------
      1          8           0       -3.316639   -0.677932    0.102575
      2          8           0        2.261435    1.985598    0.055671
      3          7           0        0.036469   -0.306111   -1.135334
      4          7           0        1.849255    1.063800   -0.634357
      5          7           0        1.914158   -1.879186    1.011185
      6          7           0        2.500568   -2.358762    0.206291
      7          6           0        0.477415    0.698817   -0.367052
      8          6           0       -0.297988    1.327924    0.612936
      9          6           0       -1.598628    0.889042    0.804709
     10          6           0       -2.069446   -0.161123    0.007367
     11          6           0       -1.207313   -0.724831   -0.953434
     12          1           0        0.135976    2.133138    1.194428
     13          1           0       -2.241278    1.344000    1.555788
     14          1           0       -1.568324   -1.540751   -1.574924
     15          1           0       -3.812138   -0.214877    0.797087
 ---------------------------------------------------------------------

 SCF Done:  E(UB3LYP) =  -562.553874509     A.U. after   23 cycles

 The electronic state is 2-A.
 Alpha  occ. eigenvalues --  -19.03826 -18.91972 -14.28926 -14.28746 -14.16167
 Alpha  occ. eigenvalues --  -14.15316 -10.09156 -10.05861 -10.05079 -10.04507
 Alpha  occ. eigenvalues --  -10.02611  -0.99543  -0.95188  -0.91432  -0.79348
 Alpha  occ. eigenvalues --   -0.65879  -0.62130  -0.53630  -0.49660  -0.44950
 Alpha  occ. eigenvalues --   -0.42628  -0.41612  -0.35994  -0.33582  -0.33508
 Alpha  occ. eigenvalues --   -0.33304  -0.30550  -0.29887  -0.29781  -0.28446
 Alpha  occ. eigenvalues --   -0.26997  -0.25731  -0.23240  -0.21036  -0.18930
 Alpha  occ. eigenvalues --   -0.14731  -0.11514  -0.09656  -0.00754   0.02886
 Alpha virt. eigenvalues --    0.07320   0.09383   0.09565   0.10587   0.10904
 Alpha virt. eigenvalues --    0.11392   0.14055   0.15223   0.16324   0.16726
 Alpha virt. eigenvalues --    0.17330   0.17841   0.18195   0.19617   0.20200

  Beta  occ. eigenvalues --  -19.03750 -18.90959 -14.28925 -14.28740 -14.15468
  Beta  occ. eigenvalues --  -14.15098 -10.08869 -10.05963 -10.05173 -10.04483
  Beta  occ. eigenvalues --  -10.02427  -0.99535  -0.94990  -0.89678  -0.79008
  Beta  occ. eigenvalues --   -0.65617  -0.61629  -0.52658  -0.49388  -0.44138
  Beta  occ. eigenvalues --   -0.42615  -0.41471  -0.35839  -0.33566  -0.33467
  Beta  occ. eigenvalues --   -0.32690  -0.30439  -0.29760  -0.29103  -0.28347
  Beta  occ. eigenvalues --   -0.26485  -0.23548  -0.22906  -0.17977  -0.17712
  Beta  occ. eigenvalues --   -0.14101  -0.11220  -0.07985   0.00274
  Beta virt. eigenvalues --    0.07327   0.09387   0.09547   0.10586   0.11264
  Beta virt. eigenvalues --    0.11399   0.11618   0.14046   0.15965   0.16453
  Beta virt. eigenvalues --    0.16803   0.17376   0.18199   0.19347   0.19924

 Mulliken charges and spin densities:
               1          2
     1  O   -0.273092   0.015095
     2  O   -0.237029   0.345721
     3  N   -0.001994   0.094860
     4  N   -0.339552   0.339991
     5  N    0.018280  -0.004182
     6  N   -0.037042   0.007434
     7  C   -0.084955  -0.021010
     8  C   -0.205563   0.206800
     9  C   -0.053098  -0.080820
    10  C   -0.364429   0.183768
    11  C   -0.057813  -0.073568
    12  H    0.160163  -0.017853
    13  H    0.088515   0.001625
    14  H    0.154530   0.003483
    15  H    0.233079  -0.001343
 Sum of Mulliken charges =  -1.00000   1.00000

 Dipole moment (field-independent basis, Debye):
    X=             -6.7890    Y=             -3.0611    Z=              3.4719  Tot=              8.2168
 Quadrupole moment (field-independent basis, Debye-Ang):
   XX=            -86.1274   YY=            -78.4204   ZZ=            -70.1077
   XY=            -13.5115   XZ=             -0.6328   YZ=              0.4048

 Summary of Natural Population Analysis:

                                       Natural Population
                Natural  -----------------------------------------------
    Atom  No    Charge         Core      Valence    Rydberg      Total
 -----------------------------------------------------------------------
      O    1   -0.33879      0.99987     3.33249    0.00643     4.33879
      O    2   -0.09026      0.99990     3.07885    0.01151     4.09026
      N    3   -0.19187      0.99968     2.67622    0.01598     3.69187
      N    4    0.07535      0.99977     2.39336    0.03152     3.42465
      N    5    0.00311      0.99984     2.47327    0.02377     3.49689
      N    6   -0.00383      0.99984     2.48027    0.02371     3.50383
      C    7    0.13262      0.99950     1.84390    0.02398     2.86738
      C    8   -0.07063      0.99951     2.06152    0.00959     3.07063
      C    9   -0.16048      0.99954     2.15106    0.00988     3.16048
      C   10    0.17774      0.99941     1.81145    0.01140     2.82226
      C   11   -0.03369      0.99957     2.01911    0.01502     3.03369
      H   12    0.10558      0.00000     0.39004    0.00438     0.39442
      H   13    0.08583      0.00000     0.41174    0.00243     0.41417
      H   14    0.08371      0.00000     0.41496    0.00133     0.41629
      H   15    0.22561      0.00000     0.27186    0.00253     0.27439
 =======================================================================
   * Total *    0.00000     10.99645    27.81009    0.19347    39.00000

 Normal termination of Gaussian 16 at Sat Feb 27 18:42:51 2021.
