 Gaussian 16, Revision A.03,

 -----------------------------------------------------------
 # opt freq B3LYP/6-31G(d) empiricaldispersion=gd3bj scf=xqc
 -----------------------------------------------------------

 ------------------------------
 CID_62421324_JID_3140_neutraal
 ------------------------------
 Symbolic Z-matrix:
 Charge =  0 Multiplicity = 1

 SCF Done:  E(RB3LYP) =  -544.366361376     A.U. after   13 cycles
 SCF Done:  E(RB3LYP) =  -544.369628410     A.U. after   11 cycles
 SCF Done:  E(RB3LYP) =  -544.369970757     A.U. after   10 cycles
 SCF Done:  E(RB3LYP) =  -544.370643527     A.U. after   10 cycles
 SCF Done:  E(RB3LYP) =  -544.371345492     A.U. after   11 cycles
 SCF Done:  E(RB3LYP) =  -544.371675495     A.U. after   11 cycles
 SCF Done:  E(RB3LYP) =  -544.372674176     A.U. after   10 cycles
 SCF Done:  E(RB3LYP) =  -544.373622464     A.U. after   10 cycles
 SCF Done:  E(RB3LYP) =  -544.374135469     A.U. after   11 cycles
 SCF Done:  E(RB3LYP) =  -544.374348423     A.U. after   10 cycles
 SCF Done:  E(RB3LYP) =  -544.374449651     A.U. after    9 cycles
 SCF Done:  E(RB3LYP) =  -544.374460197     A.U. after    9 cycles
 SCF Done:  E(RB3LYP) =  -544.374462015     A.U. after    8 cycles
 SCF Done:  E(RB3LYP) =  -544.374462290     A.U. after    7 cycles
 SCF Done:  E(RB3LYP) =  -544.374462367     A.U. after    6 cycles
 SCF Done:  E(RB3LYP) =  -544.374462381     A.U. after    6 cycles
 Optimization completed.
    -- Stationary point found.
 Normal termination of Gaussian 16 at Wed Dec  9 22:32:32 2020.

 --------------------------------------------------------------------
 #N Geom=AllCheck Guess=TCheck SCRF=Check GenChk RB3LYP/6-31G(d) Freq
 --------------------------------------------------------------------

 Structure from the checkpoint file:  "JID_3140.chk"
 ------------------------------
 CID_62421324_JID_3140_neutraal
 ------------------------------
 Charge =  0 Multiplicity = 1

 SCF Done:  E(RB3LYP) =  -544.374462381     A.U. after    1 cycles

  Exact polarizability: 153.189  -3.135 124.734  -1.552   0.557 119.413
 Approx polarizability: 180.977  -2.640 174.181  -1.806  -0.469 173.496

                      1                      2                      3
                      A                      A                      A
 Frequencies --     23.1153                26.6840                46.4388
 Red. masses --      3.1176                 3.3331                 3.0976
 Frc consts  --      0.0010                 0.0014                 0.0039
 IR Inten    --      0.1196                 0.0813                 0.0722

                      4                      5                      6
                      A                      A                      A
 Frequencies --     70.3469                75.0447               102.9765
 Red. masses --      2.2568                 2.1265                 2.4713
 Frc consts  --      0.0066                 0.0071                 0.0154
 IR Inten    --      1.9383                 2.5978                 0.3205

                      7                      8                      9
                      A                      A                      A
 Frequencies --    109.0471               163.6867               170.6718
 Red. masses --      2.6442                 2.2372                 2.3497
 Frc consts  --      0.0185                 0.0353                 0.0403
 IR Inten    --      0.5176                 0.4467                 0.5378

                     10                     11                     12
                      A                      A                      A
 Frequencies --    181.7875               202.5588               229.2284
 Red. masses --      2.7814                 1.3465                 1.1150
 Frc consts  --      0.0542                 0.0326                 0.0345
 IR Inten    --      0.4409                 0.3487                 0.7093

                     13                     14                     15
                      A                      A                      A
 Frequencies --    244.7542               262.8289               268.6384
 Red. masses --      1.5819                 1.3304                 1.4774
 Frc consts  --      0.0558                 0.0541                 0.0628
 IR Inten    --      1.1480                 0.2074                 3.0317

                     16                     17                     18
                      A                      A                      A
 Frequencies --    283.4166               320.7912               348.1352
 Red. masses --      1.5737                 2.2485                 2.3562
 Frc consts  --      0.0745                 0.1363                 0.1683
 IR Inten    --      0.0741                 1.9187                 1.7022

                     19                     20                     21
                      A                      A                      A
 Frequencies --    394.2798               401.1149               420.2567
 Red. masses --      2.3334                 1.9656                 2.5679
 Frc consts  --      0.2137                 0.1863                 0.2672
 IR Inten    --      5.0354                 0.0045                 1.3861

                     22                     23                     24
                      A                      A                      A
 Frequencies --    438.8914               450.2403               524.0993
 Red. masses --      1.9867                 2.1556                 2.5674
 Frc consts  --      0.2255                 0.2575                 0.4155
 IR Inten    --      1.8518                 0.3451                 0.4144

                     25                     26                     27
                      A                      A                      A
 Frequencies --    621.3115               723.5794               784.8178
 Red. masses --      2.8289                 1.3342                 1.6539
 Frc consts  --      0.6434                 0.4116                 0.6002
 IR Inten    --      7.0863                11.1091                 0.5930

                     28                     29                     30
                      A                      A                      A
 Frequencies --    794.0002               813.6021               839.9902
 Red. masses --      1.5128                 2.1633                 2.4025
 Frc consts  --      0.5619                 0.8437                 0.9988
 IR Inten    --     55.1339                22.1999                11.1714

                     31                     32                     33
                      A                      A                      A
 Frequencies --    868.6313               903.0073               910.9791
 Red. masses --      1.6305                 1.7377                 1.7620
 Frc consts  --      0.7248                 0.8348                 0.8615
 IR Inten    --      1.5380                 7.2099                 2.5955

                     34                     35                     36
                      A                      A                      A
 Frequencies --    924.6142               966.1442               971.6855
 Red. masses --      1.3955                 1.5791                 1.5742
 Frc consts  --      0.7029                 0.8685                 0.8757
 IR Inten    --      2.3838                 7.5891                 3.8938

                     37                     38                     39
                      A                      A                      A
 Frequencies --   1004.4228              1012.1609              1030.0803
 Red. masses --      2.2188                 1.6890                 1.6086
 Frc consts  --      1.3189                 1.0195                 1.0057
 IR Inten    --      4.0858                 0.8639                 8.7807

                     40                     41                     42
                      A                      A                      A
 Frequencies --   1070.7344              1096.0396              1100.2695
 Red. masses --      1.8103                 1.9376                 1.9091
 Frc consts  --      1.2228                 1.3714                 1.3617
 IR Inten    --     45.7504                25.4531                 8.0509

                     43                     44                     45
                      A                      A                      A
 Frequencies --   1125.7103              1130.5693              1136.5255
 Red. masses --      1.7843                 1.6941                 2.0307
 Frc consts  --      1.3322                 1.2758                 1.5454
 IR Inten    --      9.8507                 5.7562                11.8696

                     46                     47                     48
                      A                      A                      A
 Frequencies --   1143.3402              1163.8198              1170.4487
 Red. masses --      1.9517                 1.6435                 1.8175
 Frc consts  --      1.5032                 1.3115                 1.4670
 IR Inten    --      4.5474                11.9164                23.4576

                     49                     50                     51
                      A                      A                      A
 Frequencies --   1176.7034              1202.7270              1214.3938
 Red. masses --      2.0302                 1.8151                 1.5824
 Frc consts  --      1.6562                 1.5470                 1.3749
 IR Inten    --      7.7762                12.8278                 9.5824

                     52                     53                     54
                      A                      A                      A
 Frequencies --   1252.1271              1260.4259              1299.6334
 Red. masses --      1.7603                 1.4053                 1.3769
 Frc consts  --      1.6260                 1.3154                 1.3703
 IR Inten    --      9.6009                 4.6833                 5.6881

                     55                     56                     57
                      A                      A                      A
 Frequencies --   1305.2845              1339.3691              1340.3135
 Red. masses --      1.4203                 1.2529                 1.2750
 Frc consts  --      1.4258                 1.3242                 1.3495
 IR Inten    --      9.9565                 3.7507                 2.0298

                     58                     59                     60
                      A                      A                      A
 Frequencies --   1351.3965              1372.5746              1386.5938
 Red. masses --      1.4039                 1.4505                 1.3443
 Frc consts  --      1.5106                 1.6101                 1.5228
 IR Inten    --      6.3769                 6.3217                14.1447

                     61                     62                     63
                      A                      A                      A
 Frequencies --   1400.8873              1406.1005              1414.2077
 Red. masses --      1.4702                 1.3256                 1.3296
 Frc consts  --      1.7000                 1.5442                 1.5667
 IR Inten    --     18.0113                11.3177                11.0625

                     64                     65                     66
                      A                      A                      A
 Frequencies --   1418.8984              1424.8238              1433.8210
 Red. masses --      1.4200                 1.3771                 1.3145
 Frc consts  --      1.6844                 1.6472                 1.5922
 IR Inten    --      5.0840                 2.4197                 6.9150

                     67                     68                     69
                      A                      A                      A
 Frequencies --   1443.6423              1445.1195              1483.5508
 Red. masses --      1.2822                 1.2631                 1.1546
 Frc consts  --      1.5745                 1.5541                 1.4973
 IR Inten    --      2.2601                 8.3745                 1.5285

                     70                     71                     72
                      A                      A                      A
 Frequencies --   1483.7821              1502.8370              1504.6805
 Red. masses --      1.1803                 1.1056                 1.0784
 Frc consts  --      1.5310                 1.4712                 1.4386
 IR Inten    --      2.8292                 4.7014                 1.1179

                     73                     74                     75
                      A                      A                      A
 Frequencies --   1511.8460              1514.0313              1519.2804
 Red. masses --      1.1472                 1.0775                 1.0608
 Frc consts  --      1.5449                 1.4553                 1.4426
 IR Inten    --     19.9607                13.6640                 4.1273

                     76                     77                     78
                      A                      A                      A
 Frequencies --   1523.2547              1525.6613              1527.3582
 Red. masses --      1.0824                 1.0710                 1.0543
 Frc consts  --      1.4798                 1.4688                 1.4491
 IR Inten    --      6.5094                 8.8387                 0.8793

                     79                     80                     81
                      A                      A                      A
 Frequencies --   1532.2458              1534.6975              1538.1754
 Red. masses --      1.0649                 1.0616                 1.0567
 Frc consts  --      1.4731                 1.4732                 1.4730
 IR Inten    --     13.9768                 1.7460                 6.0616

                     82                     83                     84
                      A                      A                      A
 Frequencies --   1541.2747              1543.8333              1545.2761
 Red. masses --      1.0889                 1.0611                 1.0833
 Frc consts  --      1.5241                 1.4901                 1.5241
 IR Inten    --     17.1066                 7.2375                 4.4170

                     85                     86                     87
                      A                      A                      A
 Frequencies --   1547.7435              2901.7661              2942.6700
 Red. masses --      1.0528                 1.0731                 1.0656
 Frc consts  --      1.4859                 5.3239                 5.4365
 IR Inten    --      4.1676                65.6444                32.8472

                     88                     89                     90
                      A                      A                      A
 Frequencies --   2949.3558              2949.9784              3015.5228
 Red. masses --      1.0693                 1.0616                 1.0589
 Frc consts  --      5.4803                 5.4432                 5.6731
 IR Inten    --    154.3978                97.7973                44.3106

                     91                     92                     93
                      A                      A                      A
 Frequencies --   3028.7790              3038.1930              3040.2163
 Red. masses --      1.0673                 1.0605                 1.0732
 Frc consts  --      5.7688                 5.7678                 5.8443
 IR Inten    --     22.4091                33.7242                10.9184

                     94                     95                     96
                      A                      A                      A
 Frequencies --   3041.4751              3044.6132              3046.6811
 Red. masses --      1.0425                 1.0533                 1.0583
 Frc consts  --      5.6818                 5.7527                 5.7876
 IR Inten    --     19.5645                18.7596                32.2721

                     97                     98                     99
                      A                      A                      A
 Frequencies --   3051.9100              3063.1252              3065.0329
 Red. masses --      1.0872                 1.0979                 1.0987
 Frc consts  --      5.9660                 6.0691                 6.0811
 IR Inten    --     35.6629                53.4630                 1.4031

                    100                    101                    102
                      A                      A                      A
 Frequencies --   3068.8178              3071.9199              3075.7125
 Red. masses --      1.0977                 1.0724                 1.0709
 Frc consts  --      6.0910                 5.9625                 5.9687
 IR Inten    --     35.3370                45.6854                40.6902

                    103                    104                    105
                      A                      A                      A
 Frequencies --   3089.6608              3093.8498              3101.9003
 Red. masses --      1.0911                 1.0955                 1.1009
 Frc consts  --      6.1368                 6.1780                 6.2407
 IR Inten    --     22.2790                74.6363                73.4150

                    106                    107                    108
                      A                      A                      A
 Frequencies --   3107.4080              3111.8529              3118.3818
 Red. masses --      1.1016                 1.1018                 1.1032
 Frc consts  --      6.2670                 6.2861                 6.3208
 IR Inten    --     56.6241                48.7161                38.0052

                    109                    110                    111
                      A                      A                      A
 Frequencies --   3118.6274              3139.7963              3505.2826
 Red. masses --      1.1026                 1.0976                 1.0734
 Frc consts  --      6.3180                 6.3750                 7.7709
 IR Inten    --     33.4653                32.9084                 0.8287

 - Thermochemistry -
 -------------------
 Temperature   298.150 Kelvin.  Pressure   1.00000 Atm.
 Atom     1 has atomic number  6 and mass  12.00000

 Molecular mass:   186.20960 amu.
 Principal axes and moments of inertia in atomic units:
                           1         2         3
     Eigenvalues --  1539.846155791.846676228.60827
           X            1.00000  -0.00016  -0.00006
           Y            0.00016   0.99999  -0.00511
           Z            0.00006   0.00511   0.99999
 This molecule is an asymmetric top.
 Rotational symmetry number  1.
 Warning -- assumption of classical behavior for rotation
           may cause significant error
 Rotational temperatures (Kelvin)      0.05625     0.01495     0.01391
 Rotational constants (GHZ):           1.17203     0.31160     0.28975
 Zero-point vibrational energy     966682.1 (Joules/Mol)
                                  231.04256 (Kcal/Mol)
 Warning -- explicit consideration of  24 degrees of freedom as
           vibrations may cause significant error
 Vibrational temperatures:     33.26    38.39    66.82   101.21   107.97
          (Kelvin)            148.16   156.89   235.51   245.56   261.55
                              291.44   329.81   352.15   378.15   386.51
                              407.77   461.55   500.89   567.28   577.11
                              604.66   631.47   647.80   754.06   893.93
                             1041.07  1129.18  1142.39  1170.59  1208.56
                             1249.77  1299.23  1310.70  1330.31  1390.07
                             1398.04  1445.14  1456.27  1482.06  1540.55
                             1576.96  1583.04  1619.65  1626.64  1635.21
                             1645.01  1674.48  1684.01  1693.01  1730.46
                             1747.24  1801.53  1813.47  1869.88  1878.01
                             1927.05  1928.41  1944.36  1974.83  1995.00
                             2015.56  2023.07  2034.73  2041.48  2050.00
                             2062.95  2077.08  2079.20  2134.50  2134.83
                             2162.25  2164.90  2175.21  2178.35  2185.91
                             2191.62  2195.09  2197.53  2204.56  2208.09
                             2213.09  2217.55  2221.23  2223.31  2226.86
                             4174.99  4233.85  4243.47  4244.36  4338.66
                             4357.74  4371.28  4374.19  4376.00  4380.52
                             4383.49  4391.02  4407.15  4409.90  4415.34
                             4419.81  4425.26  4445.33  4451.36  4462.94
                             4470.87  4477.26  4486.66  4487.01  4517.47
                             5043.32

 Zero-point correction=                           0.368190 (Hartree/Particle)
 Thermal correction to Energy=                    0.385274
 Thermal correction to Enthalpy=                  0.386218
 Thermal correction to Gibbs Free Energy=         0.321987
 Sum of electronic and zero-point Energies=           -544.006273
 Sum of electronic and thermal Energies=              -543.989189
 Sum of electronic and thermal Enthalpies=            -543.988244
 Sum of electronic and thermal Free Energies=         -544.052475

                     E (Thermal)             CV                S
                      KCal/Mol        Cal/Mol-Kelvin    Cal/Mol-Kelvin
 Total                  241.763             61.864            135.185
 Electronic               0.000              0.000              0.000
 Translational            0.889              2.981             41.571
 Rotational               0.889              2.981             32.385
 Vibrational            239.985             55.902             61.229
 Vibration     1          0.593              1.985              6.347
 Vibration     2          0.593              1.984              6.062
 Vibration     3          0.595              1.979              4.964
 Vibration     4          0.598              1.968              4.144
 Vibration     5          0.599              1.966              4.016
 Vibration     6          0.605              1.947              3.397
 Vibration     7          0.606              1.942              3.286
 Vibration     8          0.623              1.887              2.507
 Vibration     9          0.626              1.879              2.428
 Vibration    10          0.630              1.865              2.310
 Vibration    11          0.639              1.836              2.110
 Vibration    12          0.652              1.796              1.885
 Vibration    13          0.660              1.771              1.768
 Vibration    14          0.670              1.741              1.643
 Vibration    15          0.673              1.731              1.605
 Vibration    16          0.682              1.704              1.513
 Vibration    17          0.706              1.634              1.306
 Vibration    18          0.726              1.579              1.175
 Vibration    19          0.761              1.482              0.984
 Vibration    20          0.767              1.468              0.959
 Vibration    21          0.783              1.426              0.891
 Vibration    22          0.799              1.385              0.830
 Vibration    23          0.809              1.360              0.795
 Vibration    24          0.879              1.197              0.601

 Optimization completed.
    -- Stationary point found.
 Normal termination of Gaussian 16 at Wed Dec  9 22:43:21 2020.

 ----------------------------------------------------------------------
 # B3LYP/6-311++G(d,p) empiricaldispersion=gd3bj scf=xqc pop=npa geom=c
 heck
 ----------------------------------------------------------------------

 --------------------------------------
 CID_62421324_JID_3140_Energie_neutraal
 --------------------------------------
 Structure from the checkpoint file:  "JID_3140.chk"
 Charge =  0 Multiplicity = 1

 SCF Done:  E(RB3LYP) =  -544.532169011     A.U. after   14 cycles
 Normal termination of Gaussian 16 at Wed Dec  9 22:49:52 2020.

 ----------------------------------------------------------------------
 # B3LYP/6-311++G(d,p) empiricaldispersion=gd3bj scf=xqc pop=npa geom=c
 heck
 ----------------------------------------------------------------------

 ------------------------------------
 CID_62421324_JID_3140_Energie_kation
 ------------------------------------
 Structure from the checkpoint file:  "JID_3140.chk"
 Charge =  1 Multiplicity = 2

 SCF Done:  E(UB3LYP) =  -544.259645848     A.U. after   23 cycles
 Normal termination of Gaussian 16 at Wed Dec  9 23:05:47 2020.
 Gaussian 16:  ES64L-G16RevA.03 25-Dec-2016

 ----------------------------------------------------------------------
 # B3LYP/6-311++G(d,p) empiricaldispersion=gd3bj scf=xqc pop=npa geom=c
 heck
 ----------------------------------------------------------------------

 -----------------------------------
 CID_62421324_JID_3140_Energie_anion
 -----------------------------------
 Structure from the checkpoint file:  "JID_3140.chk"
 Charge = -1 Multiplicity = 2

                         Standard orientation:
 ---------------------------------------------------------------------
 Center     Atomic      Atomic             Coordinates (Angstroms)
 Number     Number       Type             X           Y           Z
 ---------------------------------------------------------------------
      1          6           0       -3.931809   -1.871987    0.952067
      2          6           0       -3.128708   -1.621114   -0.327685
      3          6           0       -3.319372   -0.219702   -0.925770
      4          6           0       -2.941911    0.940055    0.005608
      5          6           0       -1.495904    0.883846    0.522167
      6          7           0       -0.520264    0.752828   -0.552883
      7          6           0       -0.302319    1.969747   -1.309673
      8          6           0        0.691903   -0.009376   -0.278816
      9          6           0        1.866564    0.685212    0.447780
     10          6           0        1.471697    1.233914    1.823133
     11          6           0        3.052393   -0.280537    0.596183
     12          7           0        3.611728   -0.705211   -0.684221
     13          6           0        4.822560   -1.502285   -0.527488
     14          1           0       -3.609768   -1.216645    1.769441
     15          1           0       -3.817871   -2.906200    1.296169
     16          1           0       -5.001375   -1.690584    0.787665
     17          1           0       -2.062006   -1.791667   -0.133353
     18          1           0       -3.417100   -2.362905   -1.084124
     19          1           0       -2.713898   -0.145459   -1.835893
     20          1           0       -4.369016   -0.098868   -1.228779
     21          1           0       -3.110900    1.887403   -0.522512
     22          1           0       -3.607203    0.966643    0.878546
     23          1           0       -1.317184    1.773252    1.154021
     24          1           0       -1.383361    0.014599    1.178613
     25          1           0        0.135826    2.794181   -0.715425
     26          1           0        0.372174    1.764513   -2.148245
     27          1           0       -1.249434    2.329417   -1.725030
     28          1           0        0.399156   -0.899786    0.294910
     29          1           0        1.058960   -0.365754   -1.251461
     30          1           0        2.214295    1.516988   -0.178711
     31          1           0        1.046488    0.446659    2.458589
     32          1           0        2.344754    1.645863    2.343277
     33          1           0        0.729248    2.031488    1.740883
     34          1           0        3.853622    0.234703    1.142348
     35          1           0        2.748075   -1.135740    1.235946
     36          1           0        2.922024   -1.262045   -1.183290
     37          1           0        4.705090   -2.386233    0.127848
     38          1           0        5.164362   -1.846551   -1.509101
     39          1           0        5.614219   -0.877229   -0.097629
 ---------------------------------------------------------------------

 SCF Done:  E(UB3LYP) =  -544.516971794     A.U. after   28 cycles

 The electronic state is 2-A.
 Alpha  occ. eigenvalues --  -14.20333 -14.20188 -10.09349 -10.09265 -10.09255
 Alpha  occ. eigenvalues --  -10.09120 -10.09052 -10.07327 -10.06569 -10.06524
 Alpha  occ. eigenvalues --  -10.06263 -10.06246 -10.06105  -0.82612  -0.80866
 Alpha  occ. eigenvalues --   -0.70633  -0.69210  -0.64694  -0.60686  -0.59730
 Alpha  occ. eigenvalues --   -0.59038  -0.54623  -0.53581  -0.50069  -0.46687
 Alpha  occ. eigenvalues --   -0.44875  -0.40913  -0.38514  -0.38201  -0.37412
 Alpha  occ. eigenvalues --   -0.35839  -0.34922  -0.34702  -0.33337  -0.32814
 Alpha  occ. eigenvalues --   -0.31197  -0.30428  -0.30110  -0.29234  -0.28790
 Alpha  occ. eigenvalues --   -0.27866  -0.27707  -0.26878  -0.26251  -0.25519
 Alpha  occ. eigenvalues --   -0.24914  -0.23709  -0.23271  -0.22483  -0.22197
 Alpha  occ. eigenvalues --   -0.21830  -0.13413  -0.10944   0.04298
 Alpha virt. eigenvalues --    0.05974   0.06732   0.07073   0.07767   0.08125
 Alpha virt. eigenvalues --    0.08695   0.09102   0.09666   0.10082   0.10293
 Alpha virt. eigenvalues --    0.10704   0.11050   0.11855   0.12123   0.12440

  Beta  occ. eigenvalues --  -14.20328 -14.20171 -10.09337 -10.09252 -10.09237
  Beta  occ. eigenvalues --  -10.09100 -10.09019 -10.07321 -10.06555 -10.06511
  Beta  occ. eigenvalues --  -10.06254 -10.06226 -10.06075  -0.82596  -0.80839
  Beta  occ. eigenvalues --   -0.70609  -0.69187  -0.64663  -0.60651  -0.59684
  Beta  occ. eigenvalues --   -0.58997  -0.54572  -0.53514  -0.50018  -0.46641
  Beta  occ. eigenvalues --   -0.44829  -0.40881  -0.38489  -0.38165  -0.37382
  Beta  occ. eigenvalues --   -0.35809  -0.34890  -0.34664  -0.33311  -0.32776
  Beta  occ. eigenvalues --   -0.31165  -0.30397  -0.30080  -0.29208  -0.28761
  Beta  occ. eigenvalues --   -0.27828  -0.27675  -0.26848  -0.26222  -0.25496
  Beta  occ. eigenvalues --   -0.24887  -0.23683  -0.23237  -0.22460  -0.22171
  Beta  occ. eigenvalues --   -0.21799  -0.13370  -0.10917
  Beta virt. eigenvalues --    0.06178   0.06731   0.07246   0.07518   0.08164
  Beta virt. eigenvalues --    0.08548   0.09003   0.09461   0.09958   0.10398
  Beta virt. eigenvalues --    0.10586   0.11034   0.11347   0.12058   0.12394

 Mulliken charges and spin densities:
               1          2
     1  C    0.703741  -1.341009
     2  C   -0.323664   0.273075
     3  C   -0.178599  -0.053945
     4  C    0.307762  -0.747188
     5  C   -0.337973   0.168964
     6  N    0.205968   0.110974
     7  C    0.288041  -0.647373
     8  C   -0.394744  -0.638592
     9  C   -0.173464   1.022841
    10  C    0.197664  -0.799594
    11  C   -0.417552  -0.511569
    12  N   -0.224721   0.168047
    13  C    0.810753  -1.160406
    14  H   -0.252461   0.389140
    15  H   -0.195404   0.331586
    16  H   -0.064944   0.196184
    17  H   -0.118914   0.240667
    18  H   -0.233788   0.387239
    19  H    0.030247   0.102789
    20  H   -0.081715   0.227644
    21  H   -0.037766   0.188863
    22  H   -0.030052   0.171359
    23  H   -0.004100   0.110355
    24  H    0.272645  -0.123517
    25  H   -0.074543   0.201293
    26  H   -0.082425   0.216962
    27  H    0.037484   0.089577
    28  H   -0.004786   0.165094
    29  H    0.263289  -0.078109
    30  H    0.151367   0.035056
    31  H   -0.148135   0.306894
    32  H   -0.202722   0.340821
    33  H    0.057210   0.066653
    34  H    0.028310   0.120804
    35  H    0.029848   0.087832
    36  H   -0.051990   0.254242
    37  H   -0.312330   0.436407
    38  H   -0.223696   0.350671
    39  H   -0.213840   0.339268
 Sum of Mulliken charges =  -1.00000   1.00000

 Dipole moment (field-independent basis, Debye):
    X=             -1.4388    Y=              3.0320    Z=             -0.8135  Tot=              3.4532
 Quadrupole moment (field-independent basis, Debye-Ang):
   XX=           -182.4711   YY=           -134.4488   ZZ=           -125.3870
   XY=              1.4105   XZ=              3.2332   YZ=              1.0441

 Summary of Natural Population Analysis:

                                       Natural Population
                Natural  -----------------------------------------------
    Atom  No    Charge         Core      Valence    Rydberg      Total
 -----------------------------------------------------------------------
      C    1   -0.28574      0.99967     2.28166    0.00441     3.28574
      C    2   -0.19357      0.99964     2.18525    0.00868     3.19357
      C    3   -0.18881      0.99962     2.18121    0.00798     3.18881
      C    4   -0.19536      0.99962     2.18644    0.00930     3.19536
      C    5   -0.08264      0.99960     2.07161    0.01143     3.08264
      N    6   -0.28810      0.99972     2.77548    0.01290     3.78810
      C    7   -0.17543      0.99964     2.16872    0.00707     3.17543
      C    8   -0.07700      0.99958     2.06449    0.01293     3.07700
      C    9   -0.12581      0.99959     2.11689    0.00933     3.12581
      C   10   -0.28765      0.99965     2.28186    0.00614     3.28765
      C   11   -0.08315      0.99960     2.07127    0.01228     3.08315
      N   12   -0.33631      0.99974     2.82549    0.01108     3.83631
      C   13   -0.17505      0.99967     2.16847    0.00692     3.17505
      H   14    0.09561      0.00000     0.40317    0.00122     0.40439
      H   15    0.09904      0.00000     0.39977    0.00119     0.40096
      H   16    0.09363      0.00000     0.40509    0.00128     0.40637
      H   17    0.09594      0.00000     0.40231    0.00175     0.40406
      H   18    0.09435      0.00000     0.40453    0.00112     0.40565
      H   19    0.10126      0.00000     0.39722    0.00152     0.39874
      H   20    0.09219      0.00000     0.40671    0.00110     0.40781
      H   21    0.09490      0.00000     0.40393    0.00117     0.40510
      H   22    0.09685      0.00000     0.40202    0.00112     0.40315
      H   23    0.08234      0.00000     0.41608    0.00157     0.41766
      H   24    0.09645      0.00000     0.40187    0.00168     0.40355
      H   25    0.07985      0.00000     0.41850    0.00165     0.42015
      H   26    0.09610      0.00000     0.40268    0.00122     0.40390
      H   27    0.09423      0.00000     0.40463    0.00115     0.40577
      H   28    0.09453      0.00000     0.40371    0.00176     0.40547
      H   29    0.09159      0.00000     0.40674    0.00167     0.40841
      H   30    0.09632      0.00000     0.40146    0.00221     0.40368
      H   31    0.09825      0.00000     0.40062    0.00113     0.40175
      H   32    0.09828      0.00000     0.40080    0.00092     0.40172
      H   33    0.10081      0.00000     0.39770    0.00149     0.39919
      H   34    0.09142      0.00000     0.40703    0.00155     0.40858
      H   35    0.07842      0.00000     0.41999    0.00158     0.42158
      H   36    0.17043      0.00000     0.32581    0.00376     0.32957
      H   37    0.07870      0.00000     0.41898    0.00232     0.42130
      H   38    0.09384      0.00000     0.40492    0.00124     0.40616
      H   39    0.08930      0.00000     0.40910    0.00160     0.41070
 =======================================================================
   * Total *    0.00000     12.99535    39.84421    0.16044    53.00000

 Normal termination of Gaussian 16 at Wed Dec  9 23:22:43 2020.
