 Gaussian 16, Revision A.03,

 -----------------------------------------------------------
 # opt freq B3LYP/6-31G(d) empiricaldispersion=gd3bj scf=xqc
 -----------------------------------------------------------

 -------------------------------
 CID_154323447_JID_4365_neutraal
 -------------------------------
 Symbolic Z-matrix:
 Charge =  0 Multiplicity = 1

 SCF Done:  E(RB3LYP) =  -1915.32052996     A.U. after   15 cycles
 SCF Done:  E(RB3LYP) =  -1915.34918560     A.U. after   13 cycles
 SCF Done:  E(RB3LYP) =  -1915.34365609     A.U. after   13 cycles
 SCF Done:  E(RB3LYP) =  -1915.35326441     A.U. after   14 cycles
 SCF Done:  E(RB3LYP) =  -1915.35510765     A.U. after   13 cycles
 SCF Done:  E(RB3LYP) =  -1915.35536863     A.U. after   13 cycles
 SCF Done:  E(RB3LYP) =  -1915.35660609     A.U. after   12 cycles
 SCF Done:  E(RB3LYP) =  -1915.35660063     A.U. after   12 cycles
 SCF Done:  E(RB3LYP) =  -1915.35654865     A.U. after   12 cycles
 SCF Done:  E(RB3LYP) =  -1915.35736761     A.U. after   12 cycles
 SCF Done:  E(RB3LYP) =  -1915.37430655     A.U. after   11 cycles
 SCF Done:  E(RB3LYP) =  -1915.37431003     A.U. after    9 cycles
 SCF Done:  E(RB3LYP) =  -1915.37431099     A.U. after    8 cycles
 SCF Done:  E(RB3LYP) =  -1915.37431154     A.U. after    8 cycles
 SCF Done:  E(RB3LYP) =  -1915.37431170     A.U. after    7 cycles
 Optimization completed.
    -- Stationary point found.
 Normal termination of Gaussian 16 at Thu Dec 10 09:34:44 2020.

 --------------------------------------------------------------------
 #N Geom=AllCheck Guess=TCheck SCRF=Check GenChk RB3LYP/6-31G(d) Freq
 --------------------------------------------------------------------

 Structure from the checkpoint file:  "JID_4365.chk"
 -------------------------------
 CID_154323447_JID_4365_neutraal
 -------------------------------
 Charge =  0 Multiplicity = 1

 SCF Done:  E(RB3LYP) =  -1915.37431170     A.U. after    1 cycles

  Exact polarizability: 130.798   8.072 105.572   9.769   1.238  86.544
 Approx polarizability: 193.180  17.723 161.760  25.173  11.476 156.767

                      1                      2                      3
                      A                      A                      A
 Frequencies --     48.7210                60.5345                78.1827
 Red. masses --     11.4418                 7.7780                 7.7136
 Frc consts  --      0.0160                 0.0168                 0.0278
 IR Inten    --      1.1592                 0.3882                 0.1322

                      4                      5                      6
                      A                      A                      A
 Frequencies --     94.2913               160.5686               173.0639
 Red. masses --      9.5080                 8.4782                12.0276
 Frc consts  --      0.0498                 0.1288                 0.2122
 IR Inten    --      1.0189                10.5753                 1.6355

                      7                      8                      9
                      A                      A                      A
 Frequencies --    177.8825               196.5269               225.5605
 Red. masses --      5.5139                 6.1708                12.1137
 Frc consts  --      0.1028                 0.1404                 0.3631
 IR Inten    --      7.3803                 2.9844                 0.3107

                     10                     11                     12
                      A                      A                      A
 Frequencies --    258.0447               279.7500               292.7260
 Red. masses --      6.7554                 4.9964                 5.5482
 Frc consts  --      0.2650                 0.2304                 0.2801
 IR Inten    --     20.6121                 0.4168                 2.5691

                     13                     14                     15
                      A                      A                      A
 Frequencies --    315.9123               358.8257               375.5695
 Red. masses --      9.2479                 7.2012                 6.3542
 Frc consts  --      0.5438                 0.5463                 0.5281
 IR Inten    --     10.2630                17.4346                 3.0710

                     16                     17                     18
                      A                      A                      A
 Frequencies --    400.5515               431.5679               446.9657
 Red. masses --      8.3596                 6.6916                 7.1098
 Frc consts  --      0.7902                 0.7343                 0.8369
 IR Inten    --     15.9630                 8.1671                14.5754

                     19                     20                     21
                      A                      A                      A
 Frequencies --    458.1390               480.5464               492.8424
 Red. masses --      6.0342                 2.8230                 2.6572
 Frc consts  --      0.7462                 0.3841                 0.3803
 IR Inten    --     15.2824                 0.9769                 6.8178

                     22                     23                     24
                      A                      A                      A
 Frequencies --    547.3171               593.3055               645.0558
 Red. masses --      4.1882                 5.5158                 1.7654
 Frc consts  --      0.7392                 1.1440                 0.4328
 IR Inten    --     82.0375                28.7929               120.7617

                     25                     26                     27
                      A                      A                      A
 Frequencies --    648.5585               667.1148               712.5866
 Red. masses --      5.8887                 2.3279                 1.1927
 Frc consts  --      1.4594                 0.6104                 0.3568
 IR Inten    --     21.0963               386.2942               225.0122

                     28                     29                     30
                      A                      A                      A
 Frequencies --    763.5530               804.7569               813.4026
 Red. masses --      5.7462                 1.3042                 4.1829
 Frc consts  --      1.9738                 0.4976                 1.6306
 IR Inten    --     35.2493                31.5198               151.2368

                     31                     32                     33
                      A                      A                      A
 Frequencies --    862.4386               867.2862               883.8300
 Red. masses --      6.4329                 4.8554                 8.0638
 Frc consts  --      2.8191                 2.1518                 3.7113
 IR Inten    --    132.2246                87.1475               123.7676

                     34                     35                     36
                      A                      A                      A
 Frequencies --    962.5385               979.5540              1058.7437
 Red. masses --      2.7921                 1.9265                 4.3126
 Frc consts  --      1.5241                 1.0891                 2.8482
 IR Inten    --     17.1122                12.8041                97.6554

                     37                     38                     39
                      A                      A                      A
 Frequencies --   1091.4988              1120.5508              1130.8959
 Red. masses --      4.7707                 2.4197                 8.5284
 Frc consts  --      3.3487                 1.7901                 6.4264
 IR Inten    --     49.4042               131.9259               172.2577

                     40                     41                     42
                      A                      A                      A
 Frequencies --   1234.6513              1236.4617              1248.8682
 Red. masses --      4.2437                 1.3260                 1.2555
 Frc consts  --      3.8114                 1.1945                 1.1537
 IR Inten    --     90.2799                24.7066                 9.4333

                     43                     44                     45
                      A                      A                      A
 Frequencies --   1307.3061              1312.8627              1352.8850
 Red. masses --      1.4815                 4.2443                 1.2617
 Frc consts  --      1.4918                 4.3101                 1.3606
 IR Inten    --     47.8800               345.7580                64.8355

                     46                     47                     48
                      A                      A                      A
 Frequencies --   1367.2066              1385.9259              1396.8209
 Red. masses --      1.2809                 1.3902                 1.3333
 Frc consts  --      1.4107                 1.5733                 1.5327
 IR Inten    --    112.9161                10.8996                 9.5870

                     49                     50                     51
                      A                      A                      A
 Frequencies --   1415.7251              1435.1667              1469.3261
 Red. masses --      1.2886                 1.1765                 1.1953
 Frc consts  --      1.5216                 1.4277                 1.5204
 IR Inten    --    113.6180                32.0495               124.8263

                     52                     53                     54
                      A                      A                      A
 Frequencies --   1526.7056              3065.0051              3109.3319
 Red. masses --      1.0847                 1.0654                 1.0854
 Frc consts  --      1.4896                 5.8968                 6.1825
 IR Inten    --      7.2719                22.4486                 5.1000

                     55                     56                     57
                      A                      A                      A
 Frequencies --   3119.4554              3140.7415              3142.2684
 Red. masses --      1.0870                 1.0923                 1.0775
 Frc consts  --      6.2321                 6.3480                 6.2682
 IR Inten    --      5.9704               178.9363               659.9902

                     58                     59                     60
                      A                      A                      A
 Frequencies --   3201.6671              3534.7560              3707.8132
 Red. masses --      1.0678                 1.0644                 1.0658
 Frc consts  --      6.4490                 7.8359                 8.6327
 IR Inten    --    641.6225               120.0725               103.8871

 - Thermochemistry -
 -------------------
 Temperature   298.150 Kelvin.  Pressure   1.00000 Atm.
 Atom     1 has atomic number  6 and mass  12.00000

 Molecular mass:   267.93813 amu.
 Principal axes and moments of inertia in atomic units:
                           1         2         3
     Eigenvalues --  2719.522124025.969705709.77389
           X            0.99968  -0.02516   0.00013
           Y            0.02516   0.99959  -0.01382
           Z            0.00022   0.01382   0.99990
 This molecule is an asymmetric top.
 Rotational symmetry number  1.
 Warning -- assumption of classical behavior for rotation
           may cause significant error
 Rotational temperatures (Kelvin)      0.03185     0.02151     0.01517
 Rotational constants (GHZ):           0.66362     0.44827     0.31608
 Zero-point vibrational energy     386816.8 (Joules/Mol)
                                   92.45142 (Kcal/Mol)
 Warning -- explicit consideration of  23 degrees of freedom as
           vibrations may cause significant error
 Vibrational temperatures:     70.10    87.10   112.49   135.66   231.02
          (Kelvin)            249.00   255.93   282.76   324.53   371.27
                              402.50   421.17   454.53   516.27   540.36
                              576.30   620.93   643.08   659.16   691.40
                              709.09   787.47   853.63   928.09   933.13
                              959.83  1025.25  1098.58  1157.87  1170.30
                             1240.86  1247.83  1271.63  1384.88  1409.36
                             1523.30  1570.42  1612.22  1627.11  1776.39
                             1778.99  1796.84  1880.92  1888.92  1946.50
                             1967.11  1994.04  2009.71  2036.91  2064.88
                             2114.03  2196.59  4409.86  4473.64  4488.20
                             4518.83  4521.02  4606.48  5085.73  5334.72

 Zero-point correction=                           0.147331 (Hartree/Particle)
 Thermal correction to Energy=                    0.161854
 Thermal correction to Enthalpy=                  0.162798
 Thermal correction to Gibbs Free Energy=         0.105511
 Sum of electronic and zero-point Energies=          -1915.226981
 Sum of electronic and thermal Energies=             -1915.212458
 Sum of electronic and thermal Enthalpies=           -1915.211514
 Sum of electronic and thermal Free Energies=        -1915.268801

                     E (Thermal)             CV                S
                      KCal/Mol        Cal/Mol-Kelvin    Cal/Mol-Kelvin
 Total                  101.565             54.064            120.571
 Electronic               0.000              0.000              0.000
 Translational            0.889              2.981             42.656
 Rotational               0.889              2.981             32.503
 Vibrational             99.787             48.103             45.413
 Vibration     1          0.595              1.978              4.869
 Vibration     2          0.597              1.973              4.440
 Vibration     3          0.599              1.964              3.936
 Vibration     4          0.603              1.953              3.569
 Vibration     5          0.622              1.891              2.543
 Vibration     6          0.627              1.876              2.402
 Vibration     7          0.628              1.870              2.351
 Vibration     8          0.636              1.845              2.165
 Vibration     9          0.650              1.802              1.914
 Vibration    10          0.667              1.749              1.675
 Vibration    11          0.680              1.711              1.535
 Vibration    12          0.688              1.687              1.458
 Vibration    13          0.703              1.643              1.331
 Vibration    14          0.734              1.557              1.127
 Vibration    15          0.746              1.522              1.057
 Vibration    16          0.766              1.469              0.961
 Vibration    17          0.793              1.401              0.854
 Vibration    18          0.806              1.368              0.805
 Vibration    19          0.816              1.343              0.772
 Vibration    20          0.837              1.293              0.709
 Vibration    21          0.849              1.266              0.676
 Vibration    22          0.903              1.146              0.550
 Vibration    23          0.951              1.046              0.461

 Optimization completed.
    -- Stationary point found.
 Normal termination of Gaussian 16 at Thu Dec 10 09:41:37 2020.

 ----------------------------------------------------------------------
 # B3LYP/6-311++G(d,p) empiricaldispersion=gd3bj scf=xqc pop=npa geom=c
 heck
 ----------------------------------------------------------------------

 ---------------------------------------
 CID_154323447_JID_4365_Energie_neutraal
 ---------------------------------------
 Structure from the checkpoint file:  "JID_4365.chk"
 Charge =  0 Multiplicity = 1

 SCF Done:  E(RB3LYP) =  -1915.70019074     A.U. after   15 cycles
 Normal termination of Gaussian 16 at Thu Dec 10 09:44:39 2020.

 ----------------------------------------------------------------------
 # B3LYP/6-311++G(d,p) empiricaldispersion=gd3bj scf=xqc pop=npa geom=c
 heck
 ----------------------------------------------------------------------

 -------------------------------------
 CID_154323447_JID_4365_Energie_kation
 -------------------------------------
 Structure from the checkpoint file:  "JID_4365.chk"
 Charge =  1 Multiplicity = 2

 SCF Done:  E(UB3LYP) =  -1915.32755195     A.U. after   33 cycles
 SCF Done:  E(UB3LYP) =  -1915.32755195     a.u. after    1 cycles
 Normal termination of Gaussian 16 at Thu Dec 10 09:54:22 2020.
 Gaussian 16:  ES64L-G16RevA.03 25-Dec-2016

 ----------------------------------------------------------------------
 # B3LYP/6-311++G(d,p) empiricaldispersion=gd3bj scf=xqc pop=npa geom=c
 heck
 ----------------------------------------------------------------------

 ------------------------------------
 CID_154323447_JID_4365_Energie_anion
 ------------------------------------
 Structure from the checkpoint file:  "JID_4365.chk"
 Charge = -1 Multiplicity = 2

                         Standard orientation:
 ---------------------------------------------------------------------
 Center     Atomic      Atomic             Coordinates (Angstroms)
 Number     Number       Type             X           Y           Z
 ---------------------------------------------------------------------
      1          6           0       -0.397579    2.747505   -0.803836
      2          6           0       -1.395371    1.604668   -0.514610
      3          6           0       -0.691026    0.242185   -0.576003
      4          8           0        0.447513    0.273827    0.266227
      5         16           0        1.805344   -0.653428   -0.197190
      6          8           0        1.609663   -0.971303   -1.609866
      7         16           0        3.319857    0.328693    0.435462
      8          8           0        1.568241   -1.931984    0.727530
      9         16           0       -1.795000   -1.126261   -0.025199
     10          8           0       -2.972866   -1.097452   -0.880435
     11          8           0       -0.995293   -2.359338    0.076702
     12          8           0       -2.122869   -0.692138    1.483342
     13          8           0       -1.976639    1.843249    0.766826
     14          8           0        0.302476    3.083744    0.386523
     15          1           0       -0.956278    3.641224   -1.090733
     16          1           0        0.280529    2.479616   -1.623223
     17          1           0       -2.204797    1.588956   -1.249493
     18          1           0       -0.419585   -0.010816   -1.605713
     19          1           0        0.643454   -2.284266    0.538945
     20          1           0       -2.291566    0.296967    1.461070
     21          1           0       -1.288068    2.352171    1.251030
     22          1           0        0.975136    2.397105    0.540848
 ---------------------------------------------------------------------

 SCF Done:  E(UB3LYP) =  -1915.71080986     A.U. after   29 cycles

 The electronic state is 2-A.
 Alpha  occ. eigenvalues --  -88.99583 -88.95428 -88.70679 -19.08579 -19.06713
 Alpha  occ. eigenvalues --  -19.06661 -19.06107 -19.05085 -19.05084 -19.04644
 Alpha  occ. eigenvalues --  -19.02499 -10.18149 -10.16201 -10.14526  -8.05744
 Alpha  occ. eigenvalues --   -8.02029  -7.79508  -6.02111  -6.01956  -6.01762
 Alpha  occ. eigenvalues --   -5.98255  -5.98167  -5.97945  -5.76165  -5.75118
 Alpha  occ. eigenvalues --   -5.75020  -1.07275  -1.04066  -0.98485  -0.95991
 Alpha  occ. eigenvalues --   -0.95195  -0.94276  -0.94082  -0.92911  -0.72277
 Alpha  occ. eigenvalues --   -0.68181  -0.63575  -0.57588  -0.54430  -0.52975
 Alpha  occ. eigenvalues --   -0.49824  -0.47722  -0.44694  -0.43330  -0.42639
 Alpha  occ. eigenvalues --   -0.41736  -0.40612  -0.39336  -0.38232  -0.36462
 Alpha  occ. eigenvalues --   -0.35682  -0.33749  -0.31687  -0.31165  -0.29581
 Alpha  occ. eigenvalues --   -0.28707  -0.28527  -0.27759  -0.26993  -0.26239
 Alpha  occ. eigenvalues --   -0.25354  -0.24006  -0.23273  -0.23193  -0.22628
 Alpha  occ. eigenvalues --   -0.21740  -0.19750  -0.14845  -0.13983   0.03673
 Alpha virt. eigenvalues --    0.06591   0.07880   0.08957   0.09223   0.10297
 Alpha virt. eigenvalues --    0.11094   0.12047   0.12292   0.13028   0.13301
 Alpha virt. eigenvalues --    0.13819   0.14238   0.14816   0.14889   0.15666

  Beta  occ. eigenvalues --  -88.99578 -88.95198 -88.70547 -19.08556 -19.06640
  Beta  occ. eigenvalues --  -19.06361 -19.05932 -19.05077 -19.05072 -19.04635
  Beta  occ. eigenvalues --  -19.02378 -10.18100 -10.16179 -10.14488  -8.05738
  Beta  occ. eigenvalues --   -8.01741  -7.79372  -6.02105  -6.01950  -6.01755
  Beta  occ. eigenvalues --   -5.98010  -5.97920  -5.97723  -5.75845  -5.75013
  Beta  occ. eigenvalues --   -5.74933  -1.07214  -1.03480  -0.98408  -0.95943
  Beta  occ. eigenvalues --   -0.94633  -0.94232  -0.94043  -0.92530  -0.71778
  Beta  occ. eigenvalues --   -0.67631  -0.63436  -0.57469  -0.54150  -0.52559
  Beta  occ. eigenvalues --   -0.49500  -0.47531  -0.44637  -0.43245  -0.42564
  Beta  occ. eigenvalues --   -0.41627  -0.40400  -0.39237  -0.38060  -0.36163
  Beta  occ. eigenvalues --   -0.35611  -0.33653  -0.31344  -0.30856  -0.29536
  Beta  occ. eigenvalues --   -0.28638  -0.28346  -0.27699  -0.26877  -0.25874
  Beta  occ. eigenvalues --   -0.25281  -0.23900  -0.23090  -0.22825  -0.22563
  Beta  occ. eigenvalues --   -0.21566  -0.19606  -0.14420  -0.13651
  Beta virt. eigenvalues --    0.06748   0.08092   0.08766   0.09374   0.09866
  Beta virt. eigenvalues --    0.10718   0.11373   0.12172   0.12462   0.13363
  Beta virt. eigenvalues --    0.13466   0.13982   0.14291   0.14937   0.15067

 Mulliken charges and spin densities:
               1          2
     1  C    0.727344  -1.298237
     2  C   -0.819908   0.811807
     3  C   -0.090783  -0.754948
     4  O   -0.139319   0.047726
     5  S   -0.315688   0.582288
     6  O   -0.077088   0.019317
     7  S    0.049332  -0.155838
     8  O   -0.121526   0.032473
     9  S    0.490577  -0.249982
    10  O   -0.149501   0.025792
    11  O   -0.237882  -0.008452
    12  O   -0.183323   0.027515
    13  O   -0.250175  -0.005467
    14  O   -0.279608   0.012768
    15  H   -0.471882   0.703159
    16  H    0.025890   0.143185
    17  H   -0.281226   0.553723
    18  H    0.118375   0.260232
    19  H    0.245354   0.092961
    20  H    0.250204   0.097611
    21  H    0.267154   0.000525
    22  H    0.243679   0.061842
 Sum of Mulliken charges =  -1.00000   1.00000

 Dipole moment (field-independent basis, Debye):
    X=             -2.6625    Y=              0.0172    Z=              1.4728  Tot=              3.0427
 Quadrupole moment (field-independent basis, Debye-Ang):
   XX=           -159.1801   YY=           -140.4191   ZZ=           -125.2666
   XY=              1.1746   XZ=             -6.2018   YZ=              2.5165

 Summary of Natural Population Analysis:

                                       Natural Population
                Natural  -----------------------------------------------
    Atom  No    Charge         Core      Valence    Rydberg      Total
 -----------------------------------------------------------------------
      C    1   -0.02178      0.99959     2.00838    0.01380     3.02178
      C    2    0.03232      0.99954     1.95076    0.01738     2.96768
      C    3   -0.04539      0.99950     2.02260    0.02330     3.04539
      O    4   -0.36959      0.99989     3.35508    0.01462     4.36959
      S    5    1.00629      4.99942     1.89864    0.09565     6.99371
      O    6   -0.44306      0.99990     3.43587    0.00728     4.44306
      S    7   -0.17160      4.99971     3.16000    0.01189     8.17160
      O    8   -0.42798      0.99990     3.42014    0.00794     4.42798
      S    9    1.12205      4.99935     1.77711    0.10150     6.87795
      O   10   -0.44746      0.99990     3.44184    0.00572     4.44746
      O   11   -0.47082      0.99988     3.46445    0.00649     4.47082
      O   12   -0.43968      0.99989     3.43352    0.00627     4.43968
      O   13   -0.38384      0.99989     3.37637    0.00758     4.38384
      O   14   -0.37824      0.99990     3.37168    0.00667     4.37824
      H   15    0.09598      0.00000     0.40234    0.00168     0.40402
      H   16    0.09245      0.00000     0.40617    0.00138     0.40755
      H   17    0.10888      0.00000     0.38821    0.00290     0.39112
      H   18    0.12618      0.00000     0.37172    0.00209     0.37382
      H   19    0.25931      0.00000     0.23655    0.00413     0.24069
      H   20    0.25842      0.00000     0.23704    0.00455     0.24158
      H   21    0.24927      0.00000     0.24749    0.00325     0.25073
      H   22    0.24829      0.00000     0.24884    0.00287     0.25171
 =======================================================================
   * Total *    0.00000     25.99624    42.65481    0.34895    69.00000

 Normal termination of Gaussian 16 at Thu Dec 10 10:02:43 2020.
