 Gaussian 16, Revision A.03,

 -----------------------------------------------------------
 # opt freq B3LYP/6-31G(d) empiricaldispersion=gd3bj scf=xqc
 -----------------------------------------------------------

 -------------------------------
 CID_71277125_JID_10725_neutraal
 -------------------------------
 Symbolic Z-matrix:
 Charge =  0 Multiplicity = 1

 SCF Done:  E(RB3LYP) =  -893.949084756     A.U. after   14 cycles
 SCF Done:  E(RB3LYP) =  -893.954442365     A.U. after   12 cycles
 SCF Done:  E(RB3LYP) =  -893.954655738     A.U. after   12 cycles
 SCF Done:  E(RB3LYP) =  -893.956215869     A.U. after   12 cycles
 SCF Done:  E(RB3LYP) =  -893.956908883     A.U. after   12 cycles
 SCF Done:  E(RB3LYP) =  -893.957313343     A.U. after   12 cycles
 SCF Done:  E(RB3LYP) =  -893.957484548     A.U. after   12 cycles
 SCF Done:  E(RB3LYP) =  -893.957582477     A.U. after   11 cycles
 SCF Done:  E(RB3LYP) =  -893.957617640     A.U. after   12 cycles
 SCF Done:  E(RB3LYP) =  -893.957642854     A.U. after   11 cycles
 SCF Done:  E(RB3LYP) =  -893.957658445     A.U. after    8 cycles
 SCF Done:  E(RB3LYP) =  -893.957659979     A.U. after    9 cycles
 SCF Done:  E(RB3LYP) =  -893.957660816     A.U. after    9 cycles
 SCF Done:  E(RB3LYP) =  -893.957661158     A.U. after    8 cycles
 SCF Done:  E(RB3LYP) =  -893.957661245     A.U. after    7 cycles
 Optimization completed.
    -- Stationary point found.
 Normal termination of Gaussian 16 at Sun Dec 13 16:54:45 2020.

 --------------------------------------------------------------------
 #N Geom=AllCheck Guess=TCheck SCRF=Check GenChk RB3LYP/6-31G(d) Freq
 --------------------------------------------------------------------

 Structure from the checkpoint file:  "JID_10725.chk"
 -------------------------------
 CID_71277125_JID_10725_neutraal
 -------------------------------
 Charge =  0 Multiplicity = 1

 SCF Done:  E(RB3LYP) =  -893.957661245     A.U. after    1 cycles

  Exact polarizability: 281.539  29.874 128.052   8.922 -11.393 161.961
 Approx polarizability: 369.531  52.188 196.000   5.438 -30.598 280.553

                      1                      2                      3
                      A                      A                      A
 Frequencies --      7.9973                21.2218                35.7118
 Red. masses --      5.8724                 4.2801                 3.4053
 Frc consts  --      0.0002                 0.0011                 0.0026
 IR Inten    --      0.1644                 1.2168                 1.6097

                      4                      5                      6
                      A                      A                      A
 Frequencies --     57.2739                59.2925                88.1451
 Red. masses --      4.0754                 5.9775                 4.8430
 Frc consts  --      0.0079                 0.0124                 0.0222
 IR Inten    --      4.2405                 1.1131                 0.1321

                      7                      8                      9
                      A                      A                      A
 Frequencies --    122.3567               147.0163               163.2960
 Red. masses --      4.8275                 5.2512                 4.3944
 Frc consts  --      0.0426                 0.0669                 0.0690
 IR Inten    --      0.5097                 8.3717                 1.9230

                     10                     11                     12
                      A                      A                      A
 Frequencies --    208.7954               222.4639               254.0883
 Red. masses --      4.5429                 3.1469                 1.9245
 Frc consts  --      0.1167                 0.0918                 0.0732
 IR Inten    --      0.5866                 3.9847                 0.5738

                     13                     14                     15
                      A                      A                      A
 Frequencies --    277.8386               338.7239               371.1602
 Red. masses --      3.2508                 4.0704                 4.1958
 Frc consts  --      0.1479                 0.2752                 0.3406
 IR Inten    --      8.1246                 8.2536                 3.0109

                     16                     17                     18
                      A                      A                      A
 Frequencies --    401.4763               415.5276               418.6576
 Red. masses --      2.7411                 5.2384                 3.2045
 Frc consts  --      0.2603                 0.5329                 0.3309
 IR Inten    --      3.5613                 8.6456                 1.3000

                     19                     20                     21
                      A                      A                      A
 Frequencies --    429.2053               438.6736               463.9833
 Red. masses --      3.0791                 1.9955                 1.8309
 Frc consts  --      0.3342                 0.2263                 0.2322
 IR Inten    --     15.8372                 0.5154                65.9756

                     22                     23                     24
                      A                      A                      A
 Frequencies --    480.5552               507.3805               514.9498
 Red. masses --      2.3039                 1.4660                 1.9550
 Frc consts  --      0.3135                 0.2224                 0.3054
 IR Inten    --     13.1726               191.4905                 9.8380

                     25                     26                     27
                      A                      A                      A
 Frequencies --    523.9058               551.2754               604.4071
 Red. masses --      2.9127                 2.3372                 1.8862
 Frc consts  --      0.4710                 0.4185                 0.4060
 IR Inten    --      5.4665                 9.7128                17.2990

                     28                     29                     30
                      A                      A                      A
 Frequencies --    654.1693               676.1374               682.9556
 Red. masses --      6.8952                 2.6958                 3.7451
 Frc consts  --      1.7385                 0.7261                 1.0292
 IR Inten    --      4.7492                 1.7172                 4.2177

                     31                     32                     33
                      A                      A                      A
 Frequencies --    691.9690               744.1313               764.7323
 Red. masses --      4.3399                 2.7511                 4.6837
 Frc consts  --      1.2243                 0.8975                 1.6138
 IR Inten    --     13.0289                 1.6818                 9.0449

                     34                     35                     36
                      A                      A                      A
 Frequencies --    784.7108               827.2059               833.5568
 Red. masses --      1.3969                 1.5573                 1.4966
 Frc consts  --      0.5068                 0.6279                 0.6127
 IR Inten    --     12.2985                43.8274                 5.6727

                     37                     38                     39
                      A                      A                      A
 Frequencies --    847.6761               857.1068               861.0751
 Red. masses --      2.8258                 1.7490                 2.9462
 Frc consts  --      1.1963                 0.7570                 1.2871
 IR Inten    --      1.0568                 0.8654                 4.8636

                     40                     41                     42
                      A                      A                      A
 Frequencies --    898.1907               920.2384               933.1164
 Red. masses --      2.6566                 2.5725                 5.9884
 Frc consts  --      1.2627                 1.2835                 3.0721
 IR Inten    --      6.6490                13.3990                17.3423

                     43                     44                     45
                      A                      A                      A
 Frequencies --    942.0111               947.6172               971.9996
 Red. masses --      1.4151                 2.1497                 1.3237
 Frc consts  --      0.7398                 1.1374                 0.7368
 IR Inten    --      3.4323                17.6258                 1.2441

                     46                     47                     48
                      A                      A                      A
 Frequencies --    979.7288              1014.5555              1036.3624
 Red. masses --      7.4274                 2.5912                 3.1501
 Frc consts  --      4.2005                 1.5715                 1.9934
 IR Inten    --      6.2602                15.8287                18.5104

                     49                     50                     51
                      A                      A                      A
 Frequencies --   1051.2421              1080.8518              1096.7888
 Red. masses --      2.4323                 2.0852                 1.8833
 Frc consts  --      1.5837                 1.4352                 1.3348
 IR Inten    --     35.9541                17.7040                24.6451

                     52                     53                     54
                      A                      A                      A
 Frequencies --   1108.7652              1121.2018              1131.3971
 Red. masses --      1.8497                 2.0643                 1.8376
 Frc consts  --      1.3398                 1.5289                 1.3859
 IR Inten    --     10.4334                19.0286                32.5515

                     55                     56                     57
                      A                      A                      A
 Frequencies --   1139.9891              1144.3813              1168.4946
 Red. masses --      2.8180                 4.0079                 3.2680
 Frc consts  --      2.1577                 3.0925                 2.6290
 IR Inten    --     23.4070                66.6039                25.3689

                     58                     59                     60
                      A                      A                      A
 Frequencies --   1172.6267              1201.5395              1218.4627
 Red. masses --      1.4073                 1.9854                 2.3412
 Frc consts  --      1.1401                 1.6888                 2.0480
 IR Inten    --      8.3594                23.5954                28.5594

                     61                     62                     63
                      A                      A                      A
 Frequencies --   1256.6394              1262.7689              1275.3462
 Red. masses --      1.1646                 1.7426                 1.3263
 Frc consts  --      1.0835                 1.6371                 1.2710
 IR Inten    --      8.6011                 0.6981                 5.8759

                     64                     65                     66
                      A                      A                      A
 Frequencies --   1289.9861              1295.0312              1328.6981
 Red. masses --      1.7169                 1.3103                 2.7007
 Frc consts  --      1.6833                 1.2947                 2.8091
 IR Inten    --     44.9707                31.4429                14.3311

                     67                     68                     69
                      A                      A                      A
 Frequencies --   1337.1007              1344.9380              1364.8491
 Red. masses --      1.2265                 1.6727                 1.7110
 Frc consts  --      1.2919                 1.7827                 1.8778
 IR Inten    --     16.0025                 7.5778                89.6620

                     70                     71                     72
                      A                      A                      A
 Frequencies --   1378.4352              1384.1875              1388.1236
 Red. masses --      1.2349                 1.5550                 4.9789
 Frc consts  --      1.3825                 1.7554                 5.6525
 IR Inten    --      0.0734                24.4526                13.7028

                     73                     74                     75
                      A                      A                      A
 Frequencies --   1404.7787              1412.3256              1416.8688
 Red. masses --      1.2452                 1.2857                 1.4227
 Frc consts  --      1.4478                 1.5110                 1.6828
 IR Inten    --     16.2423                20.3424                32.9667

                     76                     77                     78
                      A                      A                      A
 Frequencies --   1424.9708              1429.5123              1432.5905
 Red. masses --      1.5772                 1.5871                 2.3060
 Frc consts  --      1.8869                 1.9109                 2.7884
 IR Inten    --     56.5806                14.3719                 6.3103

                     79                     80                     81
                      A                      A                      A
 Frequencies --   1441.9391              1455.3741              1482.2208
 Red. masses --      1.3416                 3.7236                 1.6552
 Frc consts  --      1.6435                 4.6469                 2.1425
 IR Inten    --     20.4956               103.8047                 9.4180

                     82                     83                     84
                      A                      A                      A
 Frequencies --   1495.4929              1498.2248              1507.6230
 Red. masses --      1.1302                 1.2223                 1.1541
 Frc consts  --      1.4893                 1.6165                 1.5456
 IR Inten    --      2.2074                 8.9872                16.5430

                     85                     86                     87
                      A                      A                      A
 Frequencies --   1513.5580              1515.9692              1527.5038
 Red. masses --      1.3190                 1.9083                 1.1202
 Frc consts  --      1.7803                 2.5839                 1.5400
 IR Inten    --     14.1904                20.8775                 4.8683

                     88                     89                     90
                      A                      A                      A
 Frequencies --   1541.7322              1576.4851              1615.4283
 Red. masses --      1.1048                 2.7737                 4.6786
 Frc consts  --      1.5472                 4.0616                 7.1935
 IR Inten    --     49.5545               384.0627                39.2175

                     91                     92                     93
                      A                      A                      A
 Frequencies --   1627.1343              1675.6579              2968.3902
 Red. masses --      4.7783                 5.9265                 1.0737
 Frc consts  --      7.4537                 9.8044                 5.5739
 IR Inten    --     95.4710               244.9789                79.0355

                     94                     95                     96
                      A                      A                      A
 Frequencies --   2990.8206              3005.5555              3012.7423
 Red. masses --      1.0698                 1.0681                 1.0651
 Frc consts  --      5.6383                 5.6848                 5.6958
 IR Inten    --     49.0064                43.3011                82.0495

                     97                     98                     99
                      A                      A                      A
 Frequencies --   3022.0703              3048.5040              3058.3723
 Red. masses --      1.0628                 1.0606                 1.1031
 Frc consts  --      5.7188                 5.8072                 6.0793
 IR Inten    --    100.0186                34.9956                15.4370

                    100                    101                    102
                      A                      A                      A
 Frequencies --   3084.5460              3089.1604              3091.8568
 Red. masses --      1.0953                 1.0939                 1.0900
 Frc consts  --      6.1399                 6.1505                 6.1391
 IR Inten    --     28.9834                22.2032                91.0767

                    103                    104                    105
                      A                      A                      A
 Frequencies --   3098.7234              3110.3504              3148.3283
 Red. masses --      1.0953                 1.1058                 1.0893
 Frc consts  --      6.1966                 6.3030                 6.3613
 IR Inten    --     38.8428                49.4671                39.9822

                    106                    107                    108
                      A                      A                      A
 Frequencies --   3200.8524              3227.4228              3259.6582
 Red. masses --      1.0891                 1.0930                 1.0952
 Frc consts  --      6.5740                 6.7081                 6.8562
 IR Inten    --     10.7179                14.3877                 8.4765

                    109                    110                    111
                      A                      A                      A
 Frequencies --   3268.5727              3596.2543              3652.8717
 Red. masses --      1.0977                 1.0755                 1.0806
 Frc consts  --      6.9098                 8.1949                 8.4953
 IR Inten    --      1.5525                30.8843                34.4342

 - Thermochemistry -
 -------------------
 Temperature   298.150 Kelvin.  Pressure   1.00000 Atm.
 Atom     1 has atomic number  6 and mass  12.00000

 Molecular mass:   273.15896 amu.
 Principal axes and moments of inertia in atomic units:
                           1         2         3
     Eigenvalues --  2048.80515********************
           X            0.99999   0.00063   0.00347
           Y           -0.00060   0.99997  -0.00768
           Z           -0.00347   0.00768   0.99996
 This molecule is an asymmetric top.
 Rotational symmetry number  1.
 Warning -- assumption of classical behavior for rotation
           may cause significant error
 Rotational temperatures (Kelvin)      0.04228     0.00633     0.00615
 Rotational constants (GHZ):           0.88087     0.13186     0.12816
 Zero-point vibrational energy     870085.4 (Joules/Mol)
                                  207.95539 (Kcal/Mol)
 Warning -- explicit consideration of  27 degrees of freedom as
           vibrations may cause significant error
 Vibrational temperatures:     11.51    30.53    51.38    82.40    85.31
          (Kelvin)            126.82   176.04   211.52   234.95   300.41
                              320.08   365.58   399.75   487.35   534.02
                              577.63   597.85   602.35   617.53   631.15
                              667.57   691.41   730.01   740.90   753.78
                              793.16   869.61   941.20   972.81   982.62
                              995.59  1070.64  1100.28  1129.02  1190.16
                             1199.30  1219.62  1233.19  1238.89  1292.30
                             1324.02  1342.55  1355.34  1363.41  1398.49
                             1409.61  1459.72  1491.09  1512.50  1555.10
                             1578.03  1595.27  1613.16  1627.83  1640.19
                             1646.51  1681.20  1687.15  1728.75  1753.10
                             1808.02  1816.84  1834.94  1856.00  1863.26
                             1911.70  1923.79  1935.07  1963.71  1983.26
                             1991.54  1997.20  2021.16  2032.02  2038.56
                             2050.22  2056.75  2061.18  2074.63  2093.96
                             2132.59  2151.68  2155.61  2169.13  2177.67
                             2181.14  2197.74  2218.21  2268.21  2324.24
                             2341.08  2410.90  4270.85  4303.12  4324.32
                             4334.66  4348.09  4386.12  4400.32  4437.97
                             4444.61  4448.49  4458.37  4475.10  4529.74
                             4605.31  4643.54  4689.92  4702.75  5174.21
                             5255.67

 Zero-point correction=                           0.331398 (Hartree/Particle)
 Thermal correction to Energy=                    0.348886
 Thermal correction to Enthalpy=                  0.349830
 Thermal correction to Gibbs Free Energy=         0.282386
 Sum of electronic and zero-point Energies=           -893.626263
 Sum of electronic and thermal Energies=              -893.608776
 Sum of electronic and thermal Enthalpies=            -893.607831
 Sum of electronic and thermal Free Energies=         -893.675275

                     E (Thermal)             CV                S
                      KCal/Mol        Cal/Mol-Kelvin    Cal/Mol-Kelvin
 Total                  218.929             67.922            141.947
 Electronic               0.000              0.000              0.000
 Translational            0.889              2.981             42.713
 Rotational               0.889              2.981             34.334
 Vibrational            217.152             61.960             64.900
 Vibration     1          0.593              1.987              8.455
 Vibration     2          0.593              1.985              6.516
 Vibration     3          0.594              1.982              5.484
 Vibration     4          0.596              1.975              4.549
 Vibration     5          0.597              1.974              4.481
 Vibration     6          0.601              1.958              3.701
 Vibration     7          0.610              1.930              3.063
 Vibration     8          0.617              1.906              2.710
 Vibration     9          0.623              1.887              2.511
 Vibration    10          0.642              1.827              2.054
 Vibration    11          0.648              1.807              1.939
 Vibration    12          0.665              1.756              1.702
 Vibration    13          0.679              1.714              1.547
 Vibration    14          0.719              1.598              1.218
 Vibration    15          0.743              1.531              1.075
 Vibration    16          0.767              1.467              0.957
 Vibration    17          0.779              1.437              0.907
 Vibration    18          0.782              1.430              0.897
 Vibration    19          0.791              1.407              0.861
 Vibration    20          0.799              1.386              0.831
 Vibration    21          0.822              1.330              0.755
 Vibration    22          0.837              1.293              0.709
 Vibration    23          0.863              1.234              0.640
 Vibration    24          0.870              1.217              0.622
 Vibration    25          0.879              1.197              0.601
 Vibration    26          0.907              1.137              0.542
 Vibration    27          0.963              1.022              0.442

                           ! Non-Optimized Parameters !
 Normal termination of Gaussian 16 at Sun Dec 13 17:12:43 2020.

 ----------------------------------------------------------------------
 # B3LYP/6-311++G(d,p) empiricaldispersion=gd3bj scf=xqc pop=npa geom=c
 heck
 ----------------------------------------------------------------------

 ---------------------------------------
 CID_71277125_JID_10725_Energie_neutraal
 ---------------------------------------
 Structure from the checkpoint file:  "JID_10725.chk"
 Charge =  0 Multiplicity = 1

 SCF Done:  E(RB3LYP) =  -894.201923714     A.U. after   16 cycles
 Normal termination of Gaussian 16 at Sun Dec 13 17:20:19 2020.

 ----------------------------------------------------------------------
 # B3LYP/6-311++G(d,p) empiricaldispersion=gd3bj scf=xqc pop=npa geom=c
 heck
 ----------------------------------------------------------------------

 -------------------------------------
 CID_71277125_JID_10725_Energie_kation
 -------------------------------------
 Structure from the checkpoint file:  "JID_10725.chk"
 Charge =  1 Multiplicity = 2

 SCF Done:  E(UB3LYP) =  -893.946539843     A.U. after   23 cycles
 Normal termination of Gaussian 16 at Sun Dec 13 17:35:40 2020.
 Gaussian 16:  ES64L-G16RevA.03 25-Dec-2016

 ----------------------------------------------------------------------
 # B3LYP/6-311++G(d,p) empiricaldispersion=gd3bj scf=xqc pop=npa geom=c
 heck
 ----------------------------------------------------------------------

 ------------------------------------
 CID_71277125_JID_10725_Energie_anion
 ------------------------------------
 Structure from the checkpoint file:  "JID_10725.chk"
 Charge = -1 Multiplicity = 2

                         Standard orientation:
 ---------------------------------------------------------------------
 Center     Atomic      Atomic             Coordinates (Angstroms)
 Number     Number       Type             X           Y           Z
 ---------------------------------------------------------------------
      1          6           0       -4.465364    0.690838   -0.975010
      2          6           0       -3.357918    1.749152   -0.910947
      3          8           0       -3.289512    2.310426    0.392618
      4          6           0       -2.976227    1.310781    1.361135
      5          6           0       -4.049675    0.216776    1.365315
      6          7           0       -4.318629   -0.341002    0.043668
      7          6           0       -3.736033   -1.603854   -0.350616
      8          6           0       -2.276873   -1.635347   -0.846626
      9          7           0       -1.346930   -1.345404    0.219934
     10          6           0       -0.027889   -1.001392    0.056891
     11          7           0        0.691465   -0.952956    1.194088
     12          6           0        1.966388   -0.577429    1.117123
     13          6           0        2.634267   -0.241556   -0.069498
     14          6           0        1.868406   -0.312347   -1.246903
     15          6           0        0.537454   -0.686976   -1.197940
     16          6           0        4.033620    0.160891   -0.095218
     17          6           0        4.763625    0.940438   -0.972679
     18          7           0        6.076446    1.047239   -0.573674
     19          6           0        6.160011    0.343602    0.535364
     20          7           0        4.954656   -0.206422    0.875839
     21          1           0       -5.425847    1.205301   -0.819298
     22          1           0       -4.498655    0.221332   -1.965272
     23          1           0       -2.382082    1.313707   -1.183750
     24          1           0       -3.570908    2.578316   -1.593792
     25          1           0       -2.944227    1.823208    2.327995
     26          1           0       -1.988143    0.880663    1.150205
     27          1           0       -4.981951    0.663779    1.743925
     28          1           0       -3.771259   -0.592331    2.050078
     29          1           0       -3.833741   -2.297779    0.496083
     30          1           0       -4.350455   -2.022480   -1.160126
     31          1           0       -2.082131   -2.619928   -1.307396
     32          1           0       -2.155456   -0.887402   -1.636998
     33          1           0       -1.551611   -1.718161    1.138236
     34          1           0        2.490401   -0.524507    2.071596
     35          1           0        2.333097   -0.090628   -2.203187
     36          1           0       -0.045265   -0.758449   -2.108555
     37          1           0        4.402507    1.451642   -1.854691
     38          1           0        7.050687    0.199506    1.131689
     39          1           0        4.779337   -0.840842    1.640985
 ---------------------------------------------------------------------

 SCF Done:  E(UB3LYP) =  -894.196397310     A.U. after   33 cycles
 SCF Done:  E(UB3LYP) =  -894.196397310     a.u. after    1 cycles

 The electronic state is 2-A.
 Alpha  occ. eigenvalues --  -19.04108 -14.27141 -14.23475 -14.22187 -14.20335
 Alpha  occ. eigenvalues --  -14.19852 -10.14542 -10.13202 -10.13157 -10.12550
 Alpha  occ. eigenvalues --  -10.11889 -10.11753 -10.11537 -10.11494 -10.11420
 Alpha  occ. eigenvalues --  -10.10592 -10.08821 -10.08635 -10.08252 -10.07546
 Alpha  occ. eigenvalues --   -0.95663  -0.92223  -0.87670  -0.84315  -0.81104
 Alpha  occ. eigenvalues --   -0.78030  -0.71645  -0.69024  -0.68377  -0.66575
 Alpha  occ. eigenvalues --   -0.62979  -0.59918  -0.57490  -0.55306  -0.54026
 Alpha  occ. eigenvalues --   -0.52806  -0.51250  -0.49414  -0.48244  -0.46010
 Alpha  occ. eigenvalues --   -0.44447  -0.42428  -0.40881  -0.39510  -0.39331
 Alpha  occ. eigenvalues --   -0.38959  -0.37716  -0.37359  -0.35882  -0.35238
 Alpha  occ. eigenvalues --   -0.35065  -0.34326  -0.33995  -0.32132  -0.31963
 Alpha  occ. eigenvalues --   -0.31486  -0.30790  -0.30138  -0.29721  -0.28442
 Alpha  occ. eigenvalues --   -0.28394  -0.27865  -0.26181  -0.23289  -0.22768
 Alpha  occ. eigenvalues --   -0.19458  -0.19172  -0.18711  -0.18605  -0.16595
 Alpha  occ. eigenvalues --   -0.15233  -0.11961  -0.10194   0.03686
 Alpha virt. eigenvalues --    0.04989   0.05807   0.06430   0.06766   0.07225
 Alpha virt. eigenvalues --    0.07523   0.08409   0.08634   0.08900   0.09271
 Alpha virt. eigenvalues --    0.09622   0.10296   0.10803   0.11338   0.11997

  Beta  occ. eigenvalues --  -19.04105 -14.27090 -14.23476 -14.22185 -14.20334
  Beta  occ. eigenvalues --  -14.19699 -10.14532 -10.13198 -10.13149 -10.12547
  Beta  occ. eigenvalues --  -10.11866 -10.11733 -10.11528 -10.11488 -10.11402
  Beta  occ. eigenvalues --  -10.10543 -10.08819 -10.08662 -10.08090 -10.07516
  Beta  occ. eigenvalues --   -0.95656  -0.92188  -0.87571  -0.84284  -0.80993
  Beta  occ. eigenvalues --   -0.77977  -0.71481  -0.69009  -0.68282  -0.66511
  Beta  occ. eigenvalues --   -0.62924  -0.59887  -0.57466  -0.55222  -0.53855
  Beta  occ. eigenvalues --   -0.52735  -0.51159  -0.49380  -0.48202  -0.45947
  Beta  occ. eigenvalues --   -0.44362  -0.42387  -0.40838  -0.39499  -0.39307
  Beta  occ. eigenvalues --   -0.38921  -0.37682  -0.37298  -0.35841  -0.35162
  Beta  occ. eigenvalues --   -0.35002  -0.34292  -0.33945  -0.32107  -0.31943
  Beta  occ. eigenvalues --   -0.31462  -0.30584  -0.29938  -0.29674  -0.28408
  Beta  occ. eigenvalues --   -0.28363  -0.27802  -0.26155  -0.23279  -0.22595
  Beta  occ. eigenvalues --   -0.19402  -0.18942  -0.18666  -0.18139  -0.16430
  Beta  occ. eigenvalues --   -0.15127  -0.11924  -0.10009
  Beta virt. eigenvalues --    0.05712   0.06558   0.06626   0.07022   0.07075
  Beta virt. eigenvalues --    0.07344   0.07714   0.08575   0.08847   0.09142
  Beta virt. eigenvalues --    0.09621   0.09777   0.10370   0.10842   0.11428

 Mulliken charges and spin densities:
               1          2
     1  C   -0.072827  -0.176621
     2  C   -0.109189  -0.201689
     3  O   -0.126105   0.003345
     4  C   -0.445684   0.156408
     5  C   -0.016404  -0.282918
     6  N   -0.016531   0.161624
     7  C    0.462231  -1.250646
     8  C   -0.195080   0.402097
     9  N   -0.151503   0.026751
    10  C    0.022279  -0.793989
    11  N   -0.037066   0.088994
    12  C   -0.386392  -0.233675
    13  C    0.963765  -0.276178
    14  C   -0.476964   0.554089
    15  C   -0.424775   0.302931
    16  C    0.834641  -0.744079
    17  C   -0.588499   0.009308
    18  N   -0.164202   0.009997
    19  C    0.243200  -0.127002
    20  N   -0.038228  -0.095826
    21  H    0.080292   0.083021
    22  H   -0.318681   0.461958
    23  H    0.214499  -0.089006
    24  H    0.090656   0.085022
    25  H    0.114139   0.062311
    26  H    0.273874  -0.050351
    27  H    0.084135   0.072923
    28  H    0.047379   0.038350
    29  H    0.016880   0.135218
    30  H   -0.421687   0.608139
    31  H   -0.269514   0.463775
    32  H    0.393166  -0.345872
    33  H    0.329299  -0.019339
    34  H   -0.277472   0.434636
    35  H    0.153511  -0.007374
    36  H   -0.329017   0.484810
    37  H    0.069844   0.044232
    38  H   -0.285502   0.450432
    39  H   -0.242467   0.554196
 Sum of Mulliken charges =  -1.00000   1.00000

 Dipole moment (field-independent basis, Debye):
    X=             -4.9562    Y=              1.6338    Z=              0.3980  Tot=              5.2337
 Quadrupole moment (field-independent basis, Debye-Ang):
   XX=           -247.8598   YY=           -159.1686   ZZ=           -151.4947
   XY=             -7.7116   XZ=            -15.0200   YZ=             -3.4685

 Summary of Natural Population Analysis:

                                       Natural Population
                Natural  -----------------------------------------------
    Atom  No    Charge         Core      Valence    Rydberg      Total
 -----------------------------------------------------------------------
      C    1   -0.09839      0.99961     2.08684    0.01193     3.09839
      C    2   -0.02132      0.99959     2.00908    0.01266     3.02132
      O    3   -0.30009      0.99989     3.29180    0.00840     4.30009
      C    4   -0.02370      0.99958     2.01299    0.01113     3.02370
      C    5   -0.09476      0.99961     2.08425    0.01089     3.09476
      N    6   -0.28425      0.99972     2.76944    0.01508     3.78425
      C    7   -0.07954      0.99960     2.06658    0.01336     3.07954
      C    8   -0.09526      0.99961     2.08453    0.01111     3.09526
      N    9   -0.31768      0.99967     2.80723    0.01078     3.81768
      C   10    0.20498      0.99954     1.78100    0.01448     2.79502
      N   11   -0.24100      0.99968     2.73078    0.01055     3.74100
      C   12    0.05077      0.99956     1.93569    0.01398     2.94923
      C   13   -0.08809      0.99949     2.08022    0.00839     3.08809
      C   14   -0.03369      0.99955     2.02687    0.00727     3.03369
      C   15   -0.14618      0.99952     2.13903    0.00763     3.14618
      C   16    0.05388      0.99952     1.93284    0.01376     2.94612
      C   17   -0.03436      0.99953     2.02252    0.01231     3.03436
      N   18   -0.25687      0.99973     2.74702    0.01012     3.75687
      C   19    0.09535      0.99966     1.88592    0.01907     2.90465
      N   20   -0.26849      0.99966     2.75838    0.01045     3.76849
      H   21    0.09178      0.00000     0.40696    0.00125     0.40822
      H   22    0.10061      0.00000     0.39810    0.00129     0.39939
      H   23    0.08021      0.00000     0.41820    0.00159     0.41979
      H   24    0.08897      0.00000     0.40989    0.00113     0.41103
      H   25    0.08800      0.00000     0.41095    0.00105     0.41200
      H   26    0.09134      0.00000     0.40710    0.00156     0.40866
      H   27    0.08949      0.00000     0.40924    0.00127     0.41051
      H   28    0.09711      0.00000     0.40184    0.00105     0.40289
      H   29    0.09222      0.00000     0.40665    0.00114     0.40778
      H   30    0.09923      0.00000     0.39908    0.00169     0.40077
      H   31    0.09092      0.00000     0.40714    0.00194     0.40908
      H   32    0.09261      0.00000     0.40497    0.00242     0.40739
      H   33    0.18912      0.00000     0.30784    0.00304     0.31088
      H   34    0.08721      0.00000     0.41116    0.00163     0.41279
      H   35    0.09781      0.00000     0.40081    0.00138     0.40219
      H   36    0.10317      0.00000     0.39573    0.00110     0.39683
      H   37    0.09642      0.00000     0.40258    0.00100     0.40358
      H   38    0.09256      0.00000     0.40608    0.00136     0.40744
      H   39    0.20990      0.00000     0.28133    0.00877     0.29010
 =======================================================================
   * Total *    0.00000     19.99233    52.73866    0.26902    73.00000

 Normal termination of Gaussian 16 at Sun Dec 13 17:58:14 2020.
