 Gaussian 16, Revision A.03,

 -----------------------------------------------------------
 # opt freq B3LYP/6-31G(d) empiricaldispersion=gd3bj scf=xqc
 -----------------------------------------------------------

 -------------------------------
 CID_131589062_JID_5673_neutraal
 -------------------------------
 Symbolic Z-matrix:
 Charge =  0 Multiplicity = 1

 SCF Done:  E(RB3LYP) =  -706.259947782     A.U. after   15 cycles
 SCF Done:  E(RB3LYP) =  -706.263074071     A.U. after   13 cycles
 SCF Done:  E(RB3LYP) =  -706.263004347     A.U. after   13 cycles
 SCF Done:  E(RB3LYP) =  -706.263223758     A.U. after   13 cycles
 SCF Done:  E(RB3LYP) =  -706.264139740     A.U. after   13 cycles
 SCF Done:  E(RB3LYP) =  -706.264262171     A.U. after   12 cycles
 SCF Done:  E(RB3LYP) =  -706.264496359     A.U. after   11 cycles
 SCF Done:  E(RB3LYP) =  -706.264632591     A.U. after   11 cycles
 SCF Done:  E(RB3LYP) =  -706.264711783     A.U. after   11 cycles
 SCF Done:  E(RB3LYP) =  -706.264719834     A.U. after   10 cycles
 SCF Done:  E(RB3LYP) =  -706.264850014     A.U. after   11 cycles
 SCF Done:  E(RB3LYP) =  -706.264850713     A.U. after    9 cycles
 SCF Done:  E(RB3LYP) =  -706.264847426     A.U. after   10 cycles
 SCF Done:  E(RB3LYP) =  -706.264851308     A.U. after   10 cycles
 SCF Done:  E(RB3LYP) =  -706.264851325     A.U. after    7 cycles
 SCF Done:  E(RB3LYP) =  -706.264851327     A.U. after    6 cycles
 Optimization completed.
    -- Stationary point found.
 Normal termination of Gaussian 16 at Thu Dec 10 16:46:55 2020.

 --------------------------------------------------------------------
 #N Geom=AllCheck Guess=TCheck SCRF=Check GenChk RB3LYP/6-31G(d) Freq
 --------------------------------------------------------------------

 Structure from the checkpoint file:  "JID_5673.chk"
 -------------------------------
 CID_131589062_JID_5673_neutraal
 -------------------------------
 Charge =  0 Multiplicity = 1

 SCF Done:  E(RB3LYP) =  -706.264851327     A.U. after    1 cycles

  Exact polarizability: 156.765  11.320 144.028 -11.254   1.649  77.358
 Approx polarizability: 232.788  25.922 240.520 -25.117   2.739 119.103

                      1                      2                      3
                      A                      A                      A
 Frequencies --     29.4246                29.8954                53.7052
 Red. masses --      2.1989                 1.6633                 6.1661
 Frc consts  --      0.0011                 0.0009                 0.0105
 IR Inten    --      0.0589                 0.5399                 1.3615

                      4                      5                      6
                      A                      A                      A
 Frequencies --     68.6187               114.6243               124.9050
 Red. masses --      5.2270                 5.1632                 5.5295
 Frc consts  --      0.0145                 0.0400                 0.0508
 IR Inten    --      0.7529                 2.1462                 2.9253

                      7                      8                      9
                      A                      A                      A
 Frequencies --    142.3112               176.5778               186.3046
 Red. masses --      6.2357                 4.7460                 4.2519
 Frc consts  --      0.0744                 0.0872                 0.0870
 IR Inten    --      4.5604                 0.6561                 1.6824

                     10                     11                     12
                      A                      A                      A
 Frequencies --    254.5476               290.2004               314.0216
 Red. masses --      2.6808                 3.4422                 3.2503
 Frc consts  --      0.1023                 0.1708                 0.1888
 IR Inten    --      2.2212                 1.7733                17.2453

                     13                     14                     15
                      A                      A                      A
 Frequencies --    337.8627               371.7794               382.9695
 Red. masses --      4.9866                 2.8649                 1.4511
 Frc consts  --      0.3354                 0.2333                 0.1254
 IR Inten    --      2.1648                33.5098               127.0645

                     16                     17                     18
                      A                      A                      A
 Frequencies --    423.4962               450.4580               498.8333
 Red. masses --      3.5971                 5.9014                 5.1491
 Frc consts  --      0.3801                 0.7055                 0.7549
 IR Inten    --      9.6226                 1.9589                 2.9919

                     19                     20                     21
                      A                      A                      A
 Frequencies --    518.6570               520.8288               561.0139
 Red. masses --      2.8389                 2.6522                 4.3119
 Frc consts  --      0.4500                 0.4239                 0.7996
 IR Inten    --     23.9116                 9.5514                 9.3484

                     22                     23                     24
                      A                      A                      A
 Frequencies --    595.2509               606.6889               620.7770
 Red. masses --      5.1317                 4.5651                 3.5748
 Frc consts  --      1.0713                 0.9900                 0.8117
 IR Inten    --      3.2604                21.2402                28.8535

                     25                     26                     27
                      A                      A                      A
 Frequencies --    674.9377               703.5841               747.6619
 Red. masses --      5.0548                 1.4916                 4.3353
 Frc consts  --      1.3567                 0.4350                 1.4278
 IR Inten    --      5.4136                89.3238                 4.8903

                     28                     29                     30
                      A                      A                      A
 Frequencies --    842.3644               861.7723               889.4917
 Red. masses --      6.2761                 3.4808                 1.4101
 Frc consts  --      2.6239                 1.5231                 0.6573
 IR Inten    --      8.1356                 4.5499                16.4278

                     31                     32                     33
                      A                      A                      A
 Frequencies --    906.7093               925.9787               975.2853
 Red. masses --      2.4802                 1.4108                 3.5505
 Frc consts  --      1.2014                 0.7127                 1.9898
 IR Inten    --      3.4069                 1.8862                 3.0821

                     34                     35                     36
                      A                      A                      A
 Frequencies --    992.1946              1037.8694              1044.5684
 Red. masses --      2.3671                 1.6924                 2.2463
 Frc consts  --      1.3730                 1.0741                 1.4441
 IR Inten    --     24.9270                10.2133                 0.7215

                     37                     38                     39
                      A                      A                      A
 Frequencies --   1077.8908              1085.3630              1172.4934
 Red. masses --      1.5192                 4.8224                 2.6945
 Frc consts  --      1.0399                 3.3471                 2.1825
 IR Inten    --      4.9691                60.7856                 2.8510

                     40                     41                     42
                      A                      A                      A
 Frequencies --   1188.1915              1227.6401              1235.8100
 Red. masses --      2.6600                 1.1700                 1.3302
 Frc consts  --      2.2126                 1.0389                 1.1969
 IR Inten    --    227.9093                 8.7998                 6.0117

                     43                     44                     45
                      A                      A                      A
 Frequencies --   1244.2834              1289.7031              1324.2790
 Red. masses --      1.5978                 1.5389                 5.5579
 Frc consts  --      1.4575                 1.5081                 5.7427
 IR Inten    --      0.7516                 3.5707                 4.3932

                     46                     47                     48
                      A                      A                      A
 Frequencies --   1350.4859              1357.8894              1367.4192
 Red. masses --      1.7193                 1.9709                 2.1754
 Frc consts  --      1.8475                 2.1411                 2.3966
 IR Inten    --      0.7982                 8.6631                24.7862

                     49                     50                     51
                      A                      A                      A
 Frequencies --   1380.7100              1444.4671              1445.8969
 Red. masses --      1.5783                 1.2698                 1.3233
 Frc consts  --      1.7728                 1.5610                 1.6300
 IR Inten    --      4.2660                39.3389                34.1964

                     52                     53                     54
                      A                      A                      A
 Frequencies --   1460.6855              1490.2254              1515.7242
 Red. masses --      2.6555                 1.1279                 1.0473
 Frc consts  --      3.3382                 1.4758                 1.4176
 IR Inten    --      8.2699                 9.9270                 6.5715

                     55                     56                     57
                      A                      A                      A
 Frequencies --   1518.6290              1525.8170              1541.1684
 Red. masses --      3.3043                 1.1408                 1.1078
 Frc consts  --      4.4898                 1.5648                 1.5503
 IR Inten    --     27.4006                 8.3436                 2.5908

                     58                     59                     60
                      A                      A                      A
 Frequencies --   1631.3241              1665.5429              1863.6077
 Red. masses --      6.2851                 5.7060                10.0746
 Frc consts  --      9.8546                 9.3260                20.6152
 IR Inten    --      0.8157                 5.8828               362.2801

                     61                     62                     63
                      A                      A                      A
 Frequencies --   2347.5259              3015.8016              3049.5998
 Red. masses --     12.6816                 1.0673                 1.0385
 Frc consts  --     41.1761                 5.7190                 5.6906
 IR Inten    --     25.8209                59.3039                25.7395

                     64                     65                     66
                      A                      A                      A
 Frequencies --   3069.4531              3088.7829              3105.5542
 Red. masses --      1.0964                 1.0629                 1.0992
 Frc consts  --      6.0861                 5.9745                 6.2463
 IR Inten    --     25.6592                 4.0507                15.5604

                     67                     68                     69
                      A                      A                      A
 Frequencies --   3134.8788              3135.0186              3174.6842
 Red. masses --      1.1019                 1.1000                 1.0898
 Frc consts  --      6.3799                 6.3697                 6.4715
 IR Inten    --     13.3754                 0.2817                13.8350

                     70                     71                     72
                      A                      A                      A
 Frequencies --   3209.2449              3679.8903              3737.2293
 Red. masses --      1.0916                 1.0639                 1.0663
 Frc consts  --      6.6238                 8.4879                 8.7745
 IR Inten    --      4.2424                61.8167                26.3105

 - Thermochemistry -
 -------------------
 Temperature   298.150 Kelvin.  Pressure   1.00000 Atm.
 Atom     1 has atomic number  6 and mass  12.00000

 Molecular mass:   205.07389 amu.
 Principal axes and moments of inertia in atomic units:
                           1         2         3
     Eigenvalues --  2205.706443514.513345152.19713
           X            0.99993   0.00689  -0.00963
           Y           -0.00682   0.99995   0.00683
           Z            0.00967  -0.00676   0.99993
 This molecule is an asymmetric top.
 Rotational symmetry number  1.
 Warning -- assumption of classical behavior for rotation
           may cause significant error
 Rotational temperatures (Kelvin)      0.03927     0.02464     0.01681
 Rotational constants (GHZ):           0.81821     0.51351     0.35029
 Zero-point vibrational energy     534904.7 (Joules/Mol)
                                  127.84529 (Kcal/Mol)
 Warning -- explicit consideration of  24 degrees of freedom as
           vibrations may cause significant error
 Vibrational temperatures:     42.34    43.01    77.27    98.73   164.92
          (Kelvin)            179.71   204.75   254.06   268.05   366.24
                              417.53   451.81   486.11   534.91   551.01
                              609.32   648.11   717.71   746.23   749.36
                              807.17   856.43   872.89   893.16   971.08
                             1012.30  1075.72  1211.97  1239.90  1279.78
                             1304.55  1332.28  1403.22  1427.55  1493.26
                             1502.90  1550.84  1561.60  1686.96  1709.54
                             1766.30  1778.05  1790.25  1855.60  1905.34
                             1943.05  1953.70  1967.41  1986.53  2078.27
                             2080.32  2101.60  2144.10  2180.79  2184.97
                             2195.31  2217.40  2347.11  2396.34  2681.32
                             3377.57  4339.07  4387.69  4416.26  4444.07
                             4468.20  4510.39  4510.59  4567.66  4617.39
                             5294.54  5377.04

 Zero-point correction=                           0.203734 (Hartree/Particle)
 Thermal correction to Energy=                    0.218375
 Thermal correction to Enthalpy=                  0.219319
 Thermal correction to Gibbs Free Energy=         0.160448
 Sum of electronic and zero-point Energies=           -706.061117
 Sum of electronic and thermal Energies=              -706.046476
 Sum of electronic and thermal Enthalpies=            -706.045532
 Sum of electronic and thermal Free Energies=         -706.104404

                     E (Thermal)             CV                S
                      KCal/Mol        Cal/Mol-Kelvin    Cal/Mol-Kelvin
 Total                  137.032             53.304            123.906
 Electronic               0.000              0.000              0.000
 Translational            0.889              2.981             41.859
 Rotational               0.889              2.981             32.057
 Vibrational            135.255             47.342             49.989
 Vibration     1          0.593              1.984              5.868
 Vibration     2          0.594              1.984              5.836
 Vibration     3          0.596              1.976              4.676
 Vibration     4          0.598              1.969              4.193
 Vibration     5          0.608              1.937              3.189
 Vibration     6          0.610              1.928              3.023
 Vibration     7          0.616              1.911              2.773
 Vibration     8          0.628              1.871              2.364
 Vibration     9          0.632              1.859              2.264
 Vibration    10          0.665              1.755              1.699
 Vibration    11          0.686              1.692              1.473
 Vibration    12          0.702              1.647              1.341
 Vibration    13          0.718              1.600              1.222
 Vibration    14          0.743              1.530              1.072
 Vibration    15          0.752              1.507              1.027
 Vibration    16          0.786              1.419              0.880
 Vibration    17          0.809              1.360              0.794
 Vibration    18          0.854              1.253              0.661
 Vibration    19          0.874              1.209              0.613
 Vibration    20          0.876              1.204              0.608
 Vibration    21          0.917              1.116              0.522
 Vibration    22          0.953              1.042              0.458
 Vibration    23          0.965              1.018              0.438
 Vibration    24          0.981              0.988              0.415

 Optimization completed.
    -- Stationary point found.
 Normal termination of Gaussian 16 at Thu Dec 10 16:56:16 2020.

 ----------------------------------------------------------------------
 # B3LYP/6-311++G(d,p) empiricaldispersion=gd3bj scf=xqc pop=npa geom=c
 heck
 ----------------------------------------------------------------------

 ---------------------------------------
 CID_131589062_JID_5673_Energie_neutraal
 ---------------------------------------
 Structure from the checkpoint file:  "JID_5673.chk"
 Charge =  0 Multiplicity = 1

 SCF Done:  E(RB3LYP) =  -706.476541410     A.U. after   16 cycles
 Normal termination of Gaussian 16 at Thu Dec 10 17:00:29 2020.

 ----------------------------------------------------------------------
 # B3LYP/6-311++G(d,p) empiricaldispersion=gd3bj scf=xqc pop=npa geom=c
 heck
 ----------------------------------------------------------------------

 -------------------------------------
 CID_131589062_JID_5673_Energie_kation
 -------------------------------------
 Structure from the checkpoint file:  "JID_5673.chk"
 Charge =  1 Multiplicity = 2

 SCF Done:  E(UB3LYP) =  -706.146616378     A.U. after   27 cycles
 Normal termination of Gaussian 16 at Thu Dec 10 17:11:14 2020.
 Gaussian 16:  ES64L-G16RevA.03 25-Dec-2016

 ----------------------------------------------------------------------
 # B3LYP/6-311++G(d,p) empiricaldispersion=gd3bj scf=xqc pop=npa geom=c
 heck
 ----------------------------------------------------------------------

 ------------------------------------
 CID_131589062_JID_5673_Energie_anion
 ------------------------------------
 Structure from the checkpoint file:  "JID_5673.chk"
 Charge = -1 Multiplicity = 2

                         Standard orientation:
 ---------------------------------------------------------------------
 Center     Atomic      Atomic             Coordinates (Angstroms)
 Number     Number       Type             X           Y           Z
 ---------------------------------------------------------------------
      1          6           0       -4.157216   -0.234745    0.536326
      2          6           0       -2.694855   -0.110049    0.188919
      3          6           0       -1.918086   -1.246048   -0.071503
      4          6           0       -0.568386   -1.169650   -0.419142
      5          6           0        0.058681    0.085986   -0.510667
      6          6           0       -0.714297    1.228383   -0.230682
      7          6           0       -2.071855    1.131934    0.112278
      8          6           0       -0.108408    2.526515   -0.277949
      9          7           0        0.391120    3.576429   -0.316472
     10          6           0        1.513874    0.228986   -0.879398
     11          6           0        2.504054    0.189460    0.275124
     12          8           0        3.694005    0.341651    0.150197
     13          8           0        1.918280   -0.016017    1.487459
     14          6           0        0.202352   -2.449526   -0.668606
     15          8           0        1.409365   -2.542073    0.078436
     16          1           0       -4.555741    0.705515    0.928119
     17          1           0       -4.750238   -0.505268   -0.346223
     18          1           0       -4.322223   -1.013725    1.288801
     19          1           0       -2.381207   -2.227831    0.003337
     20          1           0       -2.628986    2.039744    0.321228
     21          1           0        1.831168   -0.558702   -1.567268
     22          1           0        1.690610    1.182029   -1.388269
     23          1           0        2.648181    0.018275    2.134894
     24          1           0       -0.454667   -3.308360   -0.465836
     25          1           0        0.504809   -2.520268   -1.720723
     26          1           0        1.232114   -2.202384    0.970307
 ---------------------------------------------------------------------

 SCF Done:  E(UB3LYP) =  -706.487349965     A.U. after   32 cycles

 The electronic state is 2-A.
 Alpha  occ. eigenvalues --  -19.06592 -19.01150 -19.00554 -14.14079 -10.19624
 Alpha  occ. eigenvalues --  -10.10495 -10.06505 -10.05200 -10.04347 -10.04033
 Alpha  occ. eigenvalues --  -10.03932 -10.03876 -10.03520 -10.02973 -10.01489
 Alpha  occ. eigenvalues --   -1.00364  -0.91574  -0.91271  -0.75006  -0.72464
 Alpha  occ. eigenvalues --   -0.67124  -0.63741  -0.62217  -0.56237  -0.54704
 Alpha  occ. eigenvalues --   -0.50487  -0.49191  -0.45149  -0.39775  -0.38434
 Alpha  occ. eigenvalues --   -0.38013  -0.36793  -0.35885  -0.33570  -0.33481
 Alpha  occ. eigenvalues --   -0.32524  -0.30289  -0.29918  -0.29117  -0.28085
 Alpha  occ. eigenvalues --   -0.27789  -0.26094  -0.24484  -0.23986  -0.22519
 Alpha  occ. eigenvalues --   -0.21997  -0.20865  -0.20236  -0.19391  -0.17944
 Alpha  occ. eigenvalues --   -0.17480  -0.16637  -0.11629  -0.10873   0.04913
 Alpha virt. eigenvalues --    0.07820   0.08363   0.09326   0.10403   0.10747
 Alpha virt. eigenvalues --    0.10910   0.11620   0.11975   0.12624   0.12736
 Alpha virt. eigenvalues --    0.14072   0.14753   0.15096   0.16559   0.16648

  Beta  occ. eigenvalues --  -19.06584 -19.01149 -19.00549 -14.13706 -10.19590
  Beta  occ. eigenvalues --  -10.10494 -10.06522 -10.05202 -10.04356 -10.04078
  Beta  occ. eigenvalues --  -10.03927 -10.03657 -10.03177 -10.02856 -10.01073
  Beta  occ. eigenvalues --   -1.00342  -0.91564  -0.91267  -0.74454  -0.72004
  Beta  occ. eigenvalues --   -0.66861  -0.63430  -0.61933  -0.55938  -0.54455
  Beta  occ. eigenvalues --   -0.50318  -0.48452  -0.45066  -0.39664  -0.38292
  Beta  occ. eigenvalues --   -0.37961  -0.36631  -0.35752  -0.33397  -0.33289
  Beta  occ. eigenvalues --   -0.32463  -0.30134  -0.29776  -0.29035  -0.28016
  Beta  occ. eigenvalues --   -0.27644  -0.25989  -0.24391  -0.22737  -0.22177
  Beta  occ. eigenvalues --   -0.21867  -0.20578  -0.19922  -0.18360  -0.17663
  Beta  occ. eigenvalues --   -0.17130  -0.16527  -0.10315  -0.08845
  Beta virt. eigenvalues --    0.07776   0.08304   0.09235   0.10139   0.10576
  Beta virt. eigenvalues --    0.10932   0.11444   0.11583   0.12276   0.12645
  Beta virt. eigenvalues --    0.12784   0.14031   0.14730   0.15039   0.16510

 Mulliken charges and spin densities:
               1          2
     1  C   -0.369840  -0.013687
     2  C    1.218830  -0.024232
     3  C   -1.138675   0.463443
     4  C    0.745587  -0.092710
     5  C    1.292056   0.137427
     6  C    1.182403   0.293234
     7  C   -1.748674   0.096674
     8  C   -1.637670  -0.111051
     9  N   -0.315705   0.195521
    10  C   -0.287107  -0.035553
    11  C   -0.244279   0.014619
    12  O   -0.285972   0.002648
    13  O   -0.210376   0.002485
    14  C   -0.761543   0.024468
    15  O   -0.193700   0.010153
    16  H    0.127413  -0.001779
    17  H    0.128595   0.016016
    18  H    0.094244   0.037333
    19  H    0.055819  -0.032972
    20  H    0.097263  -0.005421
    21  H    0.225422  -0.003874
    22  H    0.230526   0.015852
    23  H    0.279964   0.003291
    24  H    0.159116  -0.000242
    25  H    0.130194   0.008443
    26  H    0.226108  -0.000084
 Sum of Mulliken charges =  -1.00000   1.00000

 Dipole moment (field-independent basis, Debye):
    X=             -1.1474    Y=             -5.3247    Z=              1.6097  Tot=              5.6798
 Quadrupole moment (field-independent basis, Debye-Ang):
   XX=           -121.7270   YY=           -131.1959   ZZ=            -90.7312
   XY=             -4.0490   XZ=              3.8934   YZ=              2.1025

 Summary of Natural Population Analysis:

                                       Natural Population
                Natural  -----------------------------------------------
    Atom  No    Charge         Core      Valence    Rydberg      Total
 -----------------------------------------------------------------------
      C    1   -0.28693      0.99964     2.28254    0.00474     3.28693
      C    2   -0.02744      0.99951     2.01949    0.00843     3.02744
      C    3   -0.01831      0.99948     2.00817    0.01066     3.01831
      C    4   -0.05403      0.99946     2.04380    0.01077     3.05403
      C    5    0.01891      0.99949     1.96501    0.01659     2.98109
      C    6    0.02052      0.99938     1.96753    0.01258     2.97948
      C    7   -0.07161      0.99954     2.05828    0.01379     3.07161
      C    8    0.12720      0.99971     1.85181    0.02128     2.87280
      N    9   -0.15927      0.99978     2.64799    0.01150     3.65927
      C   10   -0.25417      0.99954     2.24393    0.01070     3.25417
      C   11    0.42350      0.99972     1.55173    0.02506     2.57650
      O   12   -0.31499      0.99986     3.30811    0.00702     4.31499
      O   13   -0.34635      0.99988     3.33924    0.00724     4.34635
      C   14   -0.01258      0.99956     2.00099    0.01203     3.01258
      O   15   -0.37544      0.99990     3.36883    0.00670     4.37544
      H   16    0.09594      0.00000     0.40316    0.00090     0.40406
      H   17    0.09654      0.00000     0.40229    0.00117     0.40346
      H   18    0.09670      0.00000     0.40221    0.00109     0.40330
      H   19    0.08389      0.00000     0.41505    0.00105     0.41611
      H   20    0.09258      0.00000     0.40616    0.00126     0.40742
      H   21    0.11787      0.00000     0.38100    0.00113     0.38213
      H   22    0.12485      0.00000     0.37409    0.00106     0.37515
      H   23    0.23337      0.00000     0.26238    0.00425     0.26663
      H   24    0.07663      0.00000     0.42194    0.00144     0.42337
      H   25    0.08199      0.00000     0.41679    0.00122     0.41801
      H   26    0.23296      0.00000     0.26452    0.00252     0.26704
 =======================================================================
   * Total *    0.00233     14.99447    38.80703    0.19617    53.99767

 Normal termination of Gaussian 16 at Thu Dec 10 17:22:45 2020.
