 Gaussian 16, Revision A.03,

 -----------------------------------------------------------
 # opt freq B3LYP/6-31G(d) empiricaldispersion=gd3bj scf=xqc
 -----------------------------------------------------------

 ------------------------------
 CID_67867875_JID_3427_neutraal
 ------------------------------
 Symbolic Z-matrix:
 Charge =  0 Multiplicity = 1

 SCF Done:  E(RB3LYP) =  -617.614716150     A.U. after   12 cycles
 SCF Done:  E(RB3LYP) =  -617.618186949     A.U. after   10 cycles
 SCF Done:  E(RB3LYP) =  -617.618367618     A.U. after   11 cycles
 SCF Done:  E(RB3LYP) =  -617.618439139     A.U. after   11 cycles
 SCF Done:  E(RB3LYP) =  -617.618481327     A.U. after    9 cycles
 SCF Done:  E(RB3LYP) =  -617.618490531     A.U. after    8 cycles
 SCF Done:  E(RB3LYP) =  -617.618497117     A.U. after    9 cycles
 SCF Done:  E(RB3LYP) =  -617.618501130     A.U. after    9 cycles
 SCF Done:  E(RB3LYP) =  -617.618526273     A.U. after    9 cycles
 SCF Done:  E(RB3LYP) =  -617.613021557     A.U. after   11 cycles
 SCF Done:  E(RB3LYP) =  -617.618672021     A.U. after    8 cycles
 SCF Done:  E(RB3LYP) =  -617.616916697     A.U. after   11 cycles
 SCF Done:  E(RB3LYP) =  -617.618777512     A.U. after    9 cycles
 SCF Done:  E(RB3LYP) =  -617.618782700     A.U. after    9 cycles
 SCF Done:  E(RB3LYP) =  -617.618783097     A.U. after    7 cycles
 SCF Done:  E(RB3LYP) =  -617.618783111     A.U. after    6 cycles
 Optimization completed.
    -- Stationary point found.
 Normal termination of Gaussian 16 at Wed Dec  9 23:24:04 2020.

 --------------------------------------------------------------------
 #N Geom=AllCheck Guess=TCheck SCRF=Check GenChk RB3LYP/6-31G(d) Freq
 --------------------------------------------------------------------

 Structure from the checkpoint file:  "JID_3427.chk"
 ------------------------------
 CID_67867875_JID_3427_neutraal
 ------------------------------
 Charge =  0 Multiplicity = 1

 SCF Done:  E(RB3LYP) =  -617.618783111     A.U. after    1 cycles

  Exact polarizability: 125.923   0.097 100.462  -1.123   1.183 101.632
 Approx polarizability: 153.835  -1.922 145.333  -2.709   1.673 147.504

                      1                      2                      3
                      A                      A                      A
 Frequencies --     32.1695                72.8097                96.5857
 Red. masses --      3.4187                 3.2341                 3.5307
 Frc consts  --      0.0021                 0.0101                 0.0194
 IR Inten    --      0.0729                 0.3685                 0.2616

                      4                      5                      6
                      A                      A                      A
 Frequencies --    134.3970               173.6274               208.7284
 Red. masses --      2.6207                 2.6173                 1.6386
 Frc consts  --      0.0279                 0.0465                 0.0421
 IR Inten    --      0.8818                 1.5810                 1.6780

                      7                      8                      9
                      A                      A                      A
 Frequencies --    231.6119               247.7596               262.9044
 Red. masses --      1.2366                 1.9668                 1.9461
 Frc consts  --      0.0391                 0.0711                 0.0793
 IR Inten    --      0.2255                 1.3514                 0.1439

                     10                     11                     12
                      A                      A                      A
 Frequencies --    298.2398               331.3327               356.9362
 Red. masses --      1.9263                 2.2219                 2.3758
 Frc consts  --      0.1010                 0.1437                 0.1783
 IR Inten    --      3.1330                 4.1338                 3.6353

                     13                     14                     15
                      A                      A                      A
 Frequencies --    388.3028               417.5366               466.1801
 Red. masses --      2.4202                 3.3556                 2.7637
 Frc consts  --      0.2150                 0.3447                 0.3539
 IR Inten    --      0.7350                 2.2817                 1.6350

                     16                     17                     18
                      A                      A                      A
 Frequencies --    488.9761               540.2599               594.2351
 Red. masses --      3.5443                 4.1310                 5.7065
 Frc consts  --      0.4993                 0.7104                 1.1872
 IR Inten    --      2.3822                 0.7146                 0.8572

                     19                     20                     21
                      A                      A                      A
 Frequencies --    627.5692               639.9961               737.9411
 Red. masses --      5.1560                 3.4574                 2.5035
 Frc consts  --      1.1964                 0.8344                 0.8032
 IR Inten    --      0.7570                 2.7118                 3.7312

                     22                     23                     24
                      A                      A                      A
 Frequencies --    765.5340               809.2501               830.2735
 Red. masses --      1.5943                 2.2962                 2.8064
 Frc consts  --      0.5505                 0.8860                 1.1399
 IR Inten    --      5.0243                 8.1230                 1.6611

                     25                     26                     27
                      A                      A                      A
 Frequencies --    871.5851               891.7208               895.5112
 Red. masses --      2.0902                 2.5802                 2.0862
 Frc consts  --      0.9355                 1.2088                 0.9857
 IR Inten    --     27.2107                24.9567                 6.6086

                     28                     29                     30
                      A                      A                      A
 Frequencies --    912.3432               954.3439               964.0385
 Red. masses --      2.8399                 1.9722                 2.3533
 Frc consts  --      1.3927                 1.0583                 1.2886
 IR Inten    --     27.8582                21.9051                10.2341

                     31                     32                     33
                      A                      A                      A
 Frequencies --    991.3824               993.9952              1003.7743
 Red. masses --      2.8057                 2.0572                 2.1483
 Frc consts  --      1.6247                 1.1975                 1.2753
 IR Inten    --     53.6147                36.7959                88.7773

                     34                     35                     36
                      A                      A                      A
 Frequencies --   1017.0311              1029.4177              1055.7479
 Red. masses --      1.6471                 2.1455                 2.2401
 Frc consts  --      1.0038                 1.3396                 1.4711
 IR Inten    --     35.7678                35.4966                 7.8562

                     37                     38                     39
                      A                      A                      A
 Frequencies --   1099.4813              1125.0005              1143.3654
 Red. masses --      2.0089                 1.9935                 2.2833
 Frc consts  --      1.4308                 1.4865                 1.7586
 IR Inten    --      7.6035                20.8453                42.6589

                     40                     41                     42
                      A                      A                      A
 Frequencies --   1149.1097              1159.2453              1161.4631
 Red. masses --      2.4337                 2.1486                 2.4260
 Frc consts  --      1.8934                 1.7012                 1.9282
 IR Inten    --     85.7948                32.6952                32.8933

                     43                     44                     45
                      A                      A                      A
 Frequencies --   1171.9158              1232.5388              1233.2734
 Red. masses --      2.0866                 1.1451                 1.1407
 Frc consts  --      1.6884                 1.0250                 1.0222
 IR Inten    --      7.2778                16.5183                11.8817

                     46                     47                     48
                      A                      A                      A
 Frequencies --   1260.6410              1289.5014              1301.8585
 Red. masses --      1.2862                 1.3076                 1.9665
 Frc consts  --      1.2044                 1.2811                 1.9637
 IR Inten    --      9.1610                 7.2953                84.7911

                     49                     50                     51
                      A                      A                      A
 Frequencies --   1314.9719              1343.0898              1346.2457
 Red. masses --      2.1382                 1.1371                 1.6218
 Frc consts  --      2.1784                 1.2085                 1.7318
 IR Inten    --     63.5839                 4.2264                 8.2409

                     52                     53                     54
                      A                      A                      A
 Frequencies --   1386.4320              1395.4155              1404.1009
 Red. masses --      1.4170                 1.4947                 1.3581
 Frc consts  --      1.6048                 1.7148                 1.5775
 IR Inten    --     10.1708                 6.0008                 9.2992

                     55                     56                     57
                      A                      A                      A
 Frequencies --   1412.4929              1414.6378              1423.1912
 Red. masses --      1.3766                 1.4151                 1.4657
 Frc consts  --      1.6182                 1.6685                 1.7491
 IR Inten    --     15.0330                 9.3929                 1.7602

                     58                     59                     60
                      A                      A                      A
 Frequencies --   1439.2484              1441.2806              1448.0350
 Red. masses --      1.3813                 1.2878                 1.6060
 Frc consts  --      1.6858                 1.5761                 1.9840
 IR Inten    --     37.6924                 6.3289                11.7369

                     61                     62                     63
                      A                      A                      A
 Frequencies --   1505.0462              1515.3958              1516.2976
 Red. masses --      1.0795                 1.0603                 1.0945
 Frc consts  --      1.4408                 1.4346                 1.4826
 IR Inten    --      1.9128                 2.5364                 6.8887

                     64                     65                     66
                      A                      A                      A
 Frequencies --   1520.8867              1528.2060              1531.2917
 Red. masses --      1.0679                 1.0512                 1.0652
 Frc consts  --      1.4553                 1.4465                 1.4716
 IR Inten    --      3.4955                 2.1194                 6.7137

                     67                     68                     69
                      A                      A                      A
 Frequencies --   1546.6336              1547.1915              1560.5828
 Red. masses --      1.0556                 1.0860                 1.0971
 Frc consts  --      1.4878                 1.5316                 1.5742
 IR Inten    --      3.3370                 1.6483                 2.4418

                     70                     71                     72
                      A                      A                      A
 Frequencies --   3004.5088              3031.5096              3031.7001
 Red. masses --      1.0848                 1.0688                 1.0636
 Frc consts  --      5.7696                 5.7873                 5.7596
 IR Inten    --     50.5029                19.6517                62.4653

                     73                     74                     75
                      A                      A                      A
 Frequencies --   3039.0122              3042.8812              3048.0305
 Red. masses --      1.0572                 1.0508                 1.0578
 Frc consts  --      5.7527                 5.7327                 5.7901
 IR Inten    --     47.3781                49.6291                42.3930

                     76                     77                     78
                      A                      A                      A
 Frequencies --   3059.7635              3083.1294              3085.3403
 Red. masses --      1.0375                 1.0654                 1.1033
 Frc consts  --      5.7230                 5.9670                 6.1879
 IR Inten    --     24.0857                 8.6267                25.1699

                     79                     80                     81
                      A                      A                      A
 Frequencies --   3088.9930              3089.5722              3095.2612
 Red. masses --      1.1061                 1.0916                 1.0964
 Frc consts  --      6.2186                 6.1393                 6.1890
 IR Inten    --     38.3420                32.6808                18.3246

                     82                     83                     84
                      A                      A                      A
 Frequencies --   3097.1018              3110.5641              3126.3247
 Red. masses --      1.0876                 1.0966                 1.1026
 Frc consts  --      6.1467                 6.2512                 6.3494
 IR Inten    --     36.3009                56.8612                30.6510

                     85                     86                     87
                      A                      A                      A
 Frequencies --   3129.7244              3132.5517              3139.3563
 Red. masses --      1.1013                 1.1004                 1.1026
 Frc consts  --      6.3556                 6.3619                 6.4028
 IR Inten    --     28.5770                35.4360                23.9931

 - Thermochemistry -
 -------------------
 Temperature   298.150 Kelvin.  Pressure   1.00000 Atm.
 Atom     1 has atomic number  6 and mass  12.00000

 Molecular mass:   186.12559 amu.
 Principal axes and moments of inertia in atomic units:
                           1         2         3
     Eigenvalues --  1145.913903375.314563394.55583
           X            1.00000  -0.00071  -0.00143
           Y            0.00081   0.99761   0.06912
           Z            0.00138  -0.06912   0.99761
 This molecule is an asymmetric top.
 Rotational symmetry number  1.
 Warning -- assumption of classical behavior for rotation
           may cause significant error
 Rotational temperatures (Kelvin)      0.07559     0.02566     0.02552
 Rotational constants (GHZ):           1.57494     0.53469     0.53166
 Zero-point vibrational energy     727553.5 (Joules/Mol)
                                  173.88945 (Kcal/Mol)
 Warning -- explicit consideration of  18 degrees of freedom as
           vibrations may cause significant error
 Vibrational temperatures:     46.28   104.76   138.97   193.37   249.81
          (Kelvin)            300.31   333.24   356.47   378.26   429.10
                              476.71   513.55   558.68   600.74   670.73
                              703.53   777.31   854.97   902.93   920.81
                             1061.73  1101.43  1164.33  1194.58  1254.02
                             1282.99  1288.44  1312.66  1373.09  1387.04
                             1426.38  1430.14  1444.21  1463.28  1481.10
                             1518.99  1581.91  1618.62  1645.05  1653.31
                             1667.90  1671.09  1686.13  1773.35  1774.41
                             1813.78  1855.30  1873.08  1891.95  1932.41
                             1936.95  1994.77  2007.69  2020.19  2032.26
                             2035.35  2047.65  2070.76  2073.68  2083.40
                             2165.43  2180.32  2181.61  2188.22  2198.75
                             2203.19  2225.26  2226.06  2245.33  4322.82
                             4361.67  4361.94  4372.46  4378.03  4385.44
                             4402.32  4435.94  4439.12  4444.37  4445.21
                             4453.39  4456.04  4475.41  4498.08  4502.98
                             4507.04  4516.83

 Zero-point correction=                           0.277110 (Hartree/Particle)
 Thermal correction to Energy=                    0.289730
 Thermal correction to Enthalpy=                  0.290674
 Thermal correction to Gibbs Free Energy=         0.238208
 Sum of electronic and zero-point Energies=           -617.341673
 Sum of electronic and thermal Energies=              -617.329053
 Sum of electronic and thermal Enthalpies=            -617.328109
 Sum of electronic and thermal Free Energies=         -617.380575

                     E (Thermal)             CV                S
                      KCal/Mol        Cal/Mol-Kelvin    Cal/Mol-Kelvin
 Total                  181.808             49.507            110.423
 Electronic               0.000              0.000              0.000
 Translational            0.889              2.981             41.570
 Rotational               0.889              2.981             30.952
 Vibrational            180.031             43.545             37.901
 Vibration     1          0.594              1.983              5.691
 Vibration     2          0.599              1.967              4.076
 Vibration     3          0.603              1.952              3.522
 Vibration     4          0.613              1.919              2.882
 Vibration     5          0.627              1.875              2.396
 Vibration     6          0.642              1.827              2.055
 Vibration     7          0.653              1.793              1.866
 Vibration     8          0.661              1.766              1.746
 Vibration     9          0.670              1.741              1.642
 Vibration    10          0.691              1.677              1.427
 Vibration    11          0.714              1.613              1.254
 Vibration    12          0.732              1.561              1.135
 Vibration    13          0.756              1.495              1.007
 Vibration    14          0.781              1.432              0.900
 Vibration    15          0.824              1.325              0.748
 Vibration    16          0.845              1.274              0.686
 Vibration    17          0.895              1.161              0.565
 Vibration    18          0.952              1.044              0.460

 Optimization completed.
    -- Stationary point found.
 Normal termination of Gaussian 16 at Wed Dec  9 23:33:48 2020.

 ----------------------------------------------------------------------
 # B3LYP/6-311++G(d,p) empiricaldispersion=gd3bj scf=xqc pop=npa geom=c
 heck
 ----------------------------------------------------------------------

 --------------------------------------
 CID_67867875_JID_3427_Energie_neutraal
 --------------------------------------
 Structure from the checkpoint file:  "JID_3427.chk"
 Charge =  0 Multiplicity = 1

 SCF Done:  E(RB3LYP) =  -617.792375593     A.U. after   13 cycles
 Normal termination of Gaussian 16 at Wed Dec  9 23:37:51 2020.

 ----------------------------------------------------------------------
 # B3LYP/6-311++G(d,p) empiricaldispersion=gd3bj scf=xqc pop=npa geom=c
 heck
 ----------------------------------------------------------------------

 ------------------------------------
 CID_67867875_JID_3427_Energie_kation
 ------------------------------------
 Structure from the checkpoint file:  "JID_3427.chk"
 Charge =  1 Multiplicity = 2

 SCF Done:  E(UB3LYP) =  -617.458999213     A.U. after   24 cycles
 Normal termination of Gaussian 16 at Wed Dec  9 23:48:26 2020.
 Gaussian 16:  ES64L-G16RevA.03 25-Dec-2016

 ----------------------------------------------------------------------
 # B3LYP/6-311++G(d,p) empiricaldispersion=gd3bj scf=xqc pop=npa geom=c
 heck
 ----------------------------------------------------------------------

 -----------------------------------
 CID_67867875_JID_3427_Energie_anion
 -----------------------------------
 Structure from the checkpoint file:  "JID_3427.chk"
 Charge = -1 Multiplicity = 2

                         Standard orientation:
 ---------------------------------------------------------------------
 Center     Atomic      Atomic             Coordinates (Angstroms)
 Number     Number       Type             X           Y           Z
 ---------------------------------------------------------------------
      1          6           0        3.467723   -1.065099    0.862268
      2          6           0        3.113903    0.344702    0.382311
      3          6           0        2.524795    0.394778   -1.035332
      4          6           0        1.255450   -0.433107   -1.282298
      5          6           0        0.038192   -0.019528   -0.476341
      6          8           0       -0.156155    1.375996   -0.596910
      7          6           0       -1.163057    1.844123    0.313511
      8          6           0       -1.961509    0.628209    0.793162
      9          6           0       -0.997846   -0.214222    1.632289
     10          8           0        0.219731   -0.365032    0.885903
     11          6           0       -2.324534   -0.173999   -0.469692
     12          8           0       -1.088984   -0.709403   -0.987388
     13          6           0       -3.292831   -1.326151   -0.261003
     14          1           0        2.567250   -1.674378    0.985378
     15          1           0        3.980370   -1.033691    1.830641
     16          1           0        4.131526   -1.573997    0.151141
     17          1           0        2.407119    0.797545    1.084782
     18          1           0        4.016500    0.970840    0.392896
     19          1           0        2.312643    1.436953   -1.297986
     20          1           0        3.283865    0.040024   -1.746427
     21          1           0        0.967926   -0.345413   -2.334637
     22          1           0        1.422316   -1.495746   -1.082949
     23          1           0       -0.687861    2.369370    1.153549
     24          1           0       -1.793376    2.553731   -0.233688
     25          1           0       -2.850322    0.921003    1.361472
     26          1           0       -0.747465    0.287725    2.573476
     27          1           0       -1.409401   -1.203620    1.866863
     28          1           0       -2.743765    0.514265   -1.219549
     29          1           0       -4.276711   -0.950036    0.041502
     30          1           0       -3.407676   -1.883978   -1.195304
     31          1           0       -2.931380   -2.021318    0.502754
 ---------------------------------------------------------------------

 SCF Done:  E(UB3LYP) =  -617.778582737     A.U. after   27 cycles

 The electronic state is 2-A.
 Alpha  occ. eigenvalues --  -19.02943 -19.02797 -19.02657 -10.21940 -10.12526
 Alpha  occ. eigenvalues --  -10.11791 -10.11722 -10.08131 -10.07224 -10.06985
 Alpha  occ. eigenvalues --  -10.06381 -10.06008 -10.05973  -1.01320  -0.91119
 Alpha  occ. eigenvalues --   -0.90993  -0.73599  -0.69605  -0.64089  -0.63539
 Alpha  occ. eigenvalues --   -0.58174  -0.57703  -0.54503  -0.51907  -0.47176
 Alpha  occ. eigenvalues --   -0.43412  -0.43164  -0.41254  -0.39354  -0.37298
 Alpha  occ. eigenvalues --   -0.36247  -0.35407  -0.34180  -0.32242  -0.31662
 Alpha  occ. eigenvalues --   -0.30272  -0.29937  -0.29047  -0.28729  -0.28304
 Alpha  occ. eigenvalues --   -0.27851  -0.26826  -0.25262  -0.24592  -0.24306
 Alpha  occ. eigenvalues --   -0.23045  -0.22744  -0.21860  -0.17480  -0.17260
 Alpha  occ. eigenvalues --   -0.15436   0.04610
 Alpha virt. eigenvalues --    0.06479   0.07640   0.07892   0.08921   0.09012
 Alpha virt. eigenvalues --    0.09285   0.10348   0.10561   0.11354   0.11624
 Alpha virt. eigenvalues --    0.12102   0.12416   0.13191   0.13601   0.14381

  Beta  occ. eigenvalues --  -19.02942 -19.02797 -19.02650 -10.21940 -10.12514
  Beta  occ. eigenvalues --  -10.11763 -10.11693 -10.08105 -10.07221 -10.06981
  Beta  occ. eigenvalues --  -10.06373 -10.05997 -10.05938  -1.01311  -0.91112
  Beta  occ. eigenvalues --   -0.90983  -0.73565  -0.69584  -0.64065  -0.63497
  Beta  occ. eigenvalues --   -0.58122  -0.57676  -0.54454  -0.51862  -0.47145
  Beta  occ. eigenvalues --   -0.43390  -0.43137  -0.41197  -0.39293  -0.37259
  Beta  occ. eigenvalues --   -0.36226  -0.35386  -0.34146  -0.32210  -0.31633
  Beta  occ. eigenvalues --   -0.30242  -0.29891  -0.29035  -0.28706  -0.28280
  Beta  occ. eigenvalues --   -0.27818  -0.26794  -0.25235  -0.24572  -0.24280
  Beta  occ. eigenvalues --   -0.23030  -0.22730  -0.21841  -0.17456  -0.17236
  Beta  occ. eigenvalues --   -0.15417
  Beta virt. eigenvalues --    0.06480   0.07620   0.08107   0.08258   0.09256
  Beta virt. eigenvalues --    0.09578   0.10080   0.10770   0.10892   0.11788
  Beta virt. eigenvalues --    0.11877   0.12555   0.12659   0.13177   0.14069

 Mulliken charges and spin densities:
               1          2
     1  C   -0.041781  -0.598424
     2  C   -0.375919   0.293637
     3  C    0.034753  -0.278206
     4  C    0.840296  -0.527481
     5  C   -2.055648   0.432405
     6  O   -0.021944   0.010766
     7  C    1.406690  -1.623247
     8  C   -2.572940   2.573836
     9  C    2.254943  -2.475815
    10  O   -0.025265   0.032257
    11  C    0.904272  -0.648877
    12  O   -0.009704   0.002139
    13  C    1.209384  -1.757991
    14  H    0.050801   0.123156
    15  H   -0.050923   0.174849
    16  H    0.046844   0.064648
    17  H    0.140966   0.033203
    18  H   -0.116299   0.258286
    19  H    0.127327   0.026943
    20  H    0.103333   0.046936
    21  H    0.128239   0.078029
    22  H    0.193380   0.000667
    23  H   -0.168146   0.325028
    24  H   -0.424169   0.605628
    25  H   -1.541992   1.822410
    26  H   -0.489046   0.689188
    27  H    0.063361   0.067200
    28  H   -0.085994   0.288350
    29  H   -0.428631   0.586666
    30  H   -0.025688   0.164633
    31  H   -0.070499   0.209181
 Sum of Mulliken charges =  -1.00000   1.00000

 Dipole moment (field-independent basis, Debye):
    X=              6.9105    Y=             -2.7237    Z=             -4.3366  Tot=              8.6011
 Quadrupole moment (field-independent basis, Debye-Ang):
   XX=           -156.1632   YY=           -116.9416   ZZ=           -121.1836
   XY=              8.0272   XZ=              6.3755   YZ=             -2.8716

 Summary of Natural Population Analysis:

                                       Natural Population
                Natural  -----------------------------------------------
    Atom  No    Charge         Core      Valence    Rydberg      Total
 -----------------------------------------------------------------------
      C    1   -0.28818      0.99967     2.28410    0.00442     3.28818
      C    2   -0.19258      0.99964     2.18576    0.00718     3.19258
      C    3   -0.18609      0.99962     2.17893    0.00754     3.18609
      C    4   -0.20307      0.99953     2.19346    0.01008     3.20307
      C    5    0.42975      0.99961     1.53990    0.03074     2.57025
      O    6   -0.31124      0.99986     3.30389    0.00749     4.31124
      C    7   -0.00616      0.99955     1.99280    0.01381     3.00616
      C    8   -0.15746      0.99957     2.14185    0.01604     3.15746
      C    9   -0.00812      0.99955     1.99483    0.01374     3.00812
      O   10   -0.31313      0.99986     3.30506    0.00821     4.31313
      C   11    0.06731      0.99954     1.91779    0.01537     2.93269
      O   12   -0.31308      0.99986     3.30545    0.00778     4.31308
      C   13   -0.29005      0.99963     2.28404    0.00638     3.29005
      H   14    0.10364      0.00000     0.39500    0.00136     0.39636
      H   15    0.09647      0.00000     0.40247    0.00107     0.40353
      H   16    0.08884      0.00000     0.40999    0.00117     0.41116
      H   17    0.10466      0.00000     0.39362    0.00172     0.39534
      H   18    0.08947      0.00000     0.40929    0.00124     0.41053
      H   19    0.10407      0.00000     0.39459    0.00134     0.39593
      H   20    0.09092      0.00000     0.40802    0.00106     0.40908
      H   21    0.10851      0.00000     0.39041    0.00109     0.39149
      H   22    0.10612      0.00000     0.39266    0.00122     0.39388
      H   23    0.08715      0.00000     0.41115    0.00170     0.41285
      H   24    0.09329      0.00000     0.40473    0.00197     0.40671
      H   25    0.12408      0.00000     0.36384    0.01208     0.37592
      H   26    0.09392      0.00000     0.40408    0.00200     0.40608
      H   27    0.08749      0.00000     0.41091    0.00161     0.41251
      H   28    0.08647      0.00000     0.41177    0.00176     0.41353
      H   29    0.10574      0.00000     0.39255    0.00170     0.39426
      H   30    0.10202      0.00000     0.39699    0.00098     0.39798
      H   31    0.09927      0.00000     0.39946    0.00127     0.40073
 =======================================================================
   * Total *    0.00000     12.99549    37.81940    0.18511    51.00000

 Normal termination of Gaussian 16 at Thu Dec 10 00:00:13 2020.
