 Gaussian 16, Revision A.03,

 -----------------------------------------------------------
 # opt freq B3LYP/6-31G(d) empiricaldispersion=gd3bj scf=xqc
 -----------------------------------------------------------

 ------------------------------
 CID_66474366_JID_4047_neutraal
 ------------------------------
 Symbolic Z-matrix:
 Charge =  0 Multiplicity = 1

 SCF Done:  E(RB3LYP) =  -1368.39608367     A.U. after   15 cycles
 SCF Done:  E(RB3LYP) =  -1368.40101453     A.U. after   14 cycles
 SCF Done:  E(RB3LYP) =  -1368.40185438     A.U. after   13 cycles
 SCF Done:  E(RB3LYP) =  -1368.40255490     A.U. after   12 cycles
 SCF Done:  E(RB3LYP) =  -1368.40266261     A.U. after   12 cycles
 SCF Done:  E(RB3LYP) =  -1368.40266547     A.U. after   11 cycles
 SCF Done:  E(RB3LYP) =  -1368.40269585     A.U. after   11 cycles
 SCF Done:  E(RB3LYP) =  -1368.40270315     A.U. after   12 cycles
 SCF Done:  E(RB3LYP) =  -1368.40271080     A.U. after   11 cycles
 SCF Done:  E(RB3LYP) =  -1368.40271247     A.U. after   10 cycles
 SCF Done:  E(RB3LYP) =  -1368.40271299     A.U. after    9 cycles
 SCF Done:  E(RB3LYP) =  -1368.40271316     A.U. after    8 cycles
 SCF Done:  E(RB3LYP) =  -1368.40271320     A.U. after    7 cycles
 Optimization completed.
    -- Stationary point found.
 Normal termination of Gaussian 16 at Thu Dec 10 09:15:44 2020.

 --------------------------------------------------------------------
 #N Geom=AllCheck Guess=TCheck SCRF=Check GenChk RB3LYP/6-31G(d) Freq
 --------------------------------------------------------------------

 Structure from the checkpoint file:  "JID_4047.chk"
 ------------------------------
 CID_66474366_JID_4047_neutraal
 ------------------------------
 Charge =  0 Multiplicity = 1

 SCF Done:  E(RB3LYP) =  -1368.40271320     A.U. after    1 cycles

  Exact polarizability: 131.910 -14.423 139.341 -11.519  -0.515 112.386
 Approx polarizability: 175.696 -27.285 221.880 -25.787 -10.205 220.446

                      1                      2                      3
                      A                      A                      A
 Frequencies --     22.0665                39.2377                58.3136
 Red. masses --      7.7487                 5.3493                 7.8501
 Frc consts  --      0.0022                 0.0049                 0.0157
 IR Inten    --      3.1776                 0.2638                 3.1293

                      4                      5                      6
                      A                      A                      A
 Frequencies --     90.4283               122.8771               158.1181
 Red. masses --      4.9342                 5.1143                 3.8682
 Frc consts  --      0.0238                 0.0455                 0.0570
 IR Inten    --      1.3809                 0.3710                 2.1994

                      7                      8                      9
                      A                      A                      A
 Frequencies --    196.5165               234.0802               258.0074
 Red. masses --      3.4590                 2.5149                 7.6641
 Frc consts  --      0.0787                 0.0812                 0.3006
 IR Inten    --      3.2448                 1.2114                 3.7944

                     10                     11                     12
                      A                      A                      A
 Frequencies --    281.5269               335.5434               355.9452
 Red. masses --      4.1317                 3.0678                 2.1317
 Frc consts  --      0.1929                 0.2035                 0.1591
 IR Inten    --      4.2670                 0.5472                 0.7176

                     13                     14                     15
                      A                      A                      A
 Frequencies --    435.9030               452.5823               467.2238
 Red. masses --      3.5472                 8.8558                 4.9938
 Frc consts  --      0.3971                 1.0687                 0.6423
 IR Inten    --      9.8919                 1.8459                 7.3503

                     16                     17                     18
                      A                      A                      A
 Frequencies --    529.1710               535.2001               552.3606
 Red. masses --      2.9939                 5.7181                 3.0649
 Frc consts  --      0.4940                 0.9650                 0.5509
 IR Inten    --      3.3718                 5.2973                 3.0326

                     19                     20                     21
                      A                      A                      A
 Frequencies --    617.2290               647.3181               652.7669
 Red. masses --     12.8199                11.9728                 4.0100
 Frc consts  --      2.8776                 2.9558                 1.0067
 IR Inten    --      0.4531                 0.7246                 4.9009

                     22                     23                     24
                      A                      A                      A
 Frequencies --    690.4462               738.5678               753.5718
 Red. masses --      2.6759                 9.1209                 2.2118
 Frc consts  --      0.7516                 2.9313                 0.7400
 IR Inten    --      2.2497                11.3459                 7.4571

                     25                     26                     27
                      A                      A                      A
 Frequencies --    803.9817               854.6261               893.1025
 Red. masses --      1.2106                 2.8074                 2.5355
 Frc consts  --      0.4610                 1.2081                 1.1915
 IR Inten    --     18.4995                 6.0026                18.9637

                     28                     29                     30
                      A                      A                      A
 Frequencies --    904.1108               909.3841               923.8135
 Red. masses --      4.7503                 1.5474                 2.2479
 Frc consts  --      2.2878                 0.7540                 1.1303
 IR Inten    --     18.1436                 5.0490                15.5082

                     31                     32                     33
                      A                      A                      A
 Frequencies --    970.9886               995.8693              1036.4744
 Red. masses --      1.9228                 2.6312                 2.3099
 Frc consts  --      1.0681                 1.5375                 1.4620
 IR Inten    --     20.1877                15.7515                85.7531

                     34                     35                     36
                      A                      A                      A
 Frequencies --   1050.0326              1063.2154              1067.2183
 Red. masses --      6.8793                 2.6398                 5.3353
 Frc consts  --      4.4689                 1.7582                 3.5803
 IR Inten    --     13.4452                30.4134                65.6517

                     37                     38                     39
                      A                      A                      A
 Frequencies --   1078.1457              1098.7291              1158.6571
 Red. masses --      4.4109                 2.9886                 2.3032
 Frc consts  --      3.0209                 2.1257                 1.8218
 IR Inten    --     30.0391                24.0765               123.0408

                     40                     41                     42
                      A                      A                      A
 Frequencies --   1187.2117              1229.3068              1254.3014
 Red. masses --      2.5438                 1.3529                 1.2593
 Frc consts  --      2.1124                 1.2046                 1.1673
 IR Inten    --     65.0310                37.8999                 4.8129

                     43                     44                     45
                      A                      A                      A
 Frequencies --   1263.0379              1266.4293              1286.2370
 Red. masses --      1.4188                 1.4439                 1.2936
 Frc consts  --      1.3335                 1.3644                 1.2609
 IR Inten    --     20.7768                15.3982                17.2347

                     46                     47                     48
                      A                      A                      A
 Frequencies --   1324.9486              1340.3838              1366.4421
 Red. masses --      1.1420                 1.2465                 1.2279
 Frc consts  --      1.1812                 1.3195                 1.3508
 IR Inten    --      4.5340                15.2588                 1.9121

                     49                     50                     51
                      A                      A                      A
 Frequencies --   1384.3543              1407.8940              1419.7934
 Red. masses --      1.3280                 1.2783                 1.3478
 Frc consts  --      1.4995                 1.4929                 1.6008
 IR Inten    --      0.6674                 1.6367                33.7917

                     52                     53                     54
                      A                      A                      A
 Frequencies --   1433.5653              1436.2695              1440.7708
 Red. masses --      2.1437                 2.3039                 1.3428
 Frc consts  --      2.5956                 2.8002                 1.6423
 IR Inten    --      8.4832                35.1559                17.6081

                     55                     56                     57
                      A                      A                      A
 Frequencies --   1472.0617              1498.9295              1499.7671
 Red. masses --      8.1735                 1.0897                 1.0996
 Frc consts  --     10.4354                 1.4425                 1.4573
 IR Inten    --     11.4997                 6.0587                 2.3032

                     58                     59                     60
                      A                      A                      A
 Frequencies --   1509.4508              1534.7482              1546.6662
 Red. masses --      1.0982                 1.0875                 1.0914
 Frc consts  --      1.4742                 1.5093                 1.5382
 IR Inten    --     10.3277                 2.0258                 4.0487

                     61                     62                     63
                      A                      A                      A
 Frequencies --   3002.1951              3008.9628              3060.5541
 Red. masses --      1.0717                 1.0721                 1.0600
 Frc consts  --      5.6913                 5.7191                 5.8502
 IR Inten    --     29.8979                49.2868                24.2134

                     64                     65                     66
                      A                      A                      A
 Frequencies --   3062.4556              3098.0174              3101.6730
 Red. masses --      1.0613                 1.0882                 1.0751
 Frc consts  --      5.8644                 6.1537                 6.0938
 IR Inten    --     23.2100                13.5653                12.3350

                     67                     68                     69
                      A                      A                      A
 Frequencies --   3108.1715              3118.4389              3128.2514
 Red. masses --      1.1015                 1.0949                 1.0900
 Frc consts  --      6.2695                 6.2736                 6.2845
 IR Inten    --     33.6463                44.5178                30.2294

                     70                     71                     72
                      A                      A                      A
 Frequencies --   3133.2110              3167.6499              3262.8117
 Red. masses --      1.0950                 1.1033                 1.0946
 Frc consts  --      6.3336                 6.5226                 6.8656
 IR Inten    --     19.1341                 1.4782                 0.5751

 - Thermochemistry -
 -------------------
 Temperature   298.150 Kelvin.  Pressure   1.00000 Atm.
 Atom     1 has atomic number  6 and mass  12.00000

 Molecular mass:   232.03402 amu.
 Principal axes and moments of inertia in atomic units:
                           1         2         3
     Eigenvalues --  2024.074054407.855375311.07938
           X            0.99996   0.00351  -0.00815
           Y           -0.00342   0.99993   0.01100
           Z            0.00819  -0.01097   0.99991
 This molecule is an asymmetric top.
 Rotational symmetry number  1.
 Warning -- assumption of classical behavior for rotation
           may cause significant error
 Rotational temperatures (Kelvin)      0.04279     0.01965     0.01631
 Rotational constants (GHZ):           0.89164     0.40944     0.33981
 Zero-point vibrational energy     540642.2 (Joules/Mol)
                                  129.21658 (Kcal/Mol)
 Warning -- explicit consideration of  19 degrees of freedom as
           vibrations may cause significant error
 Vibrational temperatures:     31.75    56.45    83.90   130.11   176.79
          (Kelvin)            227.50   282.74   336.79   371.22   405.05
                              482.77   512.13   627.17   651.17   672.23
                              761.36   770.03   794.72   888.05   931.35
                              939.19   993.40  1062.63  1084.22  1156.75
                             1229.62  1284.98  1300.81  1308.40  1329.16
                             1397.04  1432.83  1491.26  1510.76  1529.73
                             1535.49  1551.21  1580.83  1667.05  1708.13
                             1768.70  1804.66  1817.23  1822.11  1850.61
                             1906.31  1928.51  1966.01  1991.78  2025.65
                             2042.77  2062.58  2066.47  2072.95  2117.97
                             2156.63  2157.83  2171.76  2208.16  2225.31
                             4319.49  4329.23  4403.45  4406.19  4457.36
                             4462.62  4471.97  4486.74  4500.86  4507.99
                             4557.54  4694.46

 Zero-point correction=                           0.205920 (Hartree/Particle)
 Thermal correction to Energy=                    0.219031
 Thermal correction to Enthalpy=                  0.219976
 Thermal correction to Gibbs Free Energy=         0.164066
 Sum of electronic and zero-point Energies=          -1368.196793
 Sum of electronic and thermal Energies=             -1368.183682
 Sum of electronic and thermal Enthalpies=           -1368.182738
 Sum of electronic and thermal Free Energies=        -1368.238648

                     E (Thermal)             CV                S
                      KCal/Mol        Cal/Mol-Kelvin    Cal/Mol-Kelvin
 Total                  137.444             49.223            117.673
 Electronic               0.000              0.000              0.000
 Translational            0.889              2.981             42.227
 Rotational               0.889              2.981             32.227
 Vibrational            135.667             43.261             43.218
 Vibration     1          0.593              1.985              6.439
 Vibration     2          0.594              1.981              5.297
 Vibration     3          0.596              1.974              4.513
 Vibration     4          0.602              1.956              3.651
 Vibration     5          0.610              1.930              3.055
 Vibration     6          0.621              1.894              2.572
 Vibration     7          0.636              1.845              2.165
 Vibration     8          0.654              1.789              1.847
 Vibration     9          0.667              1.749              1.675
 Vibration    10          0.681              1.708              1.524
 Vibration    11          0.717              1.605              1.233
 Vibration    12          0.731              1.563              1.140
 Vibration    13          0.796              1.392              0.840
 Vibration    14          0.811              1.355              0.788
 Vibration    15          0.824              1.323              0.745
 Vibration    16          0.884              1.185              0.589
 Vibration    17          0.890              1.172              0.576
 Vibration    18          0.908              1.135              0.539
 Vibration    19          0.977              0.995              0.421

 Optimization completed.
    -- Stationary point found.
 Normal termination of Gaussian 16 at Thu Dec 10 09:23:09 2020.

 ----------------------------------------------------------------------
 # B3LYP/6-311++G(d,p) empiricaldispersion=gd3bj scf=xqc pop=npa geom=c
 heck
 ----------------------------------------------------------------------

 --------------------------------------
 CID_66474366_JID_4047_Energie_neutraal
 --------------------------------------
 Structure from the checkpoint file:  "JID_4047.chk"
 Charge =  0 Multiplicity = 1

 SCF Done:  E(RB3LYP) =  -1368.61461385     A.U. after   15 cycles
 Normal termination of Gaussian 16 at Thu Dec 10 09:26:02 2020.

 ----------------------------------------------------------------------
 # B3LYP/6-311++G(d,p) empiricaldispersion=gd3bj scf=xqc pop=npa geom=c
 heck
 ----------------------------------------------------------------------

 ------------------------------------
 CID_66474366_JID_4047_Energie_kation
 ------------------------------------
 Structure from the checkpoint file:  "JID_4047.chk"
 Charge =  1 Multiplicity = 2

 SCF Done:  E(UB3LYP) =  -1368.30466076     A.U. after   25 cycles
 Normal termination of Gaussian 16 at Thu Dec 10 09:32:54 2020.
 Gaussian 16:  ES64L-G16RevA.03 25-Dec-2016

 ----------------------------------------------------------------------
 # B3LYP/6-311++G(d,p) empiricaldispersion=gd3bj scf=xqc pop=npa geom=c
 heck
 ----------------------------------------------------------------------

 -----------------------------------
 CID_66474366_JID_4047_Energie_anion
 -----------------------------------
 Structure from the checkpoint file:  "JID_4047.chk"
 Charge = -1 Multiplicity = 2

                         Standard orientation:
 ---------------------------------------------------------------------
 Center     Atomic      Atomic             Coordinates (Angstroms)
 Number     Number       Type             X           Y           Z
 ---------------------------------------------------------------------
      1          6           0       -2.965001   -1.719904    0.316457
      2          6           0       -3.643443   -0.478566   -0.263981
      3          8           0       -2.791165    0.176302   -1.204378
      4          6           0       -1.498770    0.471214   -0.706395
      5          8           0       -0.853253   -0.661828   -0.165199
      6          6           0       -1.596173   -1.318378    0.860684
      7          6           0       -1.528349    1.676098    0.253167
      8          6           0       -0.228957    1.927225    1.018301
      9         16           0        1.284231    2.032729   -0.043847
     10          6           0        1.876707    0.381521    0.142641
     11          7           0        1.842597   -0.295089    1.256425
     12          7           0        2.314373   -1.574179    1.120994
     13          6           0        2.718936   -1.832331   -0.087747
     14         16           0        2.528917   -0.517663   -1.214196
     15          1           0       -3.585924   -2.162659    1.104723
     16          1           0       -2.829747   -2.463797   -0.476404
     17          1           0       -4.550063   -0.732175   -0.819354
     18          1           0       -3.930867    0.208365    0.547811
     19          1           0       -0.905771    0.728395   -1.585843
     20          1           0       -1.704313   -0.665536    1.741024
     21          1           0       -0.991270   -2.177831    1.157377
     22          1           0       -1.799256    2.552250   -0.346046
     23          1           0       -2.322160    1.557208    1.000209
     24          1           0       -0.277903    2.881528    1.549322
     25          1           0       -0.018701    1.143172    1.746503
     26          1           0        3.152444   -2.782169   -0.374706
 ---------------------------------------------------------------------

 SCF Done:  E(UB3LYP) =  -1368.60847060     A.U. after   33 cycles
 SCF Done:  E(UB3LYP) =  -1368.60847060     a.u. after    1 cycles

 The electronic state is 2-A.
 Alpha  occ. eigenvalues --  -88.75618 -88.73973 -19.02731 -19.01968 -14.21378
 Alpha  occ. eigenvalues --  -14.20367 -10.16254 -10.12042 -10.11690 -10.11447
 Alpha  occ. eigenvalues --  -10.09788 -10.08802 -10.07181 -10.06965  -7.84298
 Alpha  occ. eigenvalues --   -7.82533  -5.80562  -5.80247  -5.79906  -5.78934
 Alpha  occ. eigenvalues --   -5.78543  -5.77932  -0.97231  -0.90482  -0.89716
 Alpha  occ. eigenvalues --   -0.72303  -0.70020  -0.68086  -0.67336  -0.61425
 Alpha  occ. eigenvalues --   -0.57861  -0.56551  -0.51204  -0.48568  -0.44935
 Alpha  occ. eigenvalues --   -0.42861  -0.42088  -0.40156  -0.37237  -0.36222
 Alpha  occ. eigenvalues --   -0.35728  -0.34059  -0.33041  -0.31978  -0.30666
 Alpha  occ. eigenvalues --   -0.30371  -0.29403  -0.29220  -0.27194  -0.26068
 Alpha  occ. eigenvalues --   -0.25640  -0.23073  -0.21770  -0.21340  -0.18404
 Alpha  occ. eigenvalues --   -0.17560  -0.17010  -0.16588  -0.15596  -0.14129
 Alpha  occ. eigenvalues --   -0.11280   0.04651
 Alpha virt. eigenvalues --    0.06182   0.07434   0.08469   0.08722   0.09364
 Alpha virt. eigenvalues --    0.10272   0.11023   0.11089   0.11651   0.11860
 Alpha virt. eigenvalues --    0.12560   0.13315   0.13463   0.13577   0.14608

  Beta  occ. eigenvalues --  -88.75571 -88.73972 -19.02727 -19.01967 -14.21380
  Beta  occ. eigenvalues --  -14.20322 -10.16252 -10.12023 -10.11441 -10.11368
  Beta  occ. eigenvalues --  -10.09524 -10.08713 -10.07162 -10.06947  -7.84256
  Beta  occ. eigenvalues --   -7.82531  -5.80545  -5.80230  -5.79745  -5.78937
  Beta  occ. eigenvalues --   -5.78550  -5.77916  -0.97224  -0.90470  -0.89521
  Beta  occ. eigenvalues --   -0.72050  -0.69920  -0.67820  -0.67170  -0.61326
  Beta  occ. eigenvalues --   -0.57833  -0.56488  -0.51039  -0.48211  -0.44851
  Beta  occ. eigenvalues --   -0.42637  -0.42035  -0.40124  -0.37115  -0.36151
  Beta  occ. eigenvalues --   -0.35632  -0.34029  -0.32935  -0.31679  -0.30330
  Beta  occ. eigenvalues --   -0.30117  -0.29260  -0.29013  -0.27095  -0.25911
  Beta  occ. eigenvalues --   -0.25583  -0.23031  -0.21511  -0.21313  -0.18000
  Beta  occ. eigenvalues --   -0.17245  -0.16598  -0.16296  -0.15319  -0.13946
  Beta  occ. eigenvalues --   -0.10781
  Beta virt. eigenvalues --    0.07072   0.08122   0.08485   0.08940   0.09218
  Beta virt. eigenvalues --    0.09730   0.10617   0.11198   0.11383   0.11783
  Beta virt. eigenvalues --    0.12042   0.12885   0.13474   0.13674   0.13812

 Mulliken charges and spin densities:
               1          2
     1  C    0.293995  -0.544956
     2  C    0.225024  -0.498888
     3  O   -0.067424   0.020971
     4  C   -1.288653   0.355709
     5  O    0.125534  -0.005567
     6  C   -0.201770   0.016809
     7  C    0.894069  -0.905701
     8  C    0.118778  -0.231584
     9  S    0.002812   0.011483
    10  C   -0.372623   0.250274
    11  N    0.057728   0.003500
    12  N   -0.185177  -0.025821
    13  C   -0.382849   0.172769
    14  S    0.029446   0.082959
    15  H   -0.391221   0.544110
    16  H    0.179221  -0.031326
    17  H   -0.274812   0.441746
    18  H   -0.105840   0.236713
    19  H    0.204633  -0.010158
    20  H    0.068740   0.077992
    21  H    0.161987   0.011749
    22  H    0.002042   0.157065
    23  H    0.010430   0.146342
    24  H   -0.465977   0.741867
    25  H    0.163831  -0.020041
    26  H    0.198078   0.001986
 Sum of Mulliken charges =  -1.00000   1.00000

 Dipole moment (field-independent basis, Debye):
    X=              1.5483    Y=             -1.2410    Z=             -3.4923  Tot=              4.0167
 Quadrupole moment (field-independent basis, Debye-Ang):
   XX=           -155.4909   YY=           -128.3603   ZZ=           -125.3124
   XY=             -2.1959   XZ=             -2.0380   YZ=             -0.2935

 Summary of Natural Population Analysis:

                                       Natural Population
                Natural  -----------------------------------------------
    Atom  No    Charge         Core      Valence    Rydberg      Total
 -----------------------------------------------------------------------
      C    1   -0.21867      0.99963     2.21065    0.00838     3.21867
      C    2   -0.01333      0.99957     2.00007    0.01369     3.01333
      O    3   -0.30331      0.99988     3.29543    0.00800     4.30331
      C    4    0.21958      0.99957     1.76021    0.02064     2.78042
      O    5   -0.30127      0.99988     3.28989    0.01150     4.30127
      C    6   -0.01500      0.99957     2.00189    0.01354     3.01500
      C    7   -0.22149      0.99958     2.21136    0.01054     3.22149
      C    8   -0.23921      0.99957     2.22709    0.01255     3.23921
      S    9    0.11560      4.99947     2.86535    0.01959     7.88440
      C   10   -0.01422      0.99961     1.99360    0.02101     3.01422
      N   11   -0.17342      0.99958     2.65344    0.02040     3.67342
      N   12   -0.15091      0.99968     2.63773    0.01350     3.65091
      C   13   -0.02903      0.99968     2.01429    0.01507     3.02903
      S   14    0.18174      4.99938     2.79999    0.01889     7.81826
      H   15    0.10311      0.00000     0.39537    0.00152     0.39689
      H   16    0.09796      0.00000     0.40090    0.00114     0.40204
      H   17    0.09145      0.00000     0.40737    0.00118     0.40855
      H   18    0.07968      0.00000     0.41862    0.00171     0.42032
      H   19    0.09170      0.00000     0.40695    0.00135     0.40830
      H   20    0.07947      0.00000     0.41894    0.00158     0.42053
      H   21    0.09768      0.00000     0.40102    0.00130     0.40232
      H   22    0.10307      0.00000     0.39578    0.00115     0.39693
      H   23    0.10248      0.00000     0.39588    0.00164     0.39752
      H   24    0.10500      0.00000     0.39334    0.00166     0.39500
      H   25    0.11799      0.00000     0.37963    0.00238     0.38201
      H   26    0.09335      0.00000     0.40554    0.00111     0.40665
 =======================================================================
   * Total *   -0.00000     21.99467    38.78032    0.22501    61.00000

 Normal termination of Gaussian 16 at Thu Dec 10 09:41:40 2020.
