 Gaussian 16, Revision A.03,

 -----------------------------------------------------------
 # opt freq B3LYP/6-31G(d) empiricaldispersion=gd3bj scf=xqc
 -----------------------------------------------------------

 -------------------------------
 CID_103134696_JID_4303_neutraal
 -------------------------------
 Symbolic Z-matrix:
 Charge =  0 Multiplicity = 1

 SCF Done:  E(RB3LYP) =  -953.762863047     A.U. after   14 cycles
 SCF Done:  E(RB3LYP) =  -953.767447411     A.U. after   12 cycles
 SCF Done:  E(RB3LYP) =  -953.767118722     A.U. after   12 cycles
 SCF Done:  E(RB3LYP) =  -953.768117087     A.U. after   11 cycles
 SCF Done:  E(RB3LYP) =  -953.768578146     A.U. after   12 cycles
 SCF Done:  E(RB3LYP) =  -953.768692958     A.U. after   11 cycles
 SCF Done:  E(RB3LYP) =  -953.768715330     A.U. after   10 cycles
 SCF Done:  E(RB3LYP) =  -953.768719237     A.U. after    9 cycles
 SCF Done:  E(RB3LYP) =  -953.768720956     A.U. after    9 cycles
 SCF Done:  E(RB3LYP) =  -953.768727443     A.U. after   10 cycles
 SCF Done:  E(RB3LYP) =  -953.769810916     A.U. after    8 cycles
 SCF Done:  E(RB3LYP) =  -953.769811784     A.U. after    9 cycles
 SCF Done:  E(RB3LYP) =  -953.769811925     A.U. after    7 cycles
 SCF Done:  E(RB3LYP) =  -953.769811952     A.U. after    8 cycles
 SCF Done:  E(RB3LYP) =  -953.769811992     A.U. after    8 cycles
 SCF Done:  E(RB3LYP) =  -953.769811976     A.U. after    6 cycles
 Optimization completed.
    -- Stationary point found.
 Normal termination of Gaussian 16 at Thu Dec 10 10:01:45 2020.

 --------------------------------------------------------------------
 #N Geom=AllCheck Guess=TCheck SCRF=Check GenChk RB3LYP/6-31G(d) Freq
 --------------------------------------------------------------------

 Structure from the checkpoint file:  "JID_4303.chk"
 -------------------------------
 CID_103134696_JID_4303_neutraal
 -------------------------------
 Charge =  0 Multiplicity = 1

 SCF Done:  E(RB3LYP) =  -953.769811976     A.U. after    1 cycles

  Exact polarizability: 167.080   8.591 113.790   2.744 -12.055 121.816
 Approx polarizability: 219.187  14.867 172.244   3.702 -29.522 199.126

                      1                      2                      3
                      A                      A                      A
 Frequencies --     29.2509                48.5499                59.6192
 Red. masses --      2.3985                 1.4827                 3.7404
 Frc consts  --      0.0012                 0.0021                 0.0078
 IR Inten    --      0.1920                 0.6797                 0.2147

                      4                      5                      6
                      A                      A                      A
 Frequencies --     75.1637               109.7221               141.5975
 Red. masses --      4.2583                 3.9520                 3.1021
 Frc consts  --      0.0142                 0.0280                 0.0366
 IR Inten    --      0.2732                 5.8824                 2.7647

                      7                      8                      9
                      A                      A                      A
 Frequencies --    176.7005               193.5257               206.7307
 Red. masses --      2.4825                 3.1769                 2.8442
 Frc consts  --      0.0457                 0.0701                 0.0716
 IR Inten    --      2.8597                 4.4291                 0.9399

                     10                     11                     12
                      A                      A                      A
 Frequencies --    232.9633               251.0081               292.0640
 Red. masses --      1.8907                 1.7775                 2.1623
 Frc consts  --      0.0605                 0.0660                 0.1087
 IR Inten    --      3.2775                 2.1329                 1.8797

                     13                     14                     15
                      A                      A                      A
 Frequencies --    305.0908               331.6822               376.5957
 Red. masses --      2.5621                 3.9366                 4.1383
 Frc consts  --      0.1405                 0.2552                 0.3458
 IR Inten    --      4.1362                 3.5899                 3.2622

                     16                     17                     18
                      A                      A                      A
 Frequencies --    431.9131               488.0044               548.3828
 Red. masses --      3.2214                 3.6871                 3.6007
 Frc consts  --      0.3541                 0.5173                 0.6380
 IR Inten    --      0.5239                 2.6619                 1.5528

                     19                     20                     21
                      A                      A                      A
 Frequencies --    619.7487               641.3470               657.3633
 Red. masses --      4.9596                 1.3857                 4.0173
 Frc consts  --      1.1223                 0.3358                 1.0228
 IR Inten    --      1.0809               143.5651                 1.3781

                     22                     23                     24
                      A                      A                      A
 Frequencies --    692.7456               694.3544               725.6030
 Red. masses --      4.2172                 3.8181                 4.4405
 Frc consts  --      1.1924                 1.0846                 1.3775
 IR Inten    --      1.2922                15.7971                 2.3726

                     25                     26                     27
                      A                      A                      A
 Frequencies --    749.3068               753.3161               806.3803
 Red. masses --      3.1511                 1.2838                 2.5649
 Frc consts  --      1.0424                 0.4292                 0.9826
 IR Inten    --      6.4263                53.1776                13.5376

                     28                     29                     30
                      A                      A                      A
 Frequencies --    829.8359               834.9438               881.5123
 Red. masses --      1.7449                 2.6863                 1.9058
 Frc consts  --      0.7079                 1.1034                 0.8725
 IR Inten    --      2.8308                 2.3666                 0.9455

                     31                     32                     33
                      A                      A                      A
 Frequencies --    914.1649               963.4355               997.4191
 Red. masses --      1.7621                 2.1028                 2.0619
 Frc consts  --      0.8676                 1.1500                 1.2085
 IR Inten    --     11.6156                 4.5232                 3.2143

                     34                     35                     36
                      A                      A                      A
 Frequencies --   1006.8554              1031.4246              1039.1064
 Red. masses --      2.4196                 3.9877                 2.8180
 Frc consts  --      1.4452                 2.4995                 1.7927
 IR Inten    --      9.0774                 5.7075                 2.7321

                     37                     38                     39
                      A                      A                      A
 Frequencies --   1055.8743              1077.0168              1088.7588
 Red. masses --      1.6589                 1.4781                 2.1848
 Frc consts  --      1.0897                 1.0101                 1.5259
 IR Inten    --      2.6760                15.5962                 5.2037

                     40                     41                     42
                      A                      A                      A
 Frequencies --   1099.6000              1136.8716              1161.6601
 Red. masses --      1.5688                 1.1933                 1.4853
 Frc consts  --      1.1176                 0.9087                 1.1809
 IR Inten    --     13.7594                 6.8728                 9.6887

                     43                     44                     45
                      A                      A                      A
 Frequencies --   1161.8785              1169.4322              1179.8369
 Red. masses --      1.3843                 1.5790                 1.2400
 Frc consts  --      1.1011                 1.2723                 1.0170
 IR Inten    --      1.2980                21.0724                 2.0301

                     46                     47                     48
                      A                      A                      A
 Frequencies --   1205.1405              1223.1573              1250.9382
 Red. masses --      1.6299                 1.5221                 1.5664
 Frc consts  --      1.3947                 1.3418                 1.4442
 IR Inten    --     17.8016                 6.7087                17.2912

                     49                     50                     51
                      A                      A                      A
 Frequencies --   1263.2067              1294.3832              1319.5982
 Red. masses --      1.3858                 1.3737                 1.3929
 Frc consts  --      1.3028                 1.3560                 1.4290
 IR Inten    --     18.4327                14.1042                16.4850

                     52                     53                     54
                      A                      A                      A
 Frequencies --   1332.9285              1344.6195              1362.3773
 Red. masses --      1.9558                 2.0353                 1.4985
 Frc consts  --      2.0474                 2.1681                 1.6387
 IR Inten    --      4.6507                 4.0600                 1.6373

                     55                     56                     57
                      A                      A                      A
 Frequencies --   1378.3623              1398.0344              1410.3478
 Red. masses --      1.3311                 1.3492                 4.2495
 Frc consts  --      1.4900                 1.5536                 4.9801
 IR Inten    --      0.2299                 5.4637                 5.9761

                     58                     59                     60
                      A                      A                      A
 Frequencies --   1463.8368              1478.8296              1483.8010
 Red. masses --      3.1562                 1.3110                 1.1899
 Frc consts  --      3.9847                 1.6892                 1.5435
 IR Inten    --     25.0885                 5.0647                 9.7042

                     61                     62                     63
                      A                      A                      A
 Frequencies --   1504.7446              1511.4898              1515.4306
 Red. masses --      1.0465                 1.2770                 1.3507
 Frc consts  --      1.3961                 1.7189                 1.8276
 IR Inten    --      7.9463                22.4358                 1.9376

                     64                     65                     66
                      A                      A                      A
 Frequencies --   1521.3229              1529.7644              1533.5018
 Red. masses --      1.2873                 1.2737                 1.1306
 Frc consts  --      1.7554                 1.7562                 1.5664
 IR Inten    --      3.9420                15.2178                 6.6842

                     67                     68                     69
                      A                      A                      A
 Frequencies --   1535.4363              1551.6411              1565.2982
 Red. masses --      1.1202                 1.3245                 1.0552
 Frc consts  --      1.5561                 1.8788                 1.5233
 IR Inten    --      2.5375                 7.6100                 6.4586

                     70                     71                     72
                      A                      A                      A
 Frequencies --   1574.1293              3008.2974              3022.0221
 Red. masses --      5.0732                 1.0441                 1.0831
 Frc consts  --      7.4065                 5.5672                 5.8281
 IR Inten    --     36.9363                53.7458                27.2975

                     73                     74                     75
                      A                      A                      A
 Frequencies --   3045.4198              3066.7484              3067.4043
 Red. masses --      1.0820                 1.0901                 1.0673
 Frc consts  --      5.9125                 6.0406                 5.9168
 IR Inten    --     17.1622                50.8786                12.2846

                     76                     77                     78
                      A                      A                      A
 Frequencies --   3069.2178              3084.2482              3086.3707
 Red. masses --      1.0334                 1.0580                 1.0596
 Frc consts  --      5.7355                 5.9297                 5.9471
 IR Inten    --     48.6308                48.9129                 9.6933

                     79                     80                     81
                      A                      A                      A
 Frequencies --   3101.7511              3113.9198              3128.7993
 Red. masses --      1.1015                 1.1007                 1.1089
 Frc consts  --      6.2441                 6.2885                 6.3959
 IR Inten    --     41.3570                 6.6234                12.3150

                     82                     83                     84
                      A                      A                      A
 Frequencies --   3135.8482              3137.0515              3165.0667
 Red. masses --      1.1086                 1.1046                 1.1048
 Frc consts  --      6.4231                 6.4049                 6.5208
 IR Inten    --     21.9975                16.9767                10.0580

                     85                     86                     87
                      A                      A                      A
 Frequencies --   3265.0025              3282.8094              3556.2522
 Red. masses --      1.0906                 1.1048                 1.0744
 Frc consts  --      6.8502                 7.0152                 8.0056
 IR Inten    --      1.7075                 2.5683                 1.7621

 - Thermochemistry -
 -------------------
 Temperature   298.150 Kelvin.  Pressure   1.00000 Atm.
 Atom     1 has atomic number  6 and mass  12.00000

 Molecular mass:   211.11432 amu.
 Principal axes and moments of inertia in atomic units:
                           1         2         3
     Eigenvalues --  1436.799805411.705625604.02265
           X            0.99986   0.01670  -0.00075
           Y           -0.01671   0.99867  -0.04869
           Z           -0.00007   0.04869   0.99881
 This molecule is an asymmetric top.
 Rotational symmetry number  1.
 Warning -- assumption of classical behavior for rotation
           may cause significant error
 Rotational temperatures (Kelvin)      0.06028     0.01600     0.01546
 Rotational constants (GHZ):           1.25608     0.33349     0.32204
 Zero-point vibrational energy     706735.2 (Joules/Mol)
                                  168.91378 (Kcal/Mol)
 Warning -- explicit consideration of  19 degrees of freedom as
           vibrations may cause significant error
 Vibrational temperatures:     42.09    69.85    85.78   108.14   157.87
          (Kelvin)            203.73   254.23   278.44   297.44   335.18
                              361.14   420.21   438.96   477.22   541.84
                              621.43   702.13   789.00   891.68   922.76
                              945.80   996.71   999.02  1043.98  1078.09
                             1083.85  1160.20  1193.95  1201.30  1268.30
                             1315.28  1386.17  1435.06  1448.64  1483.99
                             1495.04  1519.17  1549.59  1566.48  1582.08
                             1635.70  1671.37  1671.68  1682.55  1697.52
                             1733.93  1759.85  1799.82  1817.47  1862.33
                             1898.61  1917.79  1934.61  1960.16  1983.16
                             2011.46  2029.18  2106.13  2127.71  2134.86
                             2164.99  2174.70  2180.37  2188.84  2200.99
                             2206.37  2209.15  2232.47  2252.11  2264.82
                             4328.27  4348.02  4381.68  4412.37  4413.31
                             4415.92  4437.55  4440.60  4462.73  4480.24
                             4501.64  4511.79  4513.52  4553.83  4697.61
                             4723.23  5116.65

 Zero-point correction=                           0.269181 (Hartree/Particle)
 Thermal correction to Energy=                    0.283520
 Thermal correction to Enthalpy=                  0.284465
 Thermal correction to Gibbs Free Energy=         0.226649
 Sum of electronic and zero-point Energies=           -953.500631
 Sum of electronic and thermal Energies=              -953.486292
 Sum of electronic and thermal Enthalpies=            -953.485347
 Sum of electronic and thermal Free Energies=         -953.543163

                     E (Thermal)             CV                S
                      KCal/Mol        Cal/Mol-Kelvin    Cal/Mol-Kelvin
 Total                  177.912             53.583            121.683
 Electronic               0.000              0.000              0.000
 Translational            0.889              2.981             41.945
 Rotational               0.889              2.981             32.144
 Vibrational            176.134             47.622             47.594
 Vibration     1          0.593              1.984              5.880
 Vibration     2          0.595              1.978              4.876
 Vibration     3          0.597              1.974              4.470
 Vibration     4          0.599              1.966              4.013
 Vibration     5          0.606              1.941              3.274
 Vibration     6          0.615              1.912              2.782
 Vibration     7          0.628              1.871              2.363
 Vibration     8          0.635              1.849              2.194
 Vibration     9          0.641              1.830              2.072
 Vibration    10          0.654              1.791              1.856
 Vibration    11          0.663              1.761              1.723
 Vibration    12          0.687              1.689              1.462
 Vibration    13          0.696              1.664              1.389
 Vibration    14          0.714              1.612              1.252
 Vibration    15          0.747              1.520              1.053
 Vibration    16          0.793              1.401              0.852
 Vibration    17          0.844              1.277              0.689
 Vibration    18          0.904              1.143              0.548
 Vibration    19          0.980              0.990              0.417

 Optimization completed.
    -- Stationary point found.
 Normal termination of Gaussian 16 at Thu Dec 10 10:11:51 2020.

 ----------------------------------------------------------------------
 # B3LYP/6-311++G(d,p) empiricaldispersion=gd3bj scf=xqc pop=npa geom=c
 heck
 ----------------------------------------------------------------------

 ---------------------------------------
 CID_103134696_JID_4303_Energie_neutraal
 ---------------------------------------
 Structure from the checkpoint file:  "JID_4303.chk"
 Charge =  0 Multiplicity = 1

 SCF Done:  E(RB3LYP) =  -953.949059397     A.U. after   14 cycles
 Normal termination of Gaussian 16 at Thu Dec 10 10:16:36 2020.

 ----------------------------------------------------------------------
 # B3LYP/6-311++G(d,p) empiricaldispersion=gd3bj scf=xqc pop=npa geom=c
 heck
 ----------------------------------------------------------------------

 -------------------------------------
 CID_103134696_JID_4303_Energie_kation
 -------------------------------------
 Structure from the checkpoint file:  "JID_4303.chk"
 Charge =  1 Multiplicity = 2

 SCF Done:  E(UB3LYP) =  -953.674607369     A.U. after   26 cycles
 Normal termination of Gaussian 16 at Thu Dec 10 10:28:38 2020.
 Gaussian 16:  ES64L-G16RevA.03 25-Dec-2016

 ----------------------------------------------------------------------
 # B3LYP/6-311++G(d,p) empiricaldispersion=gd3bj scf=xqc pop=npa geom=c
 heck
 ----------------------------------------------------------------------

 ------------------------------------
 CID_103134696_JID_4303_Energie_anion
 ------------------------------------
 Structure from the checkpoint file:  "JID_4303.chk"
 Charge = -1 Multiplicity = 2

                         Standard orientation:
 ---------------------------------------------------------------------
 Center     Atomic      Atomic             Coordinates (Angstroms)
 Number     Number       Type             X           Y           Z
 ---------------------------------------------------------------------
      1          6           0        1.589813    2.012236    1.408509
      2          7           0        0.325852    1.359476    1.108604
      3          6           0        0.046734    0.966357   -0.264004
      4          6           0        0.913923   -0.155076   -0.939608
      5          6           0        0.977772   -1.470237   -0.137597
      6          6           0        2.179004   -1.413551    0.807562
      7         16           0        3.536238   -0.641150   -0.163724
      8          6           0        2.366788    0.279917   -1.264210
      9          6           0       -1.408238    0.572214   -0.357814
     10          7           0       -1.962272   -0.204503    0.578890
     11          7           0       -3.236778   -0.401425    0.170666
     12          6           0       -3.502653    0.232477   -1.000941
     13          6           0       -2.337618    0.873366   -1.380159
     14          6           0       -4.142305   -1.163969    1.003573
     15          1           0        1.700326    2.885214    0.752673
     16          1           0        2.494871    1.395541    1.300207
     17          1           0        1.554354    2.384094    2.438788
     18          1           0        0.102950    0.607646    1.751959
     19          1           0        0.180124    1.865706   -0.882175
     20          1           0        0.410319   -0.357014   -1.892760
     21          1           0        1.118945   -2.305041   -0.832905
     22          1           0        0.044905   -1.643957    0.408535
     23          1           0        1.968402   -0.813765    1.697121
     24          1           0        2.504094   -2.406323    1.129629
     25          1           0        2.628636    0.034845   -2.296547
     26          1           0        2.506051    1.355565   -1.129413
     27          1           0       -4.480747    0.184064   -1.457902
     28          1           0       -2.178676    1.475611   -2.262950
     29          1           0       -3.695264   -2.132559    1.241641
     30          1           0       -4.350116   -0.628898    1.935508
     31          1           0       -5.075918   -1.319557    0.459188
 ---------------------------------------------------------------------

 SCF Done:  E(UB3LYP) =  -953.936816786     A.U. after   32 cycles

 The electronic state is 2-A.
 Alpha  occ. eigenvalues --  -88.74476 -14.29027 -14.22490 -14.20261 -10.11495
 Alpha  occ. eigenvalues --  -10.10808 -10.10770 -10.10654 -10.10511 -10.09694
 Alpha  occ. eigenvalues --  -10.09470 -10.09013 -10.07845 -10.06448  -7.83106
 Alpha  occ. eigenvalues --   -5.79498  -5.79146  -5.78471  -0.95008  -0.81848
 Alpha  occ. eigenvalues --   -0.74926  -0.74374  -0.68542  -0.66469  -0.63798
 Alpha  occ. eigenvalues --   -0.61295  -0.58497  -0.54374  -0.50445  -0.49200
 Alpha  occ. eigenvalues --   -0.47248  -0.45364  -0.43151  -0.40360  -0.38944
 Alpha  occ. eigenvalues --   -0.37677  -0.36346  -0.35573  -0.34771  -0.33719
 Alpha  occ. eigenvalues --   -0.32864  -0.31376  -0.31333  -0.30418  -0.29156
 Alpha  occ. eigenvalues --   -0.28688  -0.28246  -0.27210  -0.25654  -0.25045
 Alpha  occ. eigenvalues --   -0.24255  -0.21818  -0.19644  -0.15223  -0.14600
 Alpha  occ. eigenvalues --   -0.13764  -0.12227   0.04207
 Alpha virt. eigenvalues --    0.06047   0.06694   0.07215   0.07818   0.08718
 Alpha virt. eigenvalues --    0.08959   0.09287   0.09945   0.10320   0.10537
 Alpha virt. eigenvalues --    0.11189   0.11611   0.12118   0.12243   0.12867

  Beta  occ. eigenvalues --  -88.74475 -14.29027 -14.22479 -14.20257 -10.11491
  Beta  occ. eigenvalues --  -10.10762 -10.10749 -10.10641 -10.10484 -10.09685
  Beta  occ. eigenvalues --  -10.09469 -10.09006 -10.07832 -10.06438  -7.83105
  Beta  occ. eigenvalues --   -5.79497  -5.79144  -5.78470  -0.94996  -0.81838
  Beta  occ. eigenvalues --   -0.74910  -0.74353  -0.68514  -0.66448  -0.63773
  Beta  occ. eigenvalues --   -0.61261  -0.58452  -0.54342  -0.50412  -0.49172
  Beta  occ. eigenvalues --   -0.47212  -0.45327  -0.43091  -0.40335  -0.38914
  Beta  occ. eigenvalues --   -0.37649  -0.36324  -0.35544  -0.34754  -0.33666
  Beta  occ. eigenvalues --   -0.32843  -0.31343  -0.31314  -0.30371  -0.29126
  Beta  occ. eigenvalues --   -0.28669  -0.28223  -0.27192  -0.25639  -0.25021
  Beta  occ. eigenvalues --   -0.24236  -0.21806  -0.19627  -0.15206  -0.14587
  Beta  occ. eigenvalues --   -0.13755  -0.12220
  Beta virt. eigenvalues --    0.06219   0.06955   0.07320   0.07529   0.08477
  Beta virt. eigenvalues --    0.09228   0.09315   0.09461   0.10025   0.10795
  Beta virt. eigenvalues --    0.11013   0.11341   0.11826   0.12478   0.12568

 Mulliken charges and spin densities:
               1          2
     1  C   -0.105434  -0.240241
     2  N   -0.100882  -0.008660
     3  C   -0.003329  -0.350802
     4  C    0.428162   0.191454
     5  C   -0.497415  -0.318804
     6  C   -0.283152  -0.094318
     7  S   -0.098880  -0.000029
     8  C    0.050920  -0.644633
     9  C    0.419345  -1.160179
    10  N   -0.599325   0.481349
    11  N    0.223402  -0.065472
    12  C    0.443947  -0.749700
    13  C   -0.047195   0.261621
    14  C    1.454753  -1.749813
    15  H   -0.008718   0.146253
    16  H    0.200535  -0.043458
    17  H    0.069976   0.063119
    18  H    0.212415   0.052335
    19  H    0.106735   0.100629
    20  H    0.018258   0.262194
    21  H   -0.077326   0.238185
    22  H    0.272110  -0.085742
    23  H    0.108661   0.047822
    24  H   -0.016358   0.255778
    25  H   -0.146846   0.384302
    26  H    0.090547   0.068026
    27  H   -1.170570   1.347504
    28  H   -0.505297   0.668094
    29  H   -0.412891   0.584070
    30  H   -0.260193   0.436938
    31  H   -0.765955   0.922179
 Sum of Mulliken charges =  -1.00000   1.00000

 Dipole moment (field-independent basis, Debye):
    X=              9.5764    Y=              2.2897    Z=              2.1373  Tot=             10.0756
 Quadrupole moment (field-independent basis, Debye-Ang):
   XX=           -203.3536   YY=           -130.7814   ZZ=           -129.9885
   XY=             -6.9225   XZ=             -0.7907   YZ=              0.2933

 Summary of Natural Population Analysis:

                                       Natural Population
                Natural  -----------------------------------------------
    Atom  No    Charge         Core      Valence    Rydberg      Total
 -----------------------------------------------------------------------
      C    1   -0.18271      0.99965     2.17613    0.00693     3.18271
      N    2   -0.34034      0.99974     2.82996    0.01065     3.84034
      C    3   -0.01373      0.99952     1.99885    0.01535     3.01373
      C    4   -0.11933      0.99957     2.10719    0.01257     3.11933
      C    5   -0.20563      0.99960     2.19493    0.01111     3.20563
      C    6   -0.24349      0.99960     2.23424    0.00964     3.24349
      S    7    0.06607      4.99965     2.91790    0.01638     7.93393
      C    8   -0.24406      0.99958     2.23419    0.01030     3.24406
      C    9    0.07821      0.99956     1.90433    0.01789     2.92179
      N   10   -0.16811      0.99968     2.65744    0.01099     3.66811
      N   11   -0.10360      0.99967     2.59066    0.01327     3.60360
      C   12    0.00269      0.99955     1.98562    0.01214     2.99731
      C   13   -0.16176      0.99950     2.15304    0.00921     3.16176
      C   14   -0.17043      0.99963     2.16220    0.00860     3.17043
      H   15    0.08953      0.00000     0.40945    0.00102     0.41047
      H   16    0.08430      0.00000     0.41334    0.00236     0.41570
      H   17    0.09172      0.00000     0.40740    0.00088     0.40828
      H   18    0.18002      0.00000     0.31692    0.00306     0.31998
      H   19    0.09651      0.00000     0.40180    0.00169     0.40349
      H   20    0.10996      0.00000     0.38863    0.00142     0.39004
      H   21    0.10215      0.00000     0.39661    0.00125     0.39785
      H   22    0.11821      0.00000     0.38017    0.00162     0.38179
      H   23    0.09579      0.00000     0.40252    0.00168     0.40421
      H   24    0.10533      0.00000     0.39354    0.00113     0.39467
      H   25    0.10522      0.00000     0.39337    0.00142     0.39478
      H   26    0.10095      0.00000     0.39743    0.00162     0.39905
      H   27    0.10847      0.00000     0.38829    0.00324     0.39153
      H   28    0.10919      0.00000     0.38971    0.00110     0.39081
      H   29    0.10321      0.00000     0.39503    0.00176     0.39679
      H   30    0.09941      0.00000     0.39906    0.00153     0.40059
      H   31    0.10627      0.00000     0.38915    0.00458     0.39373
 =======================================================================
   * Total *    0.00000     17.99451    38.80910    0.19639    57.00000

 Normal termination of Gaussian 16 at Thu Dec 10 10:43:44 2020.
