 Gaussian 16, Revision A.03,

 -----------------------------------------------------------
 # opt freq B3LYP/6-31G(d) empiricaldispersion=gd3bj scf=xqc
 -----------------------------------------------------------

 -----------------------------
 CID_10080469_JID_950_neutraal
 -----------------------------
 Symbolic Z-matrix:
 Charge =  0 Multiplicity = 1

 SCF Done:  E(RB3LYP) =  -426.625379096     A.U. after   14 cycles
 SCF Done:  E(RB3LYP) =  -426.627808400     A.U. after   12 cycles
 SCF Done:  E(RB3LYP) =  -426.627732453     A.U. after   12 cycles
 SCF Done:  E(RB3LYP) =  -426.628301563     A.U. after   10 cycles
 SCF Done:  E(RB3LYP) =  -426.628274019     A.U. after   11 cycles
 SCF Done:  E(RB3LYP) =  -426.628451753     A.U. after   12 cycles
 SCF Done:  E(RB3LYP) =  -426.628495443     A.U. after   11 cycles
 SCF Done:  E(RB3LYP) =  -426.628513862     A.U. after   11 cycles
 SCF Done:  E(RB3LYP) =  -426.628522412     A.U. after   10 cycles
 SCF Done:  E(RB3LYP) =  -426.628528541     A.U. after   10 cycles
 SCF Done:  E(RB3LYP) =  -426.628529433     A.U. after    9 cycles
 Optimization completed.
    -- Stationary point found.

 1\1\GINC-NODE119\FOpt\RB3LYP\6-31G(d)\C9H14O1\VSC10255\08-Dec-2020\0\\
 # opt freq B3LYP/6-31G(d) empiricaldispersion=gd3bj scf=xqc\\CID_10080
 469_JID_950_neutraal\\0,1\C,0.9123870621,0.0044045033,0.0909721536\C,0
 .0608702144,-1.0114402951,-0.0520804425\C,-1.4458441234,-0.9537025128,
 0.0435212068\C,-2.0903097001,0.4480548026,-0.102171706\C,-1.862387378,
 1.1982185019,-1.4236033617\C,-2.2328364186,0.4449078549,-2.7114938728\
 C,-1.2947397025,-0.732445209,-3.0357515159\C,-1.6733067889,-2.05557966
 74,-2.343723771\C,-2.1584411801,-1.9244005164,-0.9080822129\O,-3.12793

 Normal termination of Gaussian 16 at Tue Dec  8 13:43:15 2020.

 --------------------------------------------------------------------
 #N Geom=AllCheck Guess=TCheck SCRF=Check GenChk RB3LYP/6-31G(d) Freq
 --------------------------------------------------------------------

 Structure from the checkpoint file:  "JID_950.chk"
 -----------------------------
 CID_10080469_JID_950_neutraal
 -----------------------------
 Charge =  0 Multiplicity = 1

 SCF Done:  E(RB3LYP) =  -426.628529433     A.U. after    1 cycles

  Exact polarizability:  98.849   7.170  86.576  -3.467  -0.111  85.074
 Approx polarizability: 143.575  21.063 124.700 -11.795  -5.143 123.794

                      1                      2                      3
                      A                      A                      A
 Frequencies --     60.3903                95.2204               128.8846
 Red. masses --      3.9572                 2.5620                 2.8538
 Frc consts  --      0.0085                 0.0137                 0.0279
 IR Inten    --      2.7097                 0.9865                 0.3497

                      4                      5                      6
                      A                      A                      A
 Frequencies --    194.4505               215.2558               256.8944
 Red. masses --      2.5438                 2.4493                 2.1746
 Frc consts  --      0.0567                 0.0669                 0.0846
 IR Inten    --      0.2239                 0.9808                 0.0806

                      7                      8                      9
                      A                      A                      A
 Frequencies --    329.1098               347.3265               366.6273
 Red. masses --      2.2713                 2.7992                 2.4581
 Frc consts  --      0.1449                 0.1990                 0.1947
 IR Inten    --      1.3295                 0.6882                 0.6293

                     10                     11                     12
                      A                      A                      A
 Frequencies --    421.6363               484.3119               504.0474
 Red. masses --      3.8731                 2.1020                 2.1641
 Frc consts  --      0.4057                 0.2905                 0.3239
 IR Inten    --      3.7834                 1.6999                 1.3907

                     13                     14                     15
                      A                      A                      A
 Frequencies --    566.5576               629.7389               667.0759
 Red. masses --      2.5925                 1.9087                 2.9778
 Frc consts  --      0.4903                 0.4460                 0.7807
 IR Inten    --     11.5511                 4.8619                 0.1920

                     16                     17                     18
                      A                      A                      A
 Frequencies --    755.2044               792.5215               852.6603
 Red. masses --      1.8581                 2.2212                 2.1678
 Frc consts  --      0.6244                 0.8220                 0.9286
 IR Inten    --      9.6800                 1.0612                 1.4336

                     19                     20                     21
                      A                      A                      A
 Frequencies --    870.0420               900.8556               931.8981
 Red. masses --      1.7999                 3.0808                 1.7453
 Frc consts  --      0.8028                 1.4731                 0.8930
 IR Inten    --     10.7392                 4.2526                 2.0832

                     22                     23                     24
                      A                      A                      A
 Frequencies --    942.7040               957.1893               998.9446
 Red. masses --      1.3591                 2.1328                 2.1649
 Frc consts  --      0.7116                 1.1513                 1.2728
 IR Inten    --     31.7140                15.8423                 2.4967

                     25                     26                     27
                      A                      A                      A
 Frequencies --   1011.2267              1040.8041              1062.2069
 Red. masses --      1.6520                 1.1281                 1.9761
 Frc consts  --      0.9953                 0.7200                 1.3137
 IR Inten    --      6.4318                 8.8214                 1.3001

                     28                     29                     30
                      A                      A                      A
 Frequencies --   1087.1991              1117.7179              1151.4762
 Red. masses --      1.7056                 1.8893                 1.9109
 Frc consts  --      1.1878                 1.3907                 1.4928
 IR Inten    --     12.8263                 0.8905                13.8058

                     31                     32                     33
                      A                      A                      A
 Frequencies --   1166.8148              1228.3286              1238.5256
 Red. masses --      1.3631                 1.3171                 1.6957
 Frc consts  --      1.0934                 1.1709                 1.5325
 IR Inten    --      3.5524                 0.6197                15.8013

                     34                     35                     36
                      A                      A                      A
 Frequencies --   1255.3772              1284.7784              1305.1848
 Red. masses --      1.5982                 1.3972                 1.2572
 Frc consts  --      1.4840                 1.3588                 1.2619
 IR Inten    --      9.7500                 6.9507                10.1055

                     37                     38                     39
                      A                      A                      A
 Frequencies --   1330.3734              1344.9608              1360.6846
 Red. masses --      1.2905                 1.4216                 1.2655
 Frc consts  --      1.3457                 1.5151                 1.3805
 IR Inten    --      3.6098                 4.2993                 3.2632

                     40                     41                     42
                      A                      A                      A
 Frequencies --   1376.0737              1392.4616              1405.6129
 Red. masses --      1.4180                 1.3128                 1.3757
 Frc consts  --      1.5820                 1.4997                 1.6015
 IR Inten    --      5.1692                 5.1639                 5.0657

                     43                     44                     45
                      A                      A                      A
 Frequencies --   1411.7547              1423.6362              1474.3669
 Red. masses --      1.4457                 1.4019                 1.2079
 Frc consts  --      1.6977                 1.6741                 1.5470
 IR Inten    --      1.6939                 0.5724                 1.8556

                     46                     47                     48
                      A                      A                      A
 Frequencies --   1490.7654              1514.6982              1518.4054
 Red. masses --      1.0804                 1.0831                 1.0886
 Frc consts  --      1.4146                 1.4641                 1.4788
 IR Inten    --      6.2826                 1.8144                 6.5296

                     49                     50                     51
                      A                      A                      A
 Frequencies --   1526.9385              1532.3420              1726.9357
 Red. masses --      1.0886                 1.0879                 4.4905
 Frc consts  --      1.4954                 1.5050                 7.8904
 IR Inten    --     13.0386                 3.3247                19.0726

                     52                     53                     54
                      A                      A                      A
 Frequencies --   1802.5646              3027.6241              3029.6044
 Red. masses --     10.9076                 1.0648                 1.0800
 Frc consts  --     20.8814                 5.7505                 5.8402
 IR Inten    --    155.6869                21.0952                 4.1429

                     55                     56                     57
                      A                      A                      A
 Frequencies --   3033.6078              3042.1083              3051.3947
 Red. masses --      1.0671                 1.0654                 1.0644
 Frc consts  --      5.7861                 5.8092                 5.8391
 IR Inten    --     14.7313                17.1031                30.0422

                     58                     59                     60
                      A                      A                      A
 Frequencies --   3055.6556              3074.4868              3077.7981
 Red. masses --      1.0667                 1.0933                 1.1014
 Frc consts  --      5.8682                 6.0890                 6.1470
 IR Inten    --     33.5466                44.3930                24.3041

                     61                     62                     63
                      A                      A                      A
 Frequencies --   3089.8265              3094.8473              3113.0736
 Red. masses --      1.1016                 1.0996                 1.0968
 Frc consts  --      6.1963                 6.2051                 6.2625
 IR Inten    --      7.1253                48.8991                41.3787

                     64                     65                     66
                      A                      A                      A
 Frequencies --   3135.8321              3171.6839              3246.7601
 Red. masses --      1.0854                 1.0633                 1.1158
 Frc consts  --      6.2886                 6.3022                 6.9301
 IR Inten    --     17.6259                 6.8251                17.3454

 - Thermochemistry -
 -------------------
 Temperature   298.150 Kelvin.  Pressure   1.00000 Atm.
 Atom     1 has atomic number  6 and mass  12.00000

 Molecular mass:   138.10447 amu.
 Principal axes and moments of inertia in atomic units:
                           1         2         3
     Eigenvalues --  1204.958171382.487511709.15552
           X            0.99311  -0.11352   0.02905
           Y            0.11218   0.99270   0.04439
           Z           -0.03388  -0.04083   0.99859
 This molecule is an asymmetric top.
 Rotational symmetry number  1.
 Warning -- assumption of classical behavior for rotation
           may cause significant error
 Rotational temperatures (Kelvin)      0.07188     0.06265     0.05068
 Rotational constants (GHZ):           1.49776     1.30543     1.05593
 Zero-point vibrational energy     562819.5 (Joules/Mol)
                                  134.51708 (Kcal/Mol)
 Warning -- explicit consideration of  13 degrees of freedom as
           vibrations may cause significant error
 Vibrational temperatures:     86.89   137.00   185.44   279.77   309.71
          (Kelvin)            369.61   473.52   499.73   527.49   606.64
                              696.82   725.21   815.15   906.05   959.77
                             1086.57  1140.26  1226.79  1251.80  1296.13
                             1340.79  1356.34  1377.18  1437.26  1454.93
                             1497.48  1528.28  1564.24  1608.15  1656.72
                             1678.79  1767.29  1781.96  1806.21  1848.51
                             1877.87  1914.11  1935.10  1957.72  1979.86
                             2003.44  2022.36  2031.20  2048.29  2121.29
                             2144.88  2179.31  2184.65  2196.92  2204.70
                             2484.68  2593.49  4356.08  4358.92  4364.69
                             4376.92  4390.28  4396.41  4423.50  4428.27
                             4445.57  4452.80  4479.02  4511.76  4563.35
                             4671.36

 Zero-point correction=                           0.214367 (Hartree/Particle)
 Thermal correction to Energy=                    0.224182
 Thermal correction to Enthalpy=                  0.225126
 Thermal correction to Gibbs Free Energy=         0.179421
 Sum of electronic and zero-point Energies=           -426.414163
 Sum of electronic and thermal Energies=              -426.404347
 Sum of electronic and thermal Enthalpies=            -426.403403
 Sum of electronic and thermal Free Energies=         -426.449108

                     E (Thermal)             CV                S
                      KCal/Mol        Cal/Mol-Kelvin    Cal/Mol-Kelvin
 Total                  140.676             37.871             96.194
 Electronic               0.000              0.000              0.000
 Translational            0.889              2.981             40.680
 Rotational               0.889              2.981             29.433
 Vibrational            138.899             31.909             26.081
 Vibration     1          0.597              1.973              4.444
 Vibration     2          0.603              1.953              3.550
 Vibration     3          0.611              1.924              2.963
 Vibration     4          0.635              1.848              2.185
 Vibration     5          0.645              1.818              1.999
 Vibration     6          0.666              1.751              1.683
 Vibration     7          0.712              1.617              1.264
 Vibration     8          0.725              1.581              1.178
 Vibration     9          0.740              1.541              1.094
 Vibration    10          0.784              1.423              0.886
 Vibration    11          0.840              1.285              0.699
 Vibration    12          0.859              1.241              0.648
 Vibration    13          0.922              1.104              0.511

                           ! Non-Optimized Parameters !

 1\1\GINC-NODE119\Freq\RB3LYP\6-31G(d)\C9H14O1\VSC10255\08-Dec-2020\0\\
 #N Geom=AllCheck Guess=TCheck SCRF=Check GenChk RB3LYP/6-31G(d) Freq\\
 CID_10080469_JID_950_neutraal\\0,1\C,0.9123870621,0.0044045033,0.09097
 21536\C,0.0608702144,-1.0114402951,-0.0520804425\C,-1.4458441234,-0.95
 37025128,0.0435212068\C,-2.0903097001,0.4480548026,-0.102171706\C,-1.8
 62387378,1.1982185019,-1.4236033617\C,-2.2328364186,0.4449078549,-2.71
 14938728\C,-1.2947397025,-0.732445209,-3.0357515159\C,-1.6733067889,-2
 .0555796674,-2.343723771\C,-2.1584411801,-1.9244005164,-0.9080822129\O

 Normal termination of Gaussian 16 at Tue Dec  8 13:50:00 2020.

 ----------------------------------------------------------------------
 # B3LYP/6-311++G(d,p) empiricaldispersion=gd3bj scf=xqc pop=npa geom=c
 heck
 ----------------------------------------------------------------------

 -------------------------------------
 CID_10080469_JID_950_Energie_neutraal
 -------------------------------------
 Structure from the checkpoint file:  "JID_950.chk"
 Charge =  0 Multiplicity = 1

 SCF Done:  E(RB3LYP) =  -426.750109715     A.U. after   13 cycles
 Normal termination of Gaussian 16 at Tue Dec  8 13:52:47 2020.

 ----------------------------------------------------------------------
 # B3LYP/6-311++G(d,p) empiricaldispersion=gd3bj scf=xqc pop=npa geom=c
 heck
 ----------------------------------------------------------------------

 -----------------------------------
 CID_10080469_JID_950_Energie_kation
 -----------------------------------
 Structure from the checkpoint file:  "JID_950.chk"
 Charge =  1 Multiplicity = 2

 SCF Done:  E(UB3LYP) =  -426.424408605     A.U. after   21 cycles
 Normal termination of Gaussian 16 at Tue Dec  8 13:58:37 2020.
 Gaussian 16:  ES64L-G16RevA.03 25-Dec-2016

 ----------------------------------
 CID_10080469_JID_950_Energie_anion
 ----------------------------------
 Structure from the checkpoint file:  "JID_950.chk"
 Charge = -1 Multiplicity = 2

                         Standard orientation:
 ---------------------------------------------------------------------
 Center     Atomic      Atomic             Coordinates (Angstroms)
 Number     Number       Type             X           Y           Z
 ---------------------------------------------------------------------
      1          6           0        2.635383   -0.274694   -0.822962
      2          6           0        1.512954   -0.975510   -0.660182
      3          6           0        0.575947   -0.927243    0.524026
      4          6           0        0.696320    0.313033    1.445281
      5          6           0        0.429095    1.689809    0.817624
      6          6           0       -0.910062    1.858750    0.081763
      7          6           0       -1.001114    1.065743   -1.235119
      8          6           0       -1.461357   -0.394642   -1.066741
      9          6           0       -0.899404   -1.119015    0.146982
     10          8           0       -1.614709   -1.815377    0.843928
     11          1           0        2.973423    0.462766   -0.101027
     12          1           0        3.271126   -0.425713   -1.690800
     13          1           0        1.250671   -1.710428   -1.422844
     14          1           0        0.794569   -1.801434    1.152985
     15          1           0        1.700530    0.315002    1.887093
     16          1           0       -0.002119    0.154537    2.276141
     17          1           0        1.233774    1.943093    0.117773
     18          1           0        0.483683    2.430492    1.625915
     19          1           0       -1.035363    2.925449   -0.141039
     20          1           0       -1.745023    1.585070    0.743230
     21          1           0       -0.026915    1.098383   -1.735326
     22          1           0       -1.712076    1.555629   -1.910516
     23          1           0       -1.184954   -0.971654   -1.961224
     24          1           0       -2.550227   -0.455566   -0.975817
 ---------------------------------------------------------------------

 SCF Done:  E(UB3LYP) =  -426.737523613     A.U. after   31 cycles

 The electronic state is 2-A.
 Alpha  occ. eigenvalues --  -18.98383 -10.12601 -10.07097 -10.07058 -10.06121
 Alpha  occ. eigenvalues --  -10.05650 -10.05639 -10.05397 -10.05351 -10.05337
 Alpha  occ. eigenvalues --   -0.91911  -0.72050  -0.67842  -0.64740  -0.61822
 Alpha  occ. eigenvalues --   -0.55254  -0.51824  -0.46805  -0.44180  -0.40543
 Alpha  occ. eigenvalues --   -0.38017  -0.35521  -0.34375  -0.33089  -0.32556
 Alpha  occ. eigenvalues --   -0.30491  -0.29930  -0.29185  -0.27770  -0.27156
 Alpha  occ. eigenvalues --   -0.23888  -0.23011  -0.22373  -0.21591  -0.20709
 Alpha  occ. eigenvalues --   -0.20562  -0.15644  -0.12539   0.04827
 Alpha virt. eigenvalues --    0.07674   0.07815   0.08462   0.08783   0.09752
 Alpha virt. eigenvalues --    0.10537   0.10980   0.11270   0.11550   0.12532
 Alpha virt. eigenvalues --    0.13053   0.13667   0.14200   0.14399   0.16062

  Beta  occ. eigenvalues --  -18.98233 -10.12436 -10.07094 -10.07066 -10.06085
  Beta  occ. eigenvalues --  -10.05658 -10.05603 -10.05379 -10.05319 -10.05314
  Beta  occ. eigenvalues --   -0.91613  -0.71968  -0.67799  -0.64668  -0.61706
  Beta  occ. eigenvalues --   -0.55206  -0.51667  -0.46676  -0.44071  -0.40408
  Beta  occ. eigenvalues --   -0.37938  -0.35339  -0.34239  -0.33009  -0.32498
  Beta  occ. eigenvalues --   -0.30425  -0.29750  -0.29131  -0.27701  -0.26839
  Beta  occ. eigenvalues --   -0.23821  -0.22785  -0.22166  -0.21518  -0.20642
  Beta  occ. eigenvalues --   -0.20415  -0.15590  -0.12419
  Beta virt. eigenvalues --    0.07440   0.08536   0.08662   0.09069   0.09822
  Beta virt. eigenvalues --    0.10069   0.11282   0.11463   0.11567   0.12008
  Beta virt. eigenvalues --    0.12926   0.13491   0.14102   0.14493   0.14715

 Mulliken charges and spin densities:
               1          2
     1  C    1.341977  -1.846399
     2  C   -1.225327   0.979835
     3  C    0.464569   0.270655
     4  C    0.519374  -1.111501
     5  C    0.328166  -0.611839
     6  C   -0.943492   0.663236
     7  C    0.768293  -0.942957
     8  C    0.269675  -0.610742
     9  C   -0.020387  -0.296557
    10  O   -0.308965   0.064393
    11  H   -0.196086   0.327069
    12  H   -0.497037   0.634990
    13  H   -0.222883   0.396494
    14  H    0.066470   0.179138
    15  H   -0.225238   0.385806
    16  H    0.173422  -0.013831
    17  H   -0.091457   0.203249
    18  H   -0.194115   0.344643
    19  H   -0.525454   0.702695
    20  H    0.145314  -0.021706
    21  H   -0.094999   0.247333
    22  H   -0.464163   0.656602
    23  H   -0.177382   0.341940
    24  H    0.109725   0.057454
 Sum of Mulliken charges =  -1.00000   1.00000

 Dipole moment (field-independent basis, Debye):
    X=             -1.1514    Y=             -1.4415    Z=              2.2844  Tot=              2.9363
 Quadrupole moment (field-independent basis, Debye-Ang):
   XX=           -104.3668   YY=           -104.7121   ZZ=           -100.2237
   XY=             -2.9054   XZ=              0.3536   YZ=              3.6578

 Summary of Natural Population Analysis:

                                       Natural Population
                Natural  -----------------------------------------------
    Atom  No    Charge         Core      Valence    Rydberg      Total
 -----------------------------------------------------------------------
      C    1   -0.18957      0.99955     2.18287    0.00714     3.18957
      C    2   -0.08341      0.99955     2.07240    0.01145     3.08341
      C    3   -0.17452      0.99952     2.16218    0.01282     3.17452
      C    4   -0.18400      0.99961     2.17445    0.00994     3.18400
      C    5   -0.19120      0.99962     2.18266    0.00891     3.19120
      C    6   -0.19167      0.99963     2.18324    0.00881     3.19167
      C    7   -0.19446      0.99962     2.18554    0.00930     3.19446
      C    8   -0.23827      0.99958     2.22885    0.00984     3.23827
      C    9    0.32234      0.99963     1.65548    0.02254     2.67766
      O   10   -0.28545      0.99987     3.27884    0.00674     4.28545
      H   11    0.09248      0.00000     0.40597    0.00155     0.40752
      H   12    0.09572      0.00000     0.40288    0.00140     0.40428
      H   13    0.09493      0.00000     0.40371    0.00136     0.40507
      H   14    0.11622      0.00000     0.38211    0.00167     0.38378
      H   15    0.10221      0.00000     0.39642    0.00137     0.39779
      H   16    0.10032      0.00000     0.39852    0.00116     0.39968
      H   17    0.09743      0.00000     0.40061    0.00196     0.40257
      H   18    0.09748      0.00000     0.40141    0.00111     0.40252
      H   19    0.10099      0.00000     0.39760    0.00142     0.39901
      H   20    0.09175      0.00000     0.40706    0.00120     0.40825
      H   21    0.10149      0.00000     0.39655    0.00196     0.39851
      H   22    0.10125      0.00000     0.39697    0.00178     0.39875
      H   23    0.11310      0.00000     0.38494    0.00196     0.38690
      H   24    0.10483      0.00000     0.39397    0.00119     0.39517
 =======================================================================
   * Total *   -0.00000      9.99619    27.87523    0.12858    38.00000

 Normal termination of Gaussian 16 at Tue Dec  8 14:09:19 2020.
