 Gaussian 16, Revision A.03,

 -----------------------------------------------------------
 # opt freq B3LYP/6-31G(d) empiricaldispersion=gd3bj scf=xqc
 -----------------------------------------------------------

 ------------------------------
 CID_88680015_JID_7323_neutraal
 ------------------------------
 Symbolic Z-matrix:
 Charge =  0 Multiplicity = 1

 SCF Done:  E(RB3LYP) =  -727.815578270     A.U. after   15 cycles
 SCF Done:  E(RB3LYP) =  -727.823778351     A.U. after   14 cycles
 SCF Done:  E(RB3LYP) =  -727.823611742     A.U. after   14 cycles
 SCF Done:  E(RB3LYP) =  -727.826328856     A.U. after   13 cycles
 SCF Done:  E(RB3LYP) =  -727.825136108     A.U. after   14 cycles
 SCF Done:  E(RB3LYP) =  -727.827890682     A.U. after   13 cycles
 SCF Done:  E(RB3LYP) =  -727.828153561     A.U. after   13 cycles
 SCF Done:  E(RB3LYP) =  -727.828241144     A.U. after   12 cycles
 SCF Done:  E(RB3LYP) =  -727.828294583     A.U. after   12 cycles
 SCF Done:  E(RB3LYP) =  -727.828320837     A.U. after   11 cycles
 SCF Done:  E(RB3LYP) =  -727.829040248     A.U. after   12 cycles
 SCF Done:  E(RB3LYP) =  -727.829017574     A.U. after   12 cycles
 SCF Done:  E(RB3LYP) =  -727.829042401     A.U. after   12 cycles
 SCF Done:  E(RB3LYP) =  -727.829038655     A.U. after   11 cycles
 SCF Done:  E(RB3LYP) =  -727.829042727     A.U. after   11 cycles
 SCF Done:  E(RB3LYP) =  -727.829042778     A.U. after    8 cycles
 Optimization completed.
    -- Stationary point found.
 Normal termination of Gaussian 16 at Mon Dec 14 17:02:29 2020.

 --------------------------------------------------------------------
 #N Geom=AllCheck Guess=TCheck SCRF=Check GenChk RB3LYP/6-31G(d) Freq
 --------------------------------------------------------------------

 Structure from the checkpoint file:  "JID_7323.chk"
 ------------------------------
 CID_88680015_JID_7323_neutraal
 ------------------------------
 Charge =  0 Multiplicity = 1

 SCF Done:  E(RB3LYP) =  -727.829042778     A.U. after    1 cycles

  Exact polarizability: 230.115  -4.430 167.915  -1.808 -20.138 117.308
 Approx polarizability: 331.134 -27.663 272.481  -7.130 -51.773 185.629

                      1                      2                      3
                      A                      A                      A
 Frequencies --     18.3910                35.4442                43.4014
 Red. masses --      4.3723                 4.2188                 3.1693
 Frc consts  --      0.0009                 0.0031                 0.0035
 IR Inten    --      0.4644                 1.4844                 0.2478

                      4                      5                      6
                      A                      A                      A
 Frequencies --     57.4529                66.7662                86.1895
 Red. masses --      3.8470                 3.1477                 3.0916
 Frc consts  --      0.0075                 0.0083                 0.0135
 IR Inten    --      1.7505                 2.5512                 0.5100

                      7                      8                      9
                      A                      A                      A
 Frequencies --    102.9554               114.4678               162.8324
 Red. masses --      3.7162                 3.5701                 2.9626
 Frc consts  --      0.0232                 0.0276                 0.0463
 IR Inten    --      1.2755                 2.0027                 0.2648

                     10                     11                     12
                      A                      A                      A
 Frequencies --    177.6177               212.2356               253.2701
 Red. masses --      3.8935                 3.5168                 3.7902
 Frc consts  --      0.0724                 0.0933                 0.1432
 IR Inten    --      4.0608                14.9344                 7.7841

                     13                     14                     15
                      A                      A                      A
 Frequencies --    288.9656               300.8812               331.0173
 Red. masses --      3.9805                 3.7088                 3.5527
 Frc consts  --      0.1958                 0.1978                 0.2294
 IR Inten    --      6.2688                 2.3335                 6.3573

                     16                     17                     18
                      A                      A                      A
 Frequencies --    357.5940               387.6796               416.9568
 Red. masses --      4.2703                 2.6865                 3.5944
 Frc consts  --      0.3217                 0.2379                 0.3682
 IR Inten    --      4.1755                 2.1209                 3.3406

                     19                     20                     21
                      A                      A                      A
 Frequencies --    432.6056               440.4899               468.3751
 Red. masses --      2.5882                 2.1864                 2.5225
 Frc consts  --      0.2854                 0.2499                 0.3260
 IR Inten    --      0.5158                10.9886                 6.8294

                     22                     23                     24
                      A                      A                      A
 Frequencies --    480.5870               570.7177               586.0928
 Red. masses --      2.4273                 2.9075                 3.1418
 Frc consts  --      0.3303                 0.5580                 0.6359
 IR Inten    --     25.3466                 4.4745                19.0436

                     25                     26                     27
                      A                      A                      A
 Frequencies --    640.3786               656.7357               690.3160
 Red. masses --      5.9981                 2.1750                 2.3388
 Frc consts  --      1.4492                 0.5527                 0.6567
 IR Inten    --      2.1374                 7.5361                11.8378

                     28                     29                     30
                      A                      A                      A
 Frequencies --    746.9568               765.9449               800.0677
 Red. masses --      5.3294                 1.8738                 2.3627
 Frc consts  --      1.7519                 0.6477                 0.8911
 IR Inten    --     24.2344                 9.9505                31.5991

                     31                     32                     33
                      A                      A                      A
 Frequencies --    812.0733               880.0732               920.8737
 Red. masses --      3.9609                 2.7749                 1.3241
 Frc consts  --      1.5390                 1.2663                 0.6616
 IR Inten    --     15.2359                 8.3301                 3.7647

                     34                     35                     36
                      A                      A                      A
 Frequencies --    949.8546               951.0192               961.4702
 Red. masses --      1.4138                 1.8313                 1.3482
 Frc consts  --      0.7515                 0.9759                 0.7343
 IR Inten    --      7.9930                10.6667                38.6824

                     37                     38                     39
                      A                      A                      A
 Frequencies --    963.8533               969.4815               970.7732
 Red. masses --      1.8940                 1.3911                 1.3880
 Frc consts  --      1.0367                 0.7704                 0.7707
 IR Inten    --      5.2991                 4.1199                33.9142

                     40                     41                     42
                      A                      A                      A
 Frequencies --    983.3169               995.8196              1014.2635
 Red. masses --      1.6961                 2.0009                 4.9500
 Frc consts  --      0.9663                 1.1691                 3.0002
 IR Inten    --     53.0242                24.1708                 4.9402

                     43                     44                     45
                      A                      A                      A
 Frequencies --   1016.3420              1027.1457              1033.8005
 Red. masses --      1.2946                 1.5883                 1.1272
 Frc consts  --      0.7879                 0.9873                 0.7098
 IR Inten    --      1.2281                29.1830                14.9918

                     46                     47                     48
                      A                      A                      A
 Frequencies --   1034.6658              1076.8264              1110.9075
 Red. masses --      1.1077                 3.0012                 2.2303
 Frc consts  --      0.6987                 2.0504                 1.6217
 IR Inten    --     20.4272                36.6754                37.6080

                     49                     50                     51
                      A                      A                      A
 Frequencies --   1128.0330              1145.7675              1171.5115
 Red. masses --      1.6924                 2.5239                 1.9061
 Frc consts  --      1.2688                 1.9522                 1.5413
 IR Inten    --     43.8593                20.0821                 0.3442

                     52                     53                     54
                      A                      A                      A
 Frequencies --   1189.6190              1199.3485              1276.7289
 Red. masses --      1.1270                 2.9742                 1.3923
 Frc consts  --      0.9397                 2.5206                 1.3372
 IR Inten    --      2.9208                13.1376                 7.3300

                     55                     56                     57
                      A                      A                      A
 Frequencies --   1292.2245              1311.4138              1321.1811
 Red. masses --      1.8326                 1.7108                 2.0578
 Frc consts  --      1.8030                 1.7335                 2.1163
 IR Inten    --     22.3229                21.0847                53.7387

                     58                     59                     60
                      A                      A                      A
 Frequencies --   1328.5293              1340.1236              1352.5725
 Red. masses --      1.2928                 1.2861                 1.4133
 Frc consts  --      1.3444                 1.3609                 1.5234
 IR Inten    --     46.2584                 4.3373               185.8561

                     61                     62                     63
                      A                      A                      A
 Frequencies --   1356.6953              1399.8375              1409.1287
 Red. masses --      2.5224                 1.3782                 1.6335
 Frc consts  --      2.7355                 1.5912                 1.9111
 IR Inten    --     46.7376                53.4398                96.3532

                     64                     65                     66
                      A                      A                      A
 Frequencies --   1454.9119              1471.5379              1477.2943
 Red. masses --      1.4990                 1.5789                 1.1897
 Frc consts  --      1.8694                 2.0144                 1.5298
 IR Inten    --     59.9598                40.8009                 6.6203

                     67                     68                     69
                      A                      A                      A
 Frequencies --   1478.4874              1498.1663              1514.4978
 Red. masses --      1.2998                 1.8828                 1.2232
 Frc consts  --      1.6740                 2.4898                 1.6531
 IR Inten    --     22.3551                14.7446                39.6497

                     70                     71                     72
                      A                      A                      A
 Frequencies --   1518.1347              1529.2527              1617.6153
 Red. masses --      1.7252                 1.2643                 4.7932
 Frc consts  --      2.3426                 1.7420                 7.3896
 IR Inten    --     86.8421                12.7263                72.6492

                     73                     74                     75
                      A                      A                      A
 Frequencies --   1638.4343              1654.8552              1732.5902
 Red. masses --      4.9748                 5.1828                 4.3953
 Frc consts  --      7.8683                 8.3624                 7.7737
 IR Inten    --    507.5135                63.1642                 0.5177

                     76                     77                     78
                      A                      A                      A
 Frequencies --   1737.5034              1744.0023              2923.1617
 Red. masses --      4.5193                 8.6038                 1.0809
 Frc consts  --      8.0385                15.4182                 5.4416
 IR Inten    --      3.0795               308.2681               108.0778

                     79                     80                     81
                      A                      A                      A
 Frequencies --   3028.6365              3034.9864              3063.9602
 Red. masses --      1.0579                 1.0710                 1.1055
 Frc consts  --      5.7171                 5.8126                 6.1149
 IR Inten    --     55.5245                45.3307                15.4740

                     82                     83                     84
                      A                      A                      A
 Frequencies --   3148.2692              3156.5946              3161.2337
 Red. masses --      1.0897                 1.0889                 1.0628
 Frc consts  --      6.3636                 6.3927                 6.2574
 IR Inten    --      1.2770                34.3453                12.4678

                     85                     86                     87
                      A                      A                      A
 Frequencies --   3162.5998              3171.1786              3171.5920
 Red. masses --      1.0613                 1.0907                 1.0908
 Frc consts  --      6.2540                 6.4623                 6.4648
 IR Inten    --     10.9371                 9.7899                 9.0885

                     88                     89                     90
                      A                      A                      A
 Frequencies --   3188.8578              3201.5087              3212.3032
 Red. masses --      1.0889                 1.0879                 1.0961
 Frc consts  --      6.5239                 6.5700                 6.6642
 IR Inten    --     19.0311                 0.9256                29.9199

                     91                     92                     93
                      A                      A                      A
 Frequencies --   3244.6101              3248.2928              3266.2606
 Red. masses --      1.1164                 1.1158                 1.0924
 Frc consts  --      6.9246                 6.9368                 6.8667
 IR Inten    --     15.5414                11.9998                 6.5680

 - Thermochemistry -
 -------------------
 Temperature   298.150 Kelvin.  Pressure   1.00000 Atm.
 Atom     1 has atomic number  6 and mass  12.00000

 Molecular mass:   228.12626 amu.
 Principal axes and moments of inertia in atomic units:
                           1         2         3
     Eigenvalues --  2935.208306285.282517751.87892
           X            1.00000   0.00240   0.00197
           Y           -0.00243   0.99985   0.01694
           Z           -0.00193  -0.01694   0.99985
 This molecule is an asymmetric top.
 Rotational symmetry number  1.
 Warning -- assumption of classical behavior for rotation
           may cause significant error
 Rotational temperatures (Kelvin)      0.02951     0.01378     0.01117
 Rotational constants (GHZ):           0.61486     0.28714     0.23281
 Zero-point vibrational energy     717998.6 (Joules/Mol)
                                  171.60578 (Kcal/Mol)
 Warning -- explicit consideration of  24 degrees of freedom as
           vibrations may cause significant error
 Vibrational temperatures:     26.46    51.00    62.44    82.66    96.06
          (Kelvin)            124.01   148.13   164.69   234.28   255.55
                              305.36   364.40   415.76   432.90   476.26
                              514.50   557.78   599.91   622.42   633.77
                              673.89   691.46   821.14   843.26   921.36
                              944.90   993.21  1074.70  1102.02  1151.12
                             1168.39  1266.23  1324.93  1366.63  1368.30
                             1383.34  1386.77  1394.87  1396.73  1414.77
                             1432.76  1459.30  1462.29  1477.83  1487.41
                             1488.65  1549.31  1598.35  1622.99  1648.50
                             1685.54  1711.60  1725.59  1836.93  1859.22
                             1886.83  1900.88  1911.46  1928.14  1946.05
                             1951.98  2014.05  2027.42  2093.29  2117.21
                             2125.50  2127.21  2155.53  2179.02  2184.26
                             2200.25  2327.39  2357.34  2380.97  2492.81
                             2499.88  2509.23  4205.78  4357.53  4366.67
                             4408.36  4529.66  4541.64  4548.31  4550.28
                             4562.62  4563.21  4588.06  4606.26  4621.79
                             4668.27  4673.57  4699.42

 Zero-point correction=                           0.273471 (Hartree/Particle)
 Thermal correction to Energy=                    0.290199
 Thermal correction to Enthalpy=                  0.291143
 Thermal correction to Gibbs Free Energy=         0.226446
 Sum of electronic and zero-point Energies=           -727.555572
 Sum of electronic and thermal Energies=              -727.538844
 Sum of electronic and thermal Enthalpies=            -727.537900
 Sum of electronic and thermal Free Energies=         -727.602596

                     E (Thermal)             CV                S
                      KCal/Mol        Cal/Mol-Kelvin    Cal/Mol-Kelvin
 Total                  182.102             61.435            136.165
 Electronic               0.000              0.000              0.000
 Translational            0.889              2.981             42.176
 Rotational               0.889              2.981             33.325
 Vibrational            180.325             55.473             60.664
 Vibration     1          0.593              1.986              6.801
 Vibration     2          0.594              1.982              5.499
 Vibration     3          0.595              1.980              5.097
 Vibration     4          0.596              1.975              4.543
 Vibration     5          0.598              1.970              4.246
 Vibration     6          0.601              1.959              3.745
 Vibration     7          0.605              1.947              3.398
 Vibration     8          0.607              1.937              3.192
 Vibration     9          0.623              1.888              2.517
 Vibration    10          0.628              1.870              2.353
 Vibration    11          0.643              1.822              2.024
 Vibration    12          0.664              1.757              1.708
 Vibration    13          0.686              1.694              1.480
 Vibration    14          0.693              1.672              1.412
 Vibration    15          0.713              1.614              1.255
 Vibration    16          0.733              1.560              1.133
 Vibration    17          0.756              1.496              1.009
 Vibration    18          0.780              1.433              0.902
 Vibration    19          0.793              1.399              0.850
 Vibration    20          0.800              1.382              0.825
 Vibration    21          0.826              1.320              0.742
 Vibration    22          0.837              1.293              0.708
 Vibration    23          0.927              1.095              0.503
 Vibration    24          0.943              1.061              0.474

                           ! Non-Optimized Parameters !
 Normal termination of Gaussian 16 at Mon Dec 14 17:13:46 2020.

 ----------------------------------------------------------------------
 # B3LYP/6-311++G(d,p) empiricaldispersion=gd3bj scf=xqc pop=npa geom=c
 heck
 ----------------------------------------------------------------------

 --------------------------------------
 CID_88680015_JID_7323_Energie_neutraal
 --------------------------------------
 Structure from the checkpoint file:  "JID_7323.chk"
 Charge =  0 Multiplicity = 1

 SCF Done:  E(RB3LYP) =  -728.027991775     A.U. after   16 cycles
 Normal termination of Gaussian 16 at Mon Dec 14 17:20:04 2020.

 ----------------------------------------------------------------------
 # B3LYP/6-311++G(d,p) empiricaldispersion=gd3bj scf=xqc pop=npa geom=c
 heck
 ----------------------------------------------------------------------

 ------------------------------------
 CID_88680015_JID_7323_Energie_kation
 ------------------------------------
 Structure from the checkpoint file:  "JID_7323.chk"
 Charge =  1 Multiplicity = 2

 SCF Done:  E(UB3LYP) =  -727.763421975     A.U. after   23 cycles
 Normal termination of Gaussian 16 at Mon Dec 14 17:32:41 2020.
 Gaussian 16:  ES64L-G16RevA.03 25-Dec-2016

 ----------------------------------------------------------------------
 # B3LYP/6-311++G(d,p) empiricaldispersion=gd3bj scf=xqc pop=npa geom=c
 heck
 ----------------------------------------------------------------------

 -----------------------------------
 CID_88680015_JID_7323_Energie_anion
 -----------------------------------
 Structure from the checkpoint file:  "JID_7323.chk"
 Charge = -1 Multiplicity = 2

                         Standard orientation:
 ---------------------------------------------------------------------
 Center     Atomic      Atomic             Coordinates (Angstroms)
 Number     Number       Type             X           Y           Z
 ---------------------------------------------------------------------
      1          6           0       -3.259317   -1.836186   -2.198520
      2          6           0       -3.482994   -1.345014   -0.980444
      3          6           0       -2.438467   -1.347529    0.110431
      4          7           0       -1.852032   -0.014217    0.342986
      5          6           0       -2.793743    1.119196    0.315823
      6          6           0       -2.294807    2.316446    1.070326
      7          6           0       -2.202994    3.537047    0.545024
      8          6           0       -0.526668    0.239678    0.267715
      9          6           0        0.550272   -0.610346    0.453563
     10          6           0        0.401455   -1.837227    1.223334
     11          8           0        1.252892   -2.694855    1.441600
     12          6           0        1.871509   -0.109152    0.002177
     13          6           0        3.072314   -0.802637    0.244968
     14          6           0        4.270441   -0.252718   -0.198328
     15          6           0        4.262795    0.970522   -0.867096
     16          6           0        3.027669    1.585972   -1.064823
     17          7           0        1.867179    1.069739   -0.660286
     18          1           0       -2.295785   -2.259169   -2.474057
     19          1           0       -4.029888   -1.839276   -2.964438
     20          1           0       -4.462029   -0.935442   -0.737125
     21          1           0       -2.867030   -1.733023    1.045635
     22          1           0       -1.624345   -2.011065   -0.181153
     23          1           0       -3.038957    1.391317   -0.719767
     24          1           0       -3.721712    0.764942    0.783600
     25          1           0       -2.019584    2.141151    2.109617
     26          1           0       -1.870180    4.387526    1.132389
     27          1           0       -2.457442    3.730401   -0.494653
     28          1           0       -0.284735    1.264408    0.000727
     29          1           0       -0.588342   -1.942212    1.714446
     30          1           0        3.040243   -1.749343    0.765499
     31          1           0        5.204402   -0.779236   -0.019547
     32          1           0        5.176231    1.430393   -1.231133
     33          1           0        2.965209    2.540496   -1.586645
 ---------------------------------------------------------------------

 SCF Done:  E(UB3LYP) =  -728.034326319     A.U. after   30 cycles

 The electronic state is 2-A.
 Alpha  occ. eigenvalues --  -18.94041 -14.21176 -14.16387 -10.10004 -10.09033
 Alpha  occ. eigenvalues --  -10.08523 -10.07667 -10.07514 -10.07418 -10.06398
 Alpha  occ. eigenvalues --  -10.06369 -10.05637 -10.05568 -10.04842 -10.04678
 Alpha  occ. eigenvalues --  -10.03517 -10.01576  -0.87250  -0.83023  -0.80599
 Alpha  occ. eigenvalues --   -0.69115  -0.67871  -0.66909  -0.65216  -0.61027
 Alpha  occ. eigenvalues --   -0.59020  -0.55914  -0.50120  -0.49302  -0.47660
 Alpha  occ. eigenvalues --   -0.46648  -0.43925  -0.41979  -0.38780  -0.37828
 Alpha  occ. eigenvalues --   -0.37085  -0.36105  -0.35496  -0.34065  -0.32932
 Alpha  occ. eigenvalues --   -0.32076  -0.31133  -0.30155  -0.29049  -0.28234
 Alpha  occ. eigenvalues --   -0.27364  -0.26792  -0.26336  -0.25489  -0.24778
 Alpha  occ. eigenvalues --   -0.24261  -0.23272  -0.22924  -0.19049  -0.16949
 Alpha  occ. eigenvalues --   -0.16523  -0.15706  -0.14031  -0.12111  -0.09544
 Alpha  occ. eigenvalues --   -0.06646   0.04362
 Alpha virt. eigenvalues --    0.07375   0.08139   0.08522   0.08933   0.09153
 Alpha virt. eigenvalues --    0.09352   0.10079   0.10237   0.10338   0.10882
 Alpha virt. eigenvalues --    0.11009   0.11657   0.12001   0.12508   0.13140

  Beta  occ. eigenvalues --  -18.93855 -14.20937 -14.16308 -10.10020 -10.09017
  Beta  occ. eigenvalues --  -10.08399 -10.07671 -10.07477 -10.07329 -10.06345
  Beta  occ. eigenvalues --  -10.06280 -10.05570 -10.05459 -10.04654 -10.04293
  Beta  occ. eigenvalues --  -10.03558 -10.01662  -0.86910  -0.82523  -0.80466
  Beta  occ. eigenvalues --   -0.68980  -0.67551  -0.66776  -0.65038  -0.60736
  Beta  occ. eigenvalues --   -0.58825  -0.55722  -0.50004  -0.49087  -0.47239
  Beta  occ. eigenvalues --   -0.46398  -0.43642  -0.41795  -0.38585  -0.37603
  Beta  occ. eigenvalues --   -0.36980  -0.35970  -0.35391  -0.33871  -0.32797
  Beta  occ. eigenvalues --   -0.31929  -0.31003  -0.29903  -0.28819  -0.28181
  Beta  occ. eigenvalues --   -0.27024  -0.26649  -0.26227  -0.25353  -0.24594
  Beta  occ. eigenvalues --   -0.24053  -0.22984  -0.22357  -0.17775  -0.16522
  Beta  occ. eigenvalues --   -0.15852  -0.15169  -0.13582  -0.11938  -0.09378
  Beta  occ. eigenvalues --   -0.05817
  Beta virt. eigenvalues --    0.07310   0.08057   0.08413   0.08726   0.09261
  Beta virt. eigenvalues --    0.09609   0.09962   0.10115   0.10580   0.10905
  Beta virt. eigenvalues --    0.11281   0.11432   0.11923   0.12280   0.12562

 Mulliken charges and spin densities:
               1          2
     1  C   -0.457349   0.118237
     2  C    0.153220   0.016626
     3  C   -0.365601  -0.015091
     4  N    0.331658   0.046393
     5  C   -0.567662  -0.087138
     6  C    0.371119   0.056388
     7  C   -0.557316   0.008326
     8  C   -0.619405   0.425156
     9  C    0.388007  -0.101510
    10  C   -0.530778   0.078352
    11  O   -0.352053   0.059145
    12  C   -0.159283   0.066280
    13  C   -0.074863   0.016839
    14  C   -0.460821   0.027466
    15  C   -0.238380   0.025986
    16  C   -0.010766  -0.005983
    17  N    0.091324   0.043402
    18  H    0.128337  -0.006531
    19  H    0.047327   0.054426
    20  H    0.121849   0.004892
    21  H    0.135317   0.019786
    22  H    0.102713   0.001596
    23  H    0.064754   0.127475
    24  H    0.133501   0.003263
    25  H    0.153848  -0.002944
    26  H    0.118679  -0.004594
    27  H    0.062485   0.036913
    28  H    0.300779  -0.038840
    29  H    0.104568  -0.010428
    30  H    0.228189   0.003031
    31  H    0.137800  -0.004544
    32  H    0.114347   0.002532
    33  H    0.104456   0.035091
 Sum of Mulliken charges =  -1.00000   1.00000

 Dipole moment (field-independent basis, Debye):
    X=             -2.6466    Y=              2.9019    Z=              0.1021  Tot=              3.9288
 Quadrupole moment (field-independent basis, Debye-Ang):
   XX=           -132.7718   YY=           -132.8079   ZZ=           -119.5050
   XY=              4.0557   XZ=             -7.4521   YZ=              5.9707

 Summary of Natural Population Analysis:

                                       Natural Population
                Natural  -----------------------------------------------
    Atom  No    Charge         Core      Valence    Rydberg      Total
 -----------------------------------------------------------------------
      C    1   -0.16886      0.99957     2.16127    0.00802     3.16886
      C    2   -0.08532      0.99957     2.07660    0.00915     3.08532
      C    3   -0.09822      0.99959     2.08748    0.01114     3.09822
      N    4   -0.19892      0.99965     2.68922    0.01005     3.69892
      C    5   -0.09957      0.99959     2.08894    0.01104     3.09957
      C    6   -0.07974      0.99957     2.07172    0.00845     3.07974
      C    7   -0.18382      0.99956     2.17753    0.00673     3.18382
      C    8    0.18209      0.99952     1.80525    0.01314     2.81791
      C    9   -0.17438      0.99947     2.16361    0.01130     3.17438
      C   10    0.20226      0.99965     1.77844    0.01964     2.79774
      O   11   -0.30852      0.99988     3.30097    0.00767     4.30852
      C   12    0.12624      0.99952     1.86031    0.01393     2.87376
      C   13   -0.13439      0.99952     2.12668    0.00819     3.13439
      C   14   -0.07815      0.99957     2.06979    0.00879     3.07815
      C   15   -0.15024      0.99956     2.14102    0.00965     3.15024
      C   16    0.02653      0.99960     1.96005    0.01383     2.97347
      N   17   -0.24227      0.99968     2.73030    0.01228     3.74227
      H   18    0.09119      0.00000     0.40789    0.00092     0.40881
      H   19    0.08764      0.00000     0.41147    0.00089     0.41236
      H   20    0.08480      0.00000     0.41369    0.00150     0.41520
      H   21    0.09187      0.00000     0.40714    0.00099     0.40813
      H   22    0.10948      0.00000     0.38904    0.00148     0.39052
      H   23    0.09798      0.00000     0.39995    0.00207     0.40202
      H   24    0.09565      0.00000     0.40309    0.00126     0.40435
      H   25    0.09502      0.00000     0.40392    0.00106     0.40498
      H   26    0.08947      0.00000     0.40954    0.00099     0.41053
      H   27    0.08923      0.00000     0.40945    0.00132     0.41077
      H   28    0.10341      0.00000     0.39458    0.00201     0.39659
      H   29    0.04079      0.00000     0.45718    0.00202     0.45921
      H   30    0.12277      0.00000     0.37596    0.00127     0.37723
      H   31    0.09171      0.00000     0.40737    0.00092     0.40829
      H   32    0.09313      0.00000     0.40573    0.00114     0.40687
      H   33    0.08111      0.00000     0.41764    0.00125     0.41889
 =======================================================================
   * Total *    0.00000     16.99309    43.80282    0.20409    61.00000

 Normal termination of Gaussian 16 at Mon Dec 14 17:49:21 2020.
