 Gaussian 16, Revision A.03,

 -----------------------------------------------------------
 # opt freq B3LYP/6-31G(d) empiricaldispersion=gd3bj scf=xqc
 -----------------------------------------------------------

 ------------------------------
 CID_62199470_JID_4948_neutraal
 ------------------------------
 Symbolic Z-matrix:
 Charge =  0 Multiplicity = 1

 SCF Done:  E(RB3LYP) =  -618.419885411     A.U. after   14 cycles
 SCF Done:  E(RB3LYP) =  -618.421550751     A.U. after   12 cycles
 SCF Done:  E(RB3LYP) =  -618.421879528     A.U. after   12 cycles
 SCF Done:  E(RB3LYP) =  -618.423422055     A.U. after   12 cycles
 SCF Done:  E(RB3LYP) =  -618.424052385     A.U. after   12 cycles
 SCF Done:  E(RB3LYP) =  -618.423099404     A.U. after   12 cycles
 SCF Done:  E(RB3LYP) =  -618.424485588     A.U. after   11 cycles
 SCF Done:  E(RB3LYP) =  -618.424786088     A.U. after   10 cycles
 SCF Done:  E(RB3LYP) =  -618.424860434     A.U. after   10 cycles
 SCF Done:  E(RB3LYP) =  -618.424891309     A.U. after   10 cycles
 SCF Done:  E(RB3LYP) =  -618.425441547     A.U. after   10 cycles
 SCF Done:  E(RB3LYP) =  -618.422630092     A.U. after   13 cycles
 SCF Done:  E(RB3LYP) =  -618.425456919     A.U. after   11 cycles
 SCF Done:  E(RB3LYP) =  -618.425463681     A.U. after    9 cycles
 SCF Done:  E(RB3LYP) =  -618.425464615     A.U. after    8 cycles
 SCF Done:  E(RB3LYP) =  -618.425464850     A.U. after    7 cycles
 Optimization completed.
    -- Stationary point found.
 Normal termination of Gaussian 16 at Thu Dec 10 10:53:13 2020.

 --------------------------------------------------------------------
 #N Geom=AllCheck Guess=TCheck SCRF=Check GenChk RB3LYP/6-31G(d) Freq
 --------------------------------------------------------------------

 Structure from the checkpoint file:  "JID_4948.chk"
 ------------------------------
 CID_62199470_JID_4948_neutraal
 ------------------------------
 Charge =  0 Multiplicity = 1

 SCF Done:  E(RB3LYP) =  -618.425464850     A.U. after    1 cycles

  Exact polarizability: 144.809   5.313 130.049  -1.903   0.414 120.596
 Approx polarizability: 187.105  10.628 175.555  -9.438  -0.139 185.713

                      1                      2                      3
                      A                      A                      A
 Frequencies --     29.5355                52.7021                61.4260
 Red. masses --      3.5099                 3.4343                 4.5593
 Frc consts  --      0.0018                 0.0056                 0.0101
 IR Inten    --      0.6211                 0.5013                 0.9609

                      4                      5                      6
                      A                      A                      A
 Frequencies --     75.1715                95.0399               103.8417
 Red. masses --      3.2881                 2.6355                 3.0669
 Frc consts  --      0.0109                 0.0140                 0.0195
 IR Inten    --      0.9259                 0.1171                 0.1734

                      7                      8                      9
                      A                      A                      A
 Frequencies --    122.1163               140.7379               175.6569
 Red. masses --      2.5679                 3.1496                 2.3088
 Frc consts  --      0.0226                 0.0368                 0.0420
 IR Inten    --      0.6615                 1.3521                 0.1753

                     10                     11                     12
                      A                      A                      A
 Frequencies --    195.0193               217.2418               242.1512
 Red. masses --      1.7403                 1.9618                 1.4352
 Frc consts  --      0.0390                 0.0545                 0.0496
 IR Inten    --      0.8601                 0.7125                 3.5216

                     13                     14                     15
                      A                      A                      A
 Frequencies --    253.3542               265.1030               278.2139
 Red. masses --      1.4212                 1.6808                 1.9579
 Frc consts  --      0.0537                 0.0696                 0.0893
 IR Inten    --      0.4454                 5.8736                 3.1135

                     16                     17                     18
                      A                      A                      A
 Frequencies --    303.4895               314.3436               332.1464
 Red. masses --      2.3186                 1.4265                 1.4510
 Frc consts  --      0.1258                 0.0830                 0.0943
 IR Inten    --      0.8300                 5.5197                37.6360

                     19                     20                     21
                      A                      A                      A
 Frequencies --    365.0911               386.4754               415.5698
 Red. masses --      2.7952                 2.2804                 2.3423
 Frc consts  --      0.2195                 0.2007                 0.2383
 IR Inten    --      4.4671                 3.4530                 2.7307

                     22                     23                     24
                      A                      A                      A
 Frequencies --    444.2182               490.6114               520.3718
 Red. masses --      2.1336                 2.8716                 2.9336
 Frc consts  --      0.2481                 0.4072                 0.4680
 IR Inten    --      0.3245                 0.8255                 4.5690

                     25                     26                     27
                      A                      A                      A
 Frequencies --    538.9852               586.6519               668.1594
 Red. masses --      3.6868                 2.4495                 2.2970
 Frc consts  --      0.6310                 0.4967                 0.6042
 IR Inten    --     14.2277                28.0188                10.1949

                     28                     29                     30
                      A                      A                      A
 Frequencies --    735.8060               749.6505               768.2443
 Red. masses --      1.8522                 1.2874                 1.8636
 Frc consts  --      0.5908                 0.4263                 0.6480
 IR Inten    --     41.6742                12.4326                14.2646

                     31                     32                     33
                      A                      A                      A
 Frequencies --    809.0154               819.4804               847.3484
 Red. masses --      1.6912                 1.8744                 1.9356
 Frc consts  --      0.6522                 0.7416                 0.8188
 IR Inten    --      2.3204                 0.7624                 8.6599

                     34                     35                     36
                      A                      A                      A
 Frequencies --    864.3592               907.6893               915.2328
 Red. masses --      1.3852                 1.9064                 1.7050
 Frc consts  --      0.6097                 0.9254                 0.8415
 IR Inten    --    157.1255                45.4107                 4.8741

                     37                     38                     39
                      A                      A                      A
 Frequencies --    927.2174               961.8944               989.0753
 Red. masses --      1.6148                 1.6520                 1.6957
 Frc consts  --      0.8180                 0.9006                 0.9774
 IR Inten    --      1.5171                 2.2910                 3.1937

                     40                     41                     42
                      A                      A                      A
 Frequencies --   1000.7597              1012.3971              1049.3594
 Red. masses --      1.8818                 1.5509                 1.5808
 Frc consts  --      1.1104                 0.9366                 1.0256
 IR Inten    --      4.1751                14.2365                 1.4525

                     43                     44                     45
                      A                      A                      A
 Frequencies --   1078.6701              1085.2593              1102.4796
 Red. masses --      1.5749                 2.2212                 2.2783
 Frc consts  --      1.0797                 1.5414                 1.6316
 IR Inten    --      5.1730                 3.6587                 2.3226

                     46                     47                     48
                      A                      A                      A
 Frequencies --   1106.3812              1119.1336              1162.0749
 Red. masses --      2.1343                 1.7090                 2.0522
 Frc consts  --      1.5393                 1.2611                 1.6328
 IR Inten    --      1.0746                 3.2308                 8.1014

                     49                     50                     51
                      A                      A                      A
 Frequencies --   1173.0593              1181.6009              1188.9906
 Red. masses --      2.0538                 1.8506                 2.5451
 Frc consts  --      1.6651                 1.5223                 2.1199
 IR Inten    --      2.9290                 6.4517                12.1688

                     52                     53                     54
                      A                      A                      A
 Frequencies --   1203.6352              1255.2440              1280.7776
 Red. masses --      1.4795                 1.3438                 1.3672
 Frc consts  --      1.2629                 1.2475                 1.3214
 IR Inten    --     48.5767                 1.4158                 9.3815

                     55                     56                     57
                      A                      A                      A
 Frequencies --   1288.9768              1311.7487              1327.9093
 Red. masses --      1.3136                 1.4094                 1.2009
 Frc consts  --      1.2859                 1.4289                 1.2477
 IR Inten    --      0.5662                32.3411                 1.4658

                     58                     59                     60
                      A                      A                      A
 Frequencies --   1342.2912              1357.9197              1377.8468
 Red. masses --      1.2754                 1.1692                 1.9351
 Frc consts  --      1.3539                 1.2702                 2.1645
 IR Inten    --      4.0370                 0.2607               111.0920

                     61                     62                     63
                      A                      A                      A
 Frequencies --   1385.3023              1388.9936              1392.2888
 Red. masses --      1.3373                 1.3987                 1.3490
 Frc consts  --      1.5121                 1.5899                 1.5408
 IR Inten    --     22.9159                 7.1888                 9.9469

                     64                     65                     66
                      A                      A                      A
 Frequencies --   1403.8680              1410.9040              1415.3081
 Red. masses --      1.5320                 1.4706                 1.4125
 Frc consts  --      1.7789                 1.7248                 1.6670
 IR Inten    --     45.0946                 9.1289                 2.0100

                     67                     68                     69
                      A                      A                      A
 Frequencies --   1439.7191              1442.0728              1446.1616
 Red. masses --      1.2800                 1.2622                 1.2568
 Frc consts  --      1.5632                 1.5465                 1.5486
 IR Inten    --      9.4186                 7.9220                 7.6627

                     70                     71                     72
                      A                      A                      A
 Frequencies --   1452.2611              1492.0584              1509.9083
 Red. masses --      1.4328                 1.3895                 1.0734
 Frc consts  --      1.7804                 1.8226                 1.4418
 IR Inten    --     15.5556                27.5562                 0.0827

                     73                     74                     75
                      A                      A                      A
 Frequencies --   1517.3018              1520.0744              1523.7160
 Red. masses --      1.0673                 1.0822                 1.0737
 Frc consts  --      1.4477                 1.4733                 1.4687
 IR Inten    --      2.0109                 2.7784                 4.3543

                     76                     77                     78
                      A                      A                      A
 Frequencies --   1529.3351              1531.2681              1534.7303
 Red. masses --      1.0734                 1.0680                 1.0429
 Frc consts  --      1.4792                 1.4755                 1.4474
 IR Inten    --      8.0871                 4.8158                 7.1871

                     79                     80                     81
                      A                      A                      A
 Frequencies --   1538.7979              1541.4329              1541.9929
 Red. masses --      1.0565                 1.0763                 1.0545
 Frc consts  --      1.4739                 1.5067                 1.4773
 IR Inten    --     10.2893                 2.8426                 4.9668

                     82                     83                     84
                      A                      A                      A
 Frequencies --   1555.4503              1698.7631              1763.5267
 Red. masses --      1.0836                 1.0885                 7.2462
 Frc consts  --      1.5447                 1.8507                13.2777
 IR Inten    --      6.3817                27.7146               324.3077

                     85                     86                     87
                      A                      A                      A
 Frequencies --   3008.0411              3021.1998              3034.9875
 Red. masses --      1.0689                 1.0668                 1.0630
 Frc consts  --      5.6982                 5.7372                 5.7689
 IR Inten    --     64.9871                23.7381                15.0913

                     88                     89                     90
                      A                      A                      A
 Frequencies --   3039.9863              3046.0394              3049.6989
 Red. masses --      1.0642                 1.0659                 1.0372
 Frc consts  --      5.7945                 5.8269                 5.6839
 IR Inten    --     29.4658                17.9405                21.8786

                     91                     92                     93
                      A                      A                      A
 Frequencies --   3051.6169              3056.3527              3058.0840
 Red. masses --      1.0406                 1.0424                 1.0867
 Frc consts  --      5.7092                 5.7372                 5.9877
 IR Inten    --     27.0870                29.2121                42.8383

                     94                     95                     96
                      A                      A                      A
 Frequencies --   3068.4197              3069.0897              3082.6226
 Red. masses --      1.0919                 1.0996                 1.0861
 Frc consts  --      6.0573                 6.1024                 6.0808
 IR Inten    --     36.9949                26.4096                22.2746

                     97                     98                     99
                      A                      A                      A
 Frequencies --   3085.9828              3089.8213              3113.0772
 Red. masses --      1.0974                 1.0983                 1.1015
 Frc consts  --      6.1572                 6.1781                 6.2894
 IR Inten    --     68.3685                 5.5050                36.7539

                    100                    101                    102
                      A                      A                      A
 Frequencies --   3115.1449              3121.3996              3122.0572
 Red. masses --      1.1009                 1.1003                 1.1001
 Frc consts  --      6.2946                 6.3164                 6.3179
 IR Inten    --     50.1783                11.7385                41.0187

                    103                    104                    105
                      A                      A                      A
 Frequencies --   3133.9709              3146.3419              3162.6998
 Red. masses --      1.0993                 1.1000                 1.0852
 Frc consts  --      6.3614                 6.4159                 6.3955
 IR Inten    --     46.6511                20.0558                18.8882

                    106                    107                    108
                      A                      A                      A
 Frequencies --   3474.4771              3544.3221              3562.3860
 Red. masses --      1.0493                 1.0744                 1.0929
 Frc consts  --      7.4632                 7.9520                 8.1716
 IR Inten    --      1.5196                 9.8030                 0.2216

 - Thermochemistry -
 -------------------
 Temperature   298.150 Kelvin.  Pressure   1.00000 Atm.
 Atom     1 has atomic number  6 and mass  12.00000

 Molecular mass:   200.18886 amu.
 Principal axes and moments of inertia in atomic units:
                           1         2         3
     Eigenvalues --  2150.063584263.861384774.75511
           X            0.99989  -0.00143   0.01507
           Y            0.00150   0.99999  -0.00517
           Z           -0.01506   0.00519   0.99987
 This molecule is an asymmetric top.
 Rotational symmetry number  1.
 Warning -- assumption of classical behavior for rotation
           may cause significant error
 Rotational temperatures (Kelvin)      0.04028     0.02031     0.01814
 Rotational constants (GHZ):           0.83939     0.42326     0.37798
 Zero-point vibrational energy     922368.7 (Joules/Mol)
                                  220.45142 (Kcal/Mol)
 Warning -- explicit consideration of  26 degrees of freedom as
           vibrations may cause significant error
 Vibrational temperatures:     42.49    75.83    88.38   108.15   136.74
          (Kelvin)            149.41   175.70   202.49   252.73   280.59
                              312.56   348.40   364.52   381.42   400.29
                              436.65   452.27   477.88   525.28   556.05
                              597.91   639.13   705.88   748.70   775.48
                              844.06   961.33  1058.66  1078.58  1105.33
                             1163.99  1179.05  1219.15  1243.62  1305.96
                             1316.82  1334.06  1383.95  1423.06  1439.87
                             1456.61  1509.79  1551.97  1561.45  1586.22
                             1591.84  1610.18  1671.97  1687.77  1700.06
                             1710.69  1731.76  1806.02  1842.75  1854.55
                             1887.31  1910.57  1931.26  1953.74  1982.41
                             1993.14  1998.45  2003.19  2019.85  2029.98
                             2036.31  2071.43  2074.82  2080.70  2089.48
                             2146.74  2172.42  2183.06  2187.05  2192.29
                             2200.37  2203.15  2208.13  2213.99  2217.78
                             2218.58  2237.95  2444.14  2537.32  4327.90
                             4346.83  4366.67  4373.86  4382.57  4387.84
                             4390.60  4397.41  4399.90  4414.77  4415.74
                             4435.21  4440.04  4445.56  4479.02  4482.00
                             4491.00  4491.94  4509.09  4526.88  4550.42
                             4999.00  5099.49  5125.48

 Zero-point correction=                           0.351312 (Hartree/Particle)
 Thermal correction to Energy=                    0.368547
 Thermal correction to Enthalpy=                  0.369492
 Thermal correction to Gibbs Free Energy=         0.306389
 Sum of electronic and zero-point Energies=           -618.074153
 Sum of electronic and thermal Energies=              -618.056918
 Sum of electronic and thermal Enthalpies=            -618.055973
 Sum of electronic and thermal Free Energies=         -618.119076

                     E (Thermal)             CV                S
                      KCal/Mol        Cal/Mol-Kelvin    Cal/Mol-Kelvin
 Total                  231.267             63.887            132.811
 Electronic               0.000              0.000              0.000
 Translational            0.889              2.981             41.787
 Rotational               0.889              2.981             32.148
 Vibrational            229.489             57.926             58.876
 Vibration     1          0.593              1.984              5.860
 Vibration     2          0.596              1.977              4.713
 Vibration     3          0.597              1.973              4.411
 Vibration     4          0.599              1.966              4.013
 Vibration     5          0.603              1.953              3.554
 Vibration     6          0.605              1.946              3.381
 Vibration     7          0.610              1.931              3.067
 Vibration     8          0.615              1.913              2.794
 Vibration     9          0.628              1.872              2.374
 Vibration    10          0.636              1.847              2.180
 Vibration    11          0.646              1.815              1.982
 Vibration    12          0.658              1.776              1.787
 Vibration    13          0.665              1.757              1.707
 Vibration    14          0.671              1.737              1.628
 Vibration    15          0.679              1.714              1.545
 Vibration    16          0.695              1.667              1.398
 Vibration    17          0.702              1.646              1.339
 Vibration    18          0.714              1.611              1.250
 Vibration    19          0.738              1.544              1.100
 Vibration    20          0.755              1.499              1.014
 Vibration    21          0.779              1.436              0.907
 Vibration    22          0.804              1.374              0.813
 Vibration    23          0.846              1.271              0.682
 Vibration    24          0.875              1.205              0.609
 Vibration    25          0.894              1.164              0.567
 Vibration    26          0.944              1.060              0.473

 Optimization completed.
    -- Stationary point found.
 Normal termination of Gaussian 16 at Thu Dec 10 11:07:20 2020.

 ----------------------------------------------------------------------
 # B3LYP/6-311++G(d,p) empiricaldispersion=gd3bj scf=xqc pop=npa geom=c
 heck
 ----------------------------------------------------------------------

 --------------------------------------
 CID_62199470_JID_4948_Energie_neutraal
 --------------------------------------
 Structure from the checkpoint file:  "JID_4948.chk"
 Charge =  0 Multiplicity = 1

 SCF Done:  E(RB3LYP) =  -618.614299046     A.U. after   14 cycles
 Normal termination of Gaussian 16 at Thu Dec 10 11:14:10 2020.

 ----------------------------------------------------------------------
 # B3LYP/6-311++G(d,p) empiricaldispersion=gd3bj scf=xqc pop=npa geom=c
 heck
 ----------------------------------------------------------------------

 ------------------------------------
 CID_62199470_JID_4948_Energie_kation
 ------------------------------------
 Structure from the checkpoint file:  "JID_4948.chk"
 Charge =  1 Multiplicity = 2

 SCF Done:  E(UB3LYP) =  -618.299282421     A.U. after   25 cycles
 Normal termination of Gaussian 16 at Thu Dec 10 11:31:17 2020.
 Gaussian 16:  ES64L-G16RevA.03 25-Dec-2016

 ----------------------------------------------------------------------
 # B3LYP/6-311++G(d,p) empiricaldispersion=gd3bj scf=xqc pop=npa geom=c
 heck
 ----------------------------------------------------------------------

 -----------------------------------
 CID_62199470_JID_4948_Energie_anion
 -----------------------------------
 Structure from the checkpoint file:  "JID_4948.chk"
 Charge = -1 Multiplicity = 2

                         Standard orientation:
 ---------------------------------------------------------------------
 Center     Atomic      Atomic             Coordinates (Angstroms)
 Number     Number       Type             X           Y           Z
 ---------------------------------------------------------------------
      1          6           0       -3.411357    1.685306    0.271213
      2          6           0       -3.333650    0.251346    0.802927
      3          6           0       -3.158908   -0.809491   -0.294918
      4          6           0       -1.820210   -0.764859   -1.047383
      5          6           0       -0.564337   -0.970164   -0.178244
      6          6           0       -0.613185   -2.271947    0.629120
      7          7           0        0.614065   -0.941525   -1.057666
      8          6           0        1.702584   -0.093484   -1.112633
      9          8           0        2.296995    0.042887   -2.177176
     10          6           0        2.242146    0.632888    0.131095
     11          6           0        1.818159    2.118700    0.123304
     12          6           0        0.320335    2.396636    0.266386
     13          6           0        2.073792   -0.065708    1.486049
     14          7           0        2.764148   -1.359570    1.466017
     15          1           0       -2.495974    1.977964   -0.251958
     16          1           0       -3.566184    2.400912    1.086093
     17          1           0       -4.245122    1.794576   -0.433019
     18          1           0       -2.517805    0.172485    1.534538
     19          1           0       -4.253783    0.026276    1.357313
     20          1           0       -3.295649   -1.806468    0.141089
     21          1           0       -3.966532   -0.690812   -1.029929
     22          1           0       -1.831755   -1.546572   -1.821383
     23          1           0       -1.715170    0.188730   -1.579032
     24          1           0       -0.485043   -0.129780    0.509287
     25          1           0       -0.727227   -3.135305   -0.037323
     26          1           0        0.310082   -2.402088    1.198921
     27          1           0       -1.450423   -2.273191    1.334060
     28          1           0        0.453938   -1.339102   -1.978737
     29          1           0        3.320001    0.625453   -0.061866
     30          1           0        2.363941    2.627414    0.928430
     31          1           0        2.173228    2.551819   -0.818318
     32          1           0       -0.087888    2.002012    1.203783
     33          1           0        0.124685    3.474369    0.253664
     34          1           0       -0.242307    1.953321   -0.562214
     35          1           0        2.567730    0.561341    2.238997
     36          1           0        1.017216   -0.125672    1.787627
     37          1           0        2.634852   -1.843801    2.352190
     38          1           0        2.359532   -1.954648    0.745242
 ---------------------------------------------------------------------

 SCF Done:  E(UB3LYP) =  -618.604358684     A.U. after   31 cycles

 The electronic state is 2-A.
 Alpha  occ. eigenvalues --  -18.99283 -14.24065 -14.20125 -10.17938 -10.12291
 Alpha  occ. eigenvalues --  -10.10297 -10.09018 -10.08486 -10.07982 -10.07246
 Alpha  occ. eigenvalues --  -10.07213 -10.06932 -10.06592 -10.06238  -0.94510
 Alpha  occ. eigenvalues --   -0.82927  -0.79415  -0.71564  -0.70867  -0.66978
 Alpha  occ. eigenvalues --   -0.62980  -0.61946  -0.56947  -0.55075  -0.52887
 Alpha  occ. eigenvalues --   -0.52012  -0.47030  -0.46603  -0.40443  -0.40257
 Alpha  occ. eigenvalues --   -0.38901  -0.38003  -0.37334  -0.35541  -0.35405
 Alpha  occ. eigenvalues --   -0.34079  -0.33404  -0.32756  -0.32434  -0.30189
 Alpha  occ. eigenvalues --   -0.30076  -0.29592  -0.29228  -0.29014  -0.27549
 Alpha  occ. eigenvalues --   -0.26838  -0.26152  -0.25542  -0.24209  -0.23965
 Alpha  occ. eigenvalues --   -0.23587  -0.22992  -0.22734  -0.16840  -0.15816
 Alpha  occ. eigenvalues --   -0.15154   0.04036
 Alpha virt. eigenvalues --    0.06319   0.06447   0.07238   0.08190   0.08377
 Alpha virt. eigenvalues --    0.09101   0.09321   0.09857   0.10012   0.10785
 Alpha virt. eigenvalues --    0.11370   0.11640   0.11862   0.12168   0.12583

  Beta  occ. eigenvalues --  -18.99270 -14.24065 -14.20102 -10.17928 -10.12284
  Beta  occ. eigenvalues --  -10.10277 -10.09016 -10.08479 -10.07970 -10.07226
  Beta  occ. eigenvalues --  -10.07192 -10.06906 -10.06549 -10.06212  -0.94487
  Beta  occ. eigenvalues --   -0.82915  -0.79377  -0.71531  -0.70845  -0.66939
  Beta  occ. eigenvalues --   -0.62946  -0.61894  -0.56886  -0.55021  -0.52849
  Beta  occ. eigenvalues --   -0.51953  -0.46979  -0.46556  -0.40413  -0.40227
  Beta  occ. eigenvalues --   -0.38867  -0.37970  -0.37307  -0.35508  -0.35372
  Beta  occ. eigenvalues --   -0.34038  -0.33364  -0.32726  -0.32397  -0.30148
  Beta  occ. eigenvalues --   -0.30047  -0.29556  -0.29186  -0.28978  -0.27519
  Beta  occ. eigenvalues --   -0.26804  -0.26111  -0.25521  -0.24185  -0.23942
  Beta  occ. eigenvalues --   -0.23554  -0.22949  -0.22689  -0.16829  -0.15785
  Beta  occ. eigenvalues --   -0.15130
  Beta virt. eigenvalues --    0.06249   0.06946   0.07230   0.07836   0.08588
  Beta virt. eigenvalues --    0.08808   0.09467   0.09705   0.10067   0.10387
  Beta virt. eigenvalues --    0.11097   0.11679   0.11959   0.12196   0.12417

 Mulliken charges and spin densities:
               1          2
     1  C    0.663773  -1.309939
     2  C   -0.679727   0.639656
     3  C    0.936835  -1.408944
     4  C   -0.953599   0.847722
     5  C   -0.986965   0.898373
     6  C    1.298683  -1.927807
     7  N   -0.200109   0.163181
     8  C   -0.517135   0.296074
     9  O   -0.303659   0.000592
    10  C    0.149869   0.302784
    11  C    0.328487  -0.776032
    12  C   -0.733201   0.246771
    13  C    0.344474  -0.990051
    14  N   -0.289280  -0.052029
    15  H    0.057641   0.060820
    16  H   -0.234391   0.380632
    17  H   -0.031453   0.158142
    18  H   -0.518482   0.682063
    19  H   -0.523079   0.709196
    20  H   -0.001651   0.158042
    21  H   -0.257119   0.423430
    22  H   -0.110373   0.245845
    23  H    0.025569   0.166313
    24  H    2.287737  -2.348484
    25  H   -0.277494   0.453766
    26  H   -0.002670   0.138076
    27  H   -0.407153   0.564344
    28  H    0.255448   0.044762
    29  H    0.219262   0.038451
    30  H    0.061892   0.084257
    31  H    0.176567  -0.011438
    32  H    0.173706  -0.018214
    33  H   -0.321609   0.497866
    34  H    0.175598   0.008753
    35  H   -0.177950   0.363915
    36  H   -0.781825   0.949127
    37  H   -0.000576   0.247052
    38  H    0.153959   0.072932
 Sum of Mulliken charges =  -1.00000   1.00000

 Dipole moment (field-independent basis, Debye):
    X=              2.6808    Y=              1.4664    Z=             -2.8363  Tot=              4.1691
 Quadrupole moment (field-independent basis, Debye-Ang):
   XX=           -167.3515   YY=           -136.5978   ZZ=           -139.4731
   XY=              2.1386   XZ=              9.7608   YZ=              2.3354

 Summary of Natural Population Analysis:

                                       Natural Population
                Natural  -----------------------------------------------
    Atom  No    Charge         Core      Valence    Rydberg      Total
 -----------------------------------------------------------------------
      C    1   -0.28621      0.99966     2.28081    0.00573     3.28621
      C    2   -0.19168      0.99964     2.18393    0.00811     3.19168
      C    3   -0.19003      0.99962     2.18158    0.00883     3.19003
      C    4   -0.18909      0.99960     2.18037    0.00911     3.18909
      C    5   -0.02435      0.99957     2.01304    0.01173     3.02435
      C    6   -0.28968      0.99964     2.28317    0.00687     3.28968
      N    7   -0.32536      0.99966     2.81538    0.01032     3.82536
      C    8    0.35220      0.99963     1.62469    0.02348     2.64780
      O    9   -0.32627      0.99988     3.32084    0.00555     4.32627
      C   10   -0.15466      0.99953     2.14367    0.01146     3.15466
      C   11   -0.18430      0.99962     2.17639    0.00830     3.18430
      C   12   -0.29007      0.99966     2.28527    0.00515     3.29007
      C   13   -0.09118      0.99961     2.08037    0.01120     3.09118
      N   14   -0.42228      0.99977     2.91326    0.00924     3.92228
      H   15    0.09493      0.00000     0.40379    0.00128     0.40507
      H   16    0.10082      0.00000     0.39815    0.00103     0.39918
      H   17    0.09445      0.00000     0.40457    0.00099     0.40555
      H   18    0.09354      0.00000     0.40444    0.00202     0.40646
      H   19    0.09841      0.00000     0.39999    0.00159     0.40159
      H   20    0.10034      0.00000     0.39807    0.00159     0.39966
      H   21    0.09731      0.00000     0.40159    0.00110     0.40269
      H   22    0.09648      0.00000     0.40234    0.00118     0.40352
      H   23    0.09861      0.00000     0.40002    0.00136     0.40139
      H   24    0.10192      0.00000     0.39369    0.00439     0.39808
      H   25    0.09920      0.00000     0.39948    0.00132     0.40080
      H   26    0.10157      0.00000     0.39676    0.00166     0.39843
      H   27    0.10492      0.00000     0.39367    0.00141     0.39508
      H   28    0.19087      0.00000     0.30672    0.00241     0.30913
      H   29    0.11686      0.00000     0.38139    0.00175     0.38314
      H   30    0.09613      0.00000     0.40283    0.00104     0.40387
      H   31    0.10199      0.00000     0.39696    0.00104     0.39801
      H   32    0.09895      0.00000     0.39966    0.00139     0.40105
      H   33    0.10173      0.00000     0.39746    0.00081     0.39827
      H   34    0.09607      0.00000     0.40259    0.00134     0.40393
      H   35    0.09282      0.00000     0.40593    0.00125     0.40718
      H   36    0.08263      0.00000     0.41491    0.00245     0.41737
      H   37    0.17738      0.00000     0.32094    0.00168     0.32262
      H   38    0.17503      0.00000     0.32263    0.00234     0.32497
 =======================================================================
   * Total *    0.00000     13.99510    41.83138    0.17352    56.00000

 Normal termination of Gaussian 16 at Thu Dec 10 11:52:35 2020.
