 Gaussian 16, Revision A.03,

 -----------------------------------------------------------
 # opt freq B3LYP/6-31G(d) empiricaldispersion=gd3bj scf=xqc
 -----------------------------------------------------------

 -------------------------------
 CID_115454159_JID_4541_neutraal
 -------------------------------
 Symbolic Z-matrix:
 Charge =  0 Multiplicity = 1

 SCF Done:  E(RB3LYP) =  -613.528148749     A.U. after   14 cycles
 SCF Done:  E(RB3LYP) =  -613.533737448     A.U. after   12 cycles
 SCF Done:  E(RB3LYP) =  -613.534627809     A.U. after   11 cycles
 SCF Done:  E(RB3LYP) =  -613.534938851     A.U. after   11 cycles
 SCF Done:  E(RB3LYP) =  -613.534986880     A.U. after   11 cycles
 SCF Done:  E(RB3LYP) =  -613.535005116     A.U. after   10 cycles
 SCF Done:  E(RB3LYP) =  -613.535011630     A.U. after    8 cycles
 SCF Done:  E(RB3LYP) =  -613.535014211     A.U. after    8 cycles
 SCF Done:  E(RB3LYP) =  -613.535015071     A.U. after    8 cycles
 SCF Done:  E(RB3LYP) =  -613.535015599     A.U. after    8 cycles
 SCF Done:  E(RB3LYP) =  -613.535015803     A.U. after    8 cycles
 SCF Done:  E(RB3LYP) =  -613.535015954     A.U. after    8 cycles
 SCF Done:  E(RB3LYP) =  -613.535016024     A.U. after    8 cycles
 SCF Done:  E(RB3LYP) =  -613.535016042     A.U. after    7 cycles
 Optimization completed.
    -- Stationary point found.
 Normal termination of Gaussian 16 at Thu Dec 10 10:04:02 2020.

 --------------------------------------------------------------------
 #N Geom=AllCheck Guess=TCheck SCRF=Check GenChk RB3LYP/6-31G(d) Freq
 --------------------------------------------------------------------

 Structure from the checkpoint file:  "JID_4541.chk"
 -------------------------------
 CID_115454159_JID_4541_neutraal
 -------------------------------
 Charge =  0 Multiplicity = 1

 SCF Done:  E(RB3LYP) =  -613.535016042     A.U. after    1 cycles

  Exact polarizability: 161.987 -19.931 120.289 -18.844 -19.259 104.715
 Approx polarizability: 218.251 -38.295 195.571 -31.176 -38.809 167.553

                      1                      2                      3
                      A                      A                      A
 Frequencies --     22.3952                38.8751                50.5521
 Red. masses --      4.2228                 4.4401                 3.7688
 Frc consts  --      0.0012                 0.0040                 0.0057
 IR Inten    --      0.9344                 0.3122                 0.8628

                      4                      5                      6
                      A                      A                      A
 Frequencies --    111.1296               169.4863               189.8026
 Red. masses --      2.6193                 4.4227                 3.6533
 Frc consts  --      0.0191                 0.0749                 0.0775
 IR Inten    --      4.1886                 1.2595                 0.2662

                      7                      8                      9
                      A                      A                      A
 Frequencies --    222.5037               236.6842               272.3420
 Red. masses --      3.7617                 3.6593                 3.4075
 Frc consts  --      0.1097                 0.1208                 0.1489
 IR Inten    --      7.9825                13.4034                 3.7333

                     10                     11                     12
                      A                      A                      A
 Frequencies --    293.6957               301.6046               311.2180
 Red. masses --      1.0614                 1.4977                 1.8089
 Frc consts  --      0.0539                 0.0803                 0.1032
 IR Inten    --     16.0352                57.8928                44.2123

                     13                     14                     15
                      A                      A                      A
 Frequencies --    338.4202               400.5301               421.2742
 Red. masses --      1.9249                 2.1631                 3.0580
 Frc consts  --      0.1299                 0.2045                 0.3197
 IR Inten    --     17.6993                 2.1408                 0.7726

                     16                     17                     18
                      A                      A                      A
 Frequencies --    448.5531               497.3679               523.1839
 Red. masses --      2.7800                 2.7206                 3.8274
 Frc consts  --      0.3296                 0.3965                 0.6173
 IR Inten    --     17.4283                 7.7945                27.0847

                     19                     20                     21
                      A                      A                      A
 Frequencies --    543.0104               578.1207               610.4366
 Red. masses --      6.0525                 2.9980                 1.8240
 Frc consts  --      1.0515                 0.5904                 0.4005
 IR Inten    --     13.5840                35.3813               174.6455

                     22                     23                     24
                      A                      A                      A
 Frequencies --    634.7916               661.3097               697.2424
 Red. masses --      1.8007                 2.3646                 1.9111
 Frc consts  --      0.4275                 0.6093                 0.5474
 IR Inten    --     69.6875               170.6185                 6.3450

                     25                     26                     27
                      A                      A                      A
 Frequencies --    718.8536               754.1532               766.2356
 Red. masses --      3.5809                 1.8761                 2.1702
 Frc consts  --      1.0902                 0.6287                 0.7507
 IR Inten    --     12.9847                16.7506                48.6657

                     28                     29                     30
                      A                      A                      A
 Frequencies --    801.4503               819.3481               821.2048
 Red. masses --      1.0401                 1.5797                 1.7752
 Frc consts  --      0.3936                 0.6248                 0.7053
 IR Inten    --      0.4393                15.9179                50.7635

                     31                     32                     33
                      A                      A                      A
 Frequencies --    864.8774               912.9126               929.6623
 Red. masses --      2.1867                 1.7099                 1.8349
 Frc consts  --      0.9637                 0.8396                 0.9344
 IR Inten    --      6.0767                 9.8502                11.2612

                     34                     35                     36
                      A                      A                      A
 Frequencies --    945.0918               967.1054               996.2593
 Red. masses --      1.2355                 1.8036                 2.4036
 Frc consts  --      0.6502                 0.9939                 1.4056
 IR Inten    --      0.1072                 9.1723                 1.4353

                     37                     38                     39
                      A                      A                      A
 Frequencies --   1010.8927              1031.5111              1054.4120
 Red. masses --      5.5004                 1.7152                 1.5881
 Frc consts  --      3.3118                 1.0752                 1.0403
 IR Inten    --      0.7772                30.9885                42.4311

                     40                     41                     42
                      A                      A                      A
 Frequencies --   1063.6821              1087.2605              1091.0308
 Red. masses --      1.9299                 3.0981                 1.6270
 Frc consts  --      1.2865                 2.1578                 1.1411
 IR Inten    --      2.0997                48.0223                 5.0685

                     43                     44                     45
                      A                      A                      A
 Frequencies --   1098.4091              1126.0903              1154.5865
 Red. masses --      2.4568                 1.8899                 1.3399
 Frc consts  --      1.7464                 1.4120                 1.0524
 IR Inten    --     16.1579                12.9456                 6.2250

                     46                     47                     48
                      A                      A                      A
 Frequencies --   1201.8368              1202.3243              1239.7664
 Red. masses --      1.2295                 1.1359                 1.2760
 Frc consts  --      1.0464                 0.9674                 1.1555
 IR Inten    --      2.9683                26.3401                47.8981

                     49                     50                     51
                      A                      A                      A
 Frequencies --   1250.8571              1263.7488              1297.9666
 Red. masses --      1.7629                 1.5236                 2.3425
 Frc consts  --      1.6252                 1.4336                 2.3252
 IR Inten    --     84.6929                13.8668                 5.7494

                     52                     53                     54
                      A                      A                      A
 Frequencies --   1328.4101              1364.1183              1368.7640
 Red. masses --      2.1233                 1.4932                 2.0510
 Frc consts  --      2.2076                 1.6371                 2.2640
 IR Inten    --     20.9810                12.3157                19.3777

                     55                     56                     57
                      A                      A                      A
 Frequencies --   1386.5118              1410.7665              1419.0452
 Red. masses --      4.0389                 1.2587                 1.4292
 Frc consts  --      4.5747                 1.4760                 1.6957
 IR Inten    --     22.8173                40.3905                 7.8803

                     58                     59                     60
                      A                      A                      A
 Frequencies --   1438.5995              1482.4804              1503.5351
 Red. masses --      1.3372                 1.0906                 1.9129
 Frc consts  --      1.6306                 1.4121                 2.5478
 IR Inten    --     16.2218                 4.0289                20.1989

                     61                     62                     63
                      A                      A                      A
 Frequencies --   1519.5301              1526.6039              1535.1829
 Red. masses --      1.2242                 1.1046                 1.3633
 Frc consts  --      1.6654                 1.5167                 1.8930
 IR Inten    --     10.8213                 2.7376                 1.0278

                     64                     65                     66
                      A                      A                      A
 Frequencies --   1545.9338              1573.1070              1651.6946
 Red. masses --      2.3156                 1.9060                 4.5414
 Frc consts  --      3.2605                 2.7790                 7.2997
 IR Inten    --     29.6779               142.3747                79.8038

                     67                     68                     69
                      A                      A                      A
 Frequencies --   1673.0789              1695.3419              3044.3425
 Red. masses --      4.2488                 1.2437                 1.0581
 Frc consts  --      7.0073                 2.1060                 5.7776
 IR Inten    --    194.6138               125.3152                50.5673

                     70                     71                     72
                      A                      A                      A
 Frequencies --   3054.4989              3089.4626              3111.5577
 Red. masses --      1.0681                 1.1073                 1.0961
 Frc consts  --      5.8715                 6.2272                 6.2528
 IR Inten    --     42.5041                24.1457                21.2990

                     73                     74                     75
                      A                      A                      A
 Frequencies --   3137.7294              3149.7397              3171.9987
 Red. masses --      1.0537                 1.0564                 1.0857
 Frc consts  --      6.1123                 6.1750                 6.4362
 IR Inten    --     18.5125                18.5330                 5.5715

                     76                     77                     78
                      A                      A                      A
 Frequencies --   3183.0954              3195.4726              3199.7202
 Red. masses --      1.0898                 1.0889                 1.0958
 Frc consts  --      6.5056                 6.5510                 6.6102
 IR Inten    --     26.6389                30.2682                14.0681

                     79                     80                     81
                      A                      A                      A
 Frequencies --   3213.2232              3239.9924              3547.8244
 Red. masses --      1.1170                 1.1156                 1.0479
 Frc consts  --      6.7949                 6.9001                 7.7715
 IR Inten    --     11.0681                 9.0593                 8.2921

                     82                     83                     84
                      A                      A                      A
 Frequencies --   3563.4427              3646.1729              3762.3313
 Red. masses --      1.0746                 1.0977                 1.0664
 Frc consts  --      8.0395                 8.5985                 8.8934
 IR Inten    --      4.3131                 6.2787                13.1186

 - Thermochemistry -
 -------------------
 Temperature   298.150 Kelvin.  Pressure   1.00000 Atm.
 Atom     1 has atomic number  6 and mass  12.00000

 Molecular mass:   192.12626 amu.
 Principal axes and moments of inertia in atomic units:
                           1         2         3
     Eigenvalues --  1481.048114762.131995108.34914
           X            0.99989  -0.01286  -0.00670
           Y            0.01238   0.99763  -0.06762
           Z            0.00756   0.06753   0.99769
 This molecule is an asymmetric top.
 Rotational symmetry number  1.
 Warning -- assumption of classical behavior for rotation
           may cause significant error
 Rotational temperatures (Kelvin)      0.05848     0.01819     0.01696
 Rotational constants (GHZ):           1.21856     0.37898     0.35329
 Zero-point vibrational energy     680551.8 (Joules/Mol)
                                  162.65577 (Kcal/Mol)
 Warning -- explicit consideration of  21 degrees of freedom as
           vibrations may cause significant error
 Vibrational temperatures:     32.22    55.93    72.73   159.89   243.85
          (Kelvin)            273.08   320.13   340.54   391.84   422.56
                              433.94   447.77   486.91   576.27   606.12
                              645.37   715.60   752.74   781.27   831.79
                              878.28   913.32   951.48  1003.18  1034.27
                             1085.06  1102.44  1153.11  1178.86  1181.53
                             1244.37  1313.48  1337.58  1359.78  1391.45
                             1433.39  1454.45  1484.11  1517.06  1530.40
                             1564.33  1569.75  1580.37  1620.19  1661.19
                             1729.18  1729.88  1783.75  1799.70  1818.25
                             1867.48  1911.29  1962.66  1969.35  1994.88
                             2029.78  2041.69  2069.82  2132.96  2163.25
                             2186.26  2196.44  2208.79  2224.25  2263.35
                             2376.42  2407.19  2439.22  4380.13  4394.74
                             4445.05  4476.84  4514.49  4531.77  4563.80
                             4579.76  4597.57  4603.68  4623.11  4661.63
                             5104.53  5127.00  5246.03  5413.16

 Zero-point correction=                           0.259208 (Hartree/Particle)
 Thermal correction to Energy=                    0.273066
 Thermal correction to Enthalpy=                  0.274010
 Thermal correction to Gibbs Free Energy=         0.217733
 Sum of electronic and zero-point Energies=           -613.275808
 Sum of electronic and thermal Energies=              -613.261950
 Sum of electronic and thermal Enthalpies=            -613.261006
 Sum of electronic and thermal Free Energies=         -613.317283

                     E (Thermal)             CV                S
                      KCal/Mol        Cal/Mol-Kelvin    Cal/Mol-Kelvin
 Total                  171.351             54.156            118.444
 Electronic               0.000              0.000              0.000
 Translational            0.889              2.981             41.664
 Rotational               0.889              2.981             31.955
 Vibrational            169.574             48.194             44.825
 Vibration     1          0.593              1.985              6.410
 Vibration     2          0.594              1.981              5.316
 Vibration     3          0.595              1.977              4.796
 Vibration     4          0.607              1.940              3.249
 Vibration     5          0.625              1.880              2.441
 Vibration     6          0.633              1.854              2.230
 Vibration     7          0.648              1.807              1.939
 Vibration     8          0.656              1.785              1.828
 Vibration     9          0.675              1.724              1.581
 Vibration    10          0.688              1.685              1.453
 Vibration    11          0.694              1.671              1.408
 Vibration    12          0.700              1.652              1.356
 Vibration    13          0.719              1.599              1.220
 Vibration    14          0.766              1.469              0.961
 Vibration    15          0.784              1.424              0.888
 Vibration    16          0.808              1.364              0.800
 Vibration    17          0.853              1.256              0.665
 Vibration    18          0.878              1.199              0.603
 Vibration    19          0.898              1.155              0.559
 Vibration    20          0.935              1.079              0.489
 Vibration    21          0.969              1.010              0.432

 Optimization completed.
    -- Stationary point found.
 Normal termination of Gaussian 16 at Thu Dec 10 10:13:23 2020.

 ----------------------------------------------------------------------
 # B3LYP/6-311++G(d,p) empiricaldispersion=gd3bj scf=xqc pop=npa geom=c
 heck
 ----------------------------------------------------------------------

 ---------------------------------------
 CID_115454159_JID_4541_Energie_neutraal
 ---------------------------------------
 Structure from the checkpoint file:  "JID_4541.chk"
 Charge =  0 Multiplicity = 1

 SCF Done:  E(RB3LYP) =  -613.723079189     A.U. after   14 cycles
 Normal termination of Gaussian 16 at Thu Dec 10 10:17:31 2020.

 ----------------------------------------------------------------------
 # B3LYP/6-311++G(d,p) empiricaldispersion=gd3bj scf=xqc pop=npa geom=c
 heck
 ----------------------------------------------------------------------

 -------------------------------------
 CID_115454159_JID_4541_Energie_kation
 -------------------------------------
 Structure from the checkpoint file:  "JID_4541.chk"
 Charge =  1 Multiplicity = 2

 SCF Done:  E(UB3LYP) =  -613.461880665     A.U. after   23 cycles
 Normal termination of Gaussian 16 at Thu Dec 10 10:27:13 2020.
 Gaussian 16:  ES64L-G16RevA.03 25-Dec-2016

 ----------------------------------------------------------------------
 # B3LYP/6-311++G(d,p) empiricaldispersion=gd3bj scf=xqc pop=npa geom=c
 heck
 ----------------------------------------------------------------------

 ------------------------------------
 CID_115454159_JID_4541_Energie_anion
 ------------------------------------
 Structure from the checkpoint file:  "JID_4541.chk"
 Charge = -1 Multiplicity = 2

                         Standard orientation:
 ---------------------------------------------------------------------
 Center     Atomic      Atomic             Coordinates (Angstroms)
 Number     Number       Type             X           Y           Z
 ---------------------------------------------------------------------
      1          6           0        3.321296   -0.808230    0.365142
      2          6           0        3.687979    0.269596   -0.629223
      3          6           0        2.244907    0.047785   -0.261298
      4          6           0        1.354989   -0.619797   -1.303536
      5          7           0        0.289689   -1.455203   -0.763771
      6          6           0       -0.915947   -0.939569   -0.281828
      7          6           0       -1.592951   -1.632605    0.740110
      8          6           0       -2.819116   -1.164875    1.200063
      9          6           0       -3.398040   -0.010568    0.679385
     10          6           0       -2.731789    0.688865   -0.338954
     11          6           0       -1.498152    0.221073   -0.812574
     12          7           0       -3.318918    1.817194   -0.922732
     13          6           0        1.554786    1.106524    0.593478
     14          8           0        2.419522    1.728667    1.539987
     15          1           0        3.587987   -0.637754    1.404531
     16          1           0        3.399049   -1.847681    0.054454
     17          1           0        4.164167    1.161330   -0.234971
     18          1           0        4.021964   -0.033953   -1.618204
     19          1           0        0.912924    0.133374   -1.962270
     20          1           0        1.979104   -1.253236   -1.945390
     21          1           0        0.653148   -2.193723   -0.172542
     22          1           0       -1.151499   -2.531766    1.162766
     23          1           0       -3.331011   -1.707027    1.990989
     24          1           0       -4.355764    0.346701    1.047742
     25          1           0       -1.009545    0.764918   -1.614645
     26          1           0       -3.978770    2.299535   -0.325067
     27          1           0       -2.661876    2.466396   -1.337860
     28          1           0        1.195044    1.912954   -0.056170
     29          1           0        0.675685    0.677121    1.090545
     30          1           0        2.500042    1.130351    2.297131
 ---------------------------------------------------------------------

 SCF Done:  E(UB3LYP) =  -613.710787689     A.U. after   33 cycles
 SCF Done:  E(UB3LYP) =  -613.710787689     a.u. after    1 cycles

 The electronic state is 2-A.
 Alpha  occ. eigenvalues --  -19.02530 -14.22250 -14.21478 -10.11602 -10.11416
 Alpha  occ. eigenvalues --  -10.11301 -10.11176 -10.08859 -10.07452 -10.07419
 Alpha  occ. eigenvalues --  -10.07413 -10.06045 -10.05891 -10.05804  -0.92630
 Alpha  occ. eigenvalues --   -0.83967  -0.81640  -0.76900  -0.72729  -0.64536
 Alpha  occ. eigenvalues --   -0.63332  -0.60854  -0.57829  -0.51108  -0.50860
 Alpha  occ. eigenvalues --   -0.50109  -0.45987  -0.43664  -0.41705  -0.41180
 Alpha  occ. eigenvalues --   -0.40183  -0.38882  -0.36816  -0.36260  -0.35379
 Alpha  occ. eigenvalues --   -0.33416  -0.32602  -0.31887  -0.30254  -0.29165
 Alpha  occ. eigenvalues --   -0.28244  -0.27123  -0.26890  -0.25127  -0.24584
 Alpha  occ. eigenvalues --   -0.23310  -0.21035  -0.18794  -0.18384  -0.17692
 Alpha  occ. eigenvalues --   -0.11938  -0.09732   0.04231
 Alpha virt. eigenvalues --    0.05751   0.06967   0.07245   0.08256   0.08337
 Alpha virt. eigenvalues --    0.09071   0.09923   0.10212   0.10682   0.10935
 Alpha virt. eigenvalues --    0.11115   0.12103   0.12916   0.13150   0.13649

  Beta  occ. eigenvalues --  -19.02500 -14.22237 -14.21423 -10.11587 -10.11417
  Beta  occ. eigenvalues --  -10.11300 -10.11166 -10.08860 -10.07422 -10.07409
  Beta  occ. eigenvalues --  -10.07392 -10.06031 -10.05880 -10.05790  -0.92567
  Beta  occ. eigenvalues --   -0.83944  -0.81574  -0.76881  -0.72699  -0.64517
  Beta  occ. eigenvalues --   -0.63291  -0.60807  -0.57787  -0.51039  -0.50814
  Beta  occ. eigenvalues --   -0.50070  -0.45936  -0.43609  -0.41669  -0.41121
  Beta  occ. eigenvalues --   -0.40139  -0.38834  -0.36775  -0.36218  -0.35342
  Beta  occ. eigenvalues --   -0.33379  -0.32572  -0.31860  -0.30229  -0.29147
  Beta  occ. eigenvalues --   -0.28223  -0.27088  -0.26863  -0.25104  -0.24555
  Beta  occ. eigenvalues --   -0.23283  -0.20995  -0.18768  -0.18366  -0.17665
  Beta  occ. eigenvalues --   -0.11912  -0.09714
  Beta virt. eigenvalues --    0.06583   0.07170   0.07419   0.07958   0.08636
  Beta virt. eigenvalues --    0.08945   0.09096   0.10099   0.10490   0.10919
  Beta virt. eigenvalues --    0.11269   0.11524   0.12240   0.13030   0.13619

 Mulliken charges and spin densities:
               1          2
     1  C    1.414473  -1.738681
     2  C   -0.486856   0.134579
     3  C   -1.645709   2.442089
     4  C    0.401565  -1.398631
     5  N    0.078502   0.121371
     6  C    0.008747  -0.739153
     7  C   -0.704371   0.568780
     8  C    0.380661  -0.712510
     9  C   -0.248061   0.281536
    10  C   -0.438017   0.434759
    11  C    1.236468  -1.031414
    12  N   -0.247193  -0.057298
    13  C    0.798072  -1.474237
    14  O   -0.237778   0.001692
    15  H   -0.431423   0.591841
    16  H   -0.304737   0.452087
    17  H    0.139491   0.016909
    18  H   -0.024213   0.162353
    19  H    0.024330   0.109238
    20  H   -0.014680   0.187549
    21  H    0.045823   0.186026
    22  H   -0.375822   0.499384
    23  H    0.062715   0.091229
    24  H   -0.140925   0.268975
    25  H    0.136772   0.005486
    26  H   -0.266318   0.522334
    27  H   -0.135973   0.369420
    28  H   -0.044855   0.257788
    29  H    0.076271   0.129646
    30  H   -0.056960   0.316855
 Sum of Mulliken charges =  -1.00000   1.00000

 Dipole moment (field-independent basis, Debye):
    X=              0.6551    Y=             -1.3423    Z=             -1.8769  Tot=              2.3986
 Quadrupole moment (field-independent basis, Debye-Ang):
   XX=           -159.1787   YY=           -132.5573   ZZ=           -116.7517
   XY=             13.2838   XZ=            -11.4346   YZ=             -0.7996

 Summary of Natural Population Analysis:

                                       Natural Population
                Natural  -----------------------------------------------
    Atom  No    Charge         Core      Valence    Rydberg      Total
 -----------------------------------------------------------------------
      C    1   -0.19838      0.99959     2.18744    0.01135     3.19838
      C    2   -0.19629      0.99958     2.18745    0.00925     3.19629
      C    3   -0.06655      0.99954     2.05424    0.01276     3.06655
      C    4   -0.07920      0.99955     2.06803    0.01162     3.07920
      N    5   -0.31335      0.99968     2.80248    0.01119     3.81335
      C    6    0.09713      0.99949     1.89171    0.01166     2.90287
      C    7   -0.14642      0.99952     2.13667    0.01022     3.14642
      C    8   -0.08355      0.99957     2.07497    0.00901     3.08355
      C    9   -0.14958      0.99952     2.13970    0.01037     3.14958
      C   10    0.09568      0.99950     1.89328    0.01154     2.90432
      C   11   -0.15615      0.99947     2.14839    0.00828     3.15615
      N   12   -0.39564      0.99972     2.88550    0.01042     3.89564
      C   13   -0.00444      0.99952     1.99249    0.01243     3.00444
      O   14   -0.36955      0.99990     3.36340    0.00625     4.36955
      H   15    0.10375      0.00000     0.39422    0.00203     0.39625
      H   16    0.10282      0.00000     0.39535    0.00184     0.39718
      H   17    0.11040      0.00000     0.38849    0.00111     0.38960
      H   18    0.09875      0.00000     0.40037    0.00088     0.40125
      H   19    0.09724      0.00000     0.40142    0.00134     0.40276
      H   20    0.09776      0.00000     0.40103    0.00121     0.40224
      H   21    0.18327      0.00000     0.31338    0.00334     0.31673
      H   22    0.09872      0.00000     0.39972    0.00155     0.40128
      H   23    0.09752      0.00000     0.40169    0.00079     0.40248
      H   24    0.09900      0.00000     0.40004    0.00096     0.40100
      H   25    0.09872      0.00000     0.39967    0.00161     0.40128
      H   26    0.18679      0.00000     0.30936    0.00385     0.31321
      H   27    0.18597      0.00000     0.31102    0.00301     0.31403
      H   28    0.08607      0.00000     0.41243    0.00149     0.41393
      H   29    0.08938      0.00000     0.40880    0.00182     0.41062
      H   30    0.23011      0.00000     0.26599    0.00390     0.26989
 =======================================================================
   * Total *    0.00000     13.99416    37.82875    0.17709    52.00000

 Normal termination of Gaussian 16 at Thu Dec 10 10:41:07 2020.
