 Gaussian 16, Revision A.03,

 -----------------------------------------------------------
 # opt freq B3LYP/6-31G(d) empiricaldispersion=gd3bj scf=xqc
 -----------------------------------------------------------

 -------------------------------
 CID_104867005_JID_3970_neutraal
 -------------------------------
 Symbolic Z-matrix:
 Charge =  0 Multiplicity = 1

 SCF Done:  E(RB3LYP) =  -953.939490350     A.U. after   14 cycles
 SCF Done:  E(RB3LYP) =  -953.943734605     A.U. after   12 cycles
 SCF Done:  E(RB3LYP) =  -953.942943914     A.U. after   13 cycles
 SCF Done:  E(RB3LYP) =  -953.944720475     A.U. after   11 cycles
 SCF Done:  E(RB3LYP) =  -953.945301426     A.U. after   12 cycles
 SCF Done:  E(RB3LYP) =  -953.945880962     A.U. after   12 cycles
 SCF Done:  E(RB3LYP) =  -953.945744068     A.U. after   11 cycles
 SCF Done:  E(RB3LYP) =  -953.946203168     A.U. after   11 cycles
 SCF Done:  E(RB3LYP) =  -953.946392057     A.U. after   11 cycles
 SCF Done:  E(RB3LYP) =  -953.946489430     A.U. after   11 cycles
 SCF Done:  E(RB3LYP) =  -953.949371422     A.U. after   10 cycles
 SCF Done:  E(RB3LYP) =  -953.949373347     A.U. after    8 cycles
 SCF Done:  E(RB3LYP) =  -953.949374427     A.U. after    8 cycles
 SCF Done:  E(RB3LYP) =  -953.949375188     A.U. after    8 cycles
 SCF Done:  E(RB3LYP) =  -953.949375315     A.U. after    7 cycles
 Optimization completed.
    -- Stationary point found.
 Normal termination of Gaussian 16 at Mon Dec 14 13:35:23 2020.

 --------------------------------------------------------------------
 #N Geom=AllCheck Guess=TCheck SCRF=Check GenChk RB3LYP/6-31G(d) Freq
 --------------------------------------------------------------------

 Structure from the checkpoint file:  "JID_3970.chk"
 -------------------------------
 CID_104867005_JID_3970_neutraal
 -------------------------------
 Charge =  0 Multiplicity = 1

 SCF Done:  E(RB3LYP) =  -953.949375315     A.U. after    1 cycles

  Exact polarizability: 149.988   1.133 128.215  -0.942   1.781 100.083
 Approx polarizability: 197.455   6.441 190.012  -3.790   1.293 151.314

                      1                      2                      3
                      A                      A                      A
 Frequencies --     25.2360                38.1748                48.6215
 Red. masses --      4.3192                 3.1824                 5.3533
 Frc consts  --      0.0016                 0.0027                 0.0075
 IR Inten    --      0.5548                 0.9082                 2.7304

                      4                      5                      6
                      A                      A                      A
 Frequencies --     71.1419               110.2152               128.2842
 Red. masses --      4.2474                 3.2020                 3.6747
 Frc consts  --      0.0127                 0.0229                 0.0356
 IR Inten    --      0.4907                 1.9720                 6.4788

                      7                      8                      9
                      A                      A                      A
 Frequencies --    161.4571               206.8161               230.0342
 Red. masses --      3.4439                 1.8254                 1.7718
 Frc consts  --      0.0529                 0.0460                 0.0552
 IR Inten    --      9.5971                 1.0712                 4.5253

                     10                     11                     12
                      A                      A                      A
 Frequencies --    242.7217               244.2186               249.2621
 Red. masses --      2.8690                 1.2041                 1.8949
 Frc consts  --      0.0996                 0.0423                 0.0694
 IR Inten    --      2.1473                 0.2976                 2.7933

                     13                     14                     15
                      A                      A                      A
 Frequencies --    263.4136               288.6885               299.9846
 Red. masses --      2.4038                 1.8961                 1.2070
 Frc consts  --      0.0983                 0.0931                 0.0640
 IR Inten    --     24.2857                 2.7041                 3.9323

                     16                     17                     18
                      A                      A                      A
 Frequencies --    313.2027               333.3776               356.5996
 Red. masses --      3.3443                 1.6052                 2.7501
 Frc consts  --      0.1933                 0.1051                 0.2060
 IR Inten    --      6.2931                64.3644                25.6187

                     19                     20                     21
                      A                      A                      A
 Frequencies --    365.1249               391.0553               434.5821
 Red. masses --      2.2768                 2.5374                 1.4366
 Frc consts  --      0.1788                 0.2286                 0.1599
 IR Inten    --      1.1720                 0.5422                70.2051

                     22                     23                     24
                      A                      A                      A
 Frequencies --    470.1291               526.6728               572.2770
 Red. masses --      2.6157                 2.4591                 3.4495
 Frc consts  --      0.3406                 0.4019                 0.6656
 IR Inten    --      2.1967                19.4132                11.2435

                     25                     26                     27
                      A                      A                      A
 Frequencies --    607.7817               618.2865               643.5516
 Red. masses --      3.3823                 2.6568                 2.4817
 Frc consts  --      0.7361                 0.5984                 0.6056
 IR Inten    --      3.7520                40.8406                49.4078

                     28                     29                     30
                      A                      A                      A
 Frequencies --    705.8166               720.3443               799.2684
 Red. masses --      2.3164                 5.5761                 2.6288
 Frc consts  --      0.6799                 1.7047                 0.9894
 IR Inten    --    134.0193                 5.6207                 3.6984

                     31                     32                     33
                      A                      A                      A
 Frequencies --    825.7182               853.1745               883.4430
 Red. masses --      1.8386                 1.9434                 1.7268
 Frc consts  --      0.7386                 0.8335                 0.7941
 IR Inten    --     39.3638                27.7229                 6.7515

                     34                     35                     36
                      A                      A                      A
 Frequencies --    943.2214               966.9253               987.6037
 Red. masses --      2.2703                 4.0669                 1.2098
 Frc consts  --      1.1900                 2.2403                 0.6952
 IR Inten    --     16.4933                91.8497                 3.0005

                     37                     38                     39
                      A                      A                      A
 Frequencies --    993.2593               997.2613              1018.3180
 Red. masses --      1.6733                 1.2773                 1.6145
 Frc consts  --      0.9726                 0.7485                 0.9864
 IR Inten    --      5.7117                20.4305                 3.7111

                     40                     41                     42
                      A                      A                      A
 Frequencies --   1033.1812              1080.4139              1105.9335
 Red. masses --      1.5723                 1.6070                 1.8691
 Frc consts  --      0.9889                 1.1052                 1.3469
 IR Inten    --      9.4048                14.7843                10.1466

                     43                     44                     45
                      A                      A                      A
 Frequencies --   1122.0783              1158.5609              1167.8295
 Red. masses --      2.2585                 2.1667                 1.6543
 Frc consts  --      1.6754                 1.7135                 1.3293
 IR Inten    --     20.9585                 6.2767                36.9368

                     46                     47                     48
                      A                      A                      A
 Frequencies --   1179.0463              1187.9153              1262.2693
 Red. masses --      2.0712                 2.5740                 1.2286
 Frc consts  --      1.6964                 2.1401                 1.1533
 IR Inten    --      0.5741                47.9089                15.9582

                     49                     50                     51
                      A                      A                      A
 Frequencies --   1282.6466              1330.0205              1339.2829
 Red. masses --      1.1653                 1.2467                 1.3339
 Frc consts  --      1.1296                 1.2994                 1.4097
 IR Inten    --      4.6495                48.1179                21.9664

                     52                     53                     54
                      A                      A                      A
 Frequencies --   1353.7473              1368.9008              1375.4418
 Red. masses --      1.3172                 1.2045                 1.3252
 Frc consts  --      1.4223                 1.3299                 1.4772
 IR Inten    --      3.1248                 9.0864                12.6505

                     55                     56                     57
                      A                      A                      A
 Frequencies --   1380.8347              1410.3831              1424.3820
 Red. masses --      1.5642                 1.3407                 1.2705
 Frc consts  --      1.7572                 1.5713                 1.5187
 IR Inten    --     56.6797                 1.9999                21.3506

                     58                     59                     60
                      A                      A                      A
 Frequencies --   1434.0397              1440.3483              1443.4380
 Red. masses --      1.3099                 1.3812                 1.9555
 Frc consts  --      1.5871                 1.6882                 2.4006
 IR Inten    --      1.5882                 9.8988                 1.9855

                     61                     62                     63
                      A                      A                      A
 Frequencies --   1498.6557              1499.8283              1518.9175
 Red. masses --      1.0646                 1.1014                 1.0934
 Frc consts  --      1.4087                 1.4597                 1.4862
 IR Inten    --      2.8401                13.3540                10.4538

                     64                     65                     66
                      A                      A                      A
 Frequencies --   1522.3747              1531.3604              1535.5041
 Red. masses --      1.0510                 1.1220                 1.0850
 Frc consts  --      1.4351                 1.5503                 1.5072
 IR Inten    --      1.2630                18.0925                 5.4644

                     67                     68                     69
                      A                      A                      A
 Frequencies --   1537.3723              1544.8960              1557.1729
 Red. masses --      1.0444                 1.0588                 1.0780
 Frc consts  --      1.4544                 1.4889                 1.5401
 IR Inten    --      6.9613                22.2484                10.8238

                     70                     71                     72
                      A                      A                      A
 Frequencies --   1647.3283              1737.3968              2936.9232
 Red. masses --      1.1953                 6.5864                 1.0753
 Frc consts  --      1.9111                11.7138                 5.4645
 IR Inten    --     57.5937                86.6690                73.4450

                     73                     74                     75
                      A                      A                      A
 Frequencies --   2976.5687              3026.3118              3050.8464
 Red. masses --      1.0815                 1.0645                 1.0420
 Frc consts  --      5.6457                 5.7440                 5.7142
 IR Inten    --     28.6609                34.2512                18.2499

                     76                     77                     78
                      A                      A                      A
 Frequencies --   3054.0564              3058.7040              3061.2465
 Red. masses --      1.0319                 1.0802                 1.0496
 Frc consts  --      5.6705                 5.9544                 5.7952
 IR Inten    --     31.7876                26.2997                10.6841

                     79                     80                     81
                      A                      A                      A
 Frequencies --   3065.6670              3083.3415              3117.9815
 Red. masses --      1.0814                 1.0889                 1.0969
 Frc consts  --      5.9880                 6.0991                 6.2831
 IR Inten    --      2.8925                59.3444                23.5699

                     82                     83                     84
                      A                      A                      A
 Frequencies --   3128.0175              3139.0326              3142.4580
 Red. masses --      1.1019                 1.1038                 1.1028
 Frc consts  --      6.3523                 6.4083                 6.4165
 IR Inten    --     29.7584                24.6913                13.4353

                     85                     86                     87
                      A                      A                      A
 Frequencies --   3149.6717              3166.5510              3496.1684
 Red. masses --      1.1081                 1.1003                 1.0742
 Frc consts  --      6.4769                 6.5005                 7.7358
 IR Inten    --      0.4617                 9.3518                 2.0337

                     88                     89                     90
                      A                      A                      A
 Frequencies --   3550.5045              3661.7976              3776.5996
 Red. masses --      1.0462                 1.0998                 1.0678
 Frc consts  --      7.7704                 8.6886                 8.9735
 IR Inten    --     22.9062                42.7261                61.7170

 - Thermochemistry -
 -------------------
 Temperature   298.150 Kelvin.  Pressure   1.00000 Atm.
 Atom     1 has atomic number  6 and mass  12.00000

 Molecular mass:   205.12488 amu.
 Principal axes and moments of inertia in atomic units:
                           1         2         3
     Eigenvalues --  1464.336445258.578615883.80627
           X            0.99995  -0.00994   0.00322
           Y            0.00987   0.99974   0.02045
           Z           -0.00342  -0.02042   0.99979
 This molecule is an asymmetric top.
 Rotational symmetry number  1.
 Warning -- assumption of classical behavior for rotation
           may cause significant error
 Rotational temperatures (Kelvin)      0.05915     0.01647     0.01472
 Rotational constants (GHZ):           1.23246     0.34320     0.30673
 Zero-point vibrational energy     739227.7 (Joules/Mol)
                                  176.67965 (Kcal/Mol)
 Warning -- explicit consideration of  26 degrees of freedom as
           vibrations may cause significant error
 Vibrational temperatures:     36.31    54.92    69.96   102.36   158.58
          (Kelvin)            184.57   232.30   297.56   330.97   349.22
                              351.38   358.63   378.99   415.36   431.61
                              450.63   479.66   513.07   525.33   562.64
                              625.27   676.41   757.76   823.38   874.46
                              889.58   925.93  1015.51  1036.41  1149.97
                             1188.02  1227.53  1271.08  1357.09  1391.19
                             1420.94  1429.08  1434.84  1465.13  1486.52
                             1554.47  1591.19  1614.42  1666.91  1680.25
                             1696.38  1709.15  1816.12  1845.44  1913.60
                             1926.93  1947.74  1969.54  1978.95  1986.71
                             2029.23  2049.37  2063.26  2072.34  2076.79
                             2156.23  2157.92  2185.38  2190.36  2203.29
                             2209.25  2211.94  2222.76  2240.42  2370.14
                             2499.73  4225.58  4282.62  4354.19  4389.49
                             4394.11  4400.79  4404.45  4410.81  4436.24
                             4486.08  4500.52  4516.37  4521.30  4531.68
                             4555.96  5030.21  5108.38  5268.51  5433.68

 Zero-point correction=                           0.281557 (Hartree/Particle)
 Thermal correction to Energy=                    0.297863
 Thermal correction to Enthalpy=                  0.298807
 Thermal correction to Gibbs Free Energy=         0.237247
 Sum of electronic and zero-point Energies=           -953.667818
 Sum of electronic and thermal Energies=              -953.651513
 Sum of electronic and thermal Enthalpies=            -953.650569
 Sum of electronic and thermal Free Energies=         -953.712129

                     E (Thermal)             CV                S
                      KCal/Mol        Cal/Mol-Kelvin    Cal/Mol-Kelvin
 Total                  186.912             60.097            129.564
 Electronic               0.000              0.000              0.000
 Translational            0.889              2.981             41.860
 Rotational               0.889              2.981             32.183
 Vibrational            185.134             54.135             55.522
 Vibration     1          0.593              1.985              6.173
 Vibration     2          0.594              1.982              5.352
 Vibration     3          0.595              1.978              4.873
 Vibration     4          0.598              1.968              4.122
 Vibration     5          0.606              1.941              3.265
 Vibration     6          0.611              1.925              2.972
 Vibration     7          0.622              1.890              2.533
 Vibration     8          0.641              1.830              2.072
 Vibration     9          0.652              1.795              1.879
 Vibration    10          0.659              1.775              1.783
 Vibration    11          0.660              1.772              1.772
 Vibration    12          0.662              1.764              1.736
 Vibration    13          0.670              1.740              1.639
 Vibration    14          0.685              1.695              1.482
 Vibration    15          0.693              1.674              1.417
 Vibration    16          0.701              1.648              1.345
 Vibration    17          0.715              1.609              1.244
 Vibration    18          0.732              1.562              1.137
 Vibration    19          0.738              1.544              1.100
 Vibration    20          0.759              1.489              0.996
 Vibration    21          0.795              1.395              0.844
 Vibration    22          0.827              1.316              0.737
 Vibration    23          0.882              1.191              0.595
 Vibration    24          0.928              1.091              0.500
 Vibration    25          0.967              1.015              0.436
 Vibration    26          0.978              0.993              0.419

 Optimization completed.
    -- Stationary point found.
 Normal termination of Gaussian 16 at Mon Dec 14 13:44:27 2020.

 ----------------------------------------------------------------------
 # B3LYP/6-311++G(d,p) empiricaldispersion=gd3bj scf=xqc pop=npa geom=c
 heck
 ----------------------------------------------------------------------

 ---------------------------------------
 CID_104867005_JID_3970_Energie_neutraal
 ---------------------------------------
 Structure from the checkpoint file:  "JID_3970.chk"
 Charge =  0 Multiplicity = 1

 SCF Done:  E(RB3LYP) =  -954.155241443     A.U. after   14 cycles
 Normal termination of Gaussian 16 at Mon Dec 14 13:48:10 2020.

 ----------------------------------------------------------------------
 # B3LYP/6-311++G(d,p) empiricaldispersion=gd3bj scf=xqc pop=npa geom=c
 heck
 ----------------------------------------------------------------------

 -------------------------------------
 CID_104867005_JID_3970_Energie_kation
 -------------------------------------
 Structure from the checkpoint file:  "JID_3970.chk"
 Charge =  1 Multiplicity = 2

 SCF Done:  E(UB3LYP) =  -953.875045095     A.U. after   26 cycles
 Normal termination of Gaussian 16 at Mon Dec 14 13:57:00 2020.
 Gaussian 16:  ES64L-G16RevA.03 25-Dec-2016

 ----------------------------------------------------------------------
 # B3LYP/6-311++G(d,p) empiricaldispersion=gd3bj scf=xqc pop=npa geom=c
 heck
 ----------------------------------------------------------------------

 ------------------------------------
 CID_104867005_JID_3970_Energie_anion
 ------------------------------------
 Structure from the checkpoint file:  "JID_3970.chk"
 Charge = -1 Multiplicity = 2

                         Standard orientation:
 ---------------------------------------------------------------------
 Center     Atomic      Atomic             Coordinates (Angstroms)
 Number     Number       Type             X           Y           Z
 ---------------------------------------------------------------------
      1          6           0        3.269685   -1.070893    0.973139
      2          6           0        2.934956   -0.531621   -0.417018
      3          6           0        1.856291   -1.354479   -1.148376
      4          6           0        0.517337   -1.594606   -0.447709
      5          7           0       -0.280329   -0.377345   -0.325907
      6          6           0       -1.686138   -0.618835    0.013165
      7          6           0       -1.827277   -1.094308    1.468155
      8          6           0       -2.489179    0.654849   -0.188529
      9          7           0       -3.773359    0.720053   -0.247654
     10          8           0       -4.349804   -0.586333   -0.175427
     11          7           0       -1.770552    1.827335   -0.370254
     12         16           0        2.657577    1.304740   -0.430200
     13          6           0        1.785360    1.625193    1.140941
     14          1           0        2.426474   -0.973826    1.662876
     15          1           0        4.123634   -0.539302    1.403376
     16          1           0        3.524330   -2.136080    0.908961
     17          1           0        3.839542   -0.608839   -1.031718
     18          1           0        1.671416   -0.900751   -2.130618
     19          1           0        2.293947   -2.343671   -1.346392
     20          1           0       -0.024438   -2.374780   -1.016050
     21          1           0        0.689429   -2.011488    0.550911
     22          1           0       -0.232044    0.135094   -1.204842
     23          1           0       -2.139046   -1.386558   -0.637120
     24          1           0       -1.386425   -0.358491    2.149596
     25          1           0       -2.883021   -1.225202    1.712148
     26          1           0       -1.317369   -2.050919    1.618117
     27          1           0       -5.291275   -0.378778   -0.264911
     28          1           0       -0.901831    1.875534    0.147260
     29          1           0       -2.337357    2.665356   -0.314073
     30          1           0        0.886977    1.005590    1.197132
     31          1           0        2.429511    1.456177    2.007648
     32          1           0        1.508206    2.683653    1.118410
 ---------------------------------------------------------------------

 SCF Done:  E(UB3LYP) =  -954.142006142     A.U. after   33 cycles
 SCF Done:  E(UB3LYP) =  -954.142006142     a.u. after    1 cycles

 The electronic state is 2-A.
 Alpha  occ. eigenvalues --  -88.72912 -19.06473 -14.24562 -14.23137 -14.20460
 Alpha  occ. eigenvalues --  -10.14731 -10.11747 -10.10428 -10.09591 -10.08116
 Alpha  occ. eigenvalues --  -10.07437 -10.06477 -10.06143  -7.81517  -5.77922
 Alpha  occ. eigenvalues --   -5.77545  -5.76882  -0.97794  -0.85428  -0.81110
 Alpha  occ. eigenvalues --   -0.73198  -0.71991  -0.66864  -0.64461  -0.61055
 Alpha  occ. eigenvalues --   -0.56655  -0.54290  -0.50972  -0.48077  -0.45671
 Alpha  occ. eigenvalues --   -0.43973  -0.41192  -0.38560  -0.38111  -0.36357
 Alpha  occ. eigenvalues --   -0.36099  -0.35807  -0.34276  -0.32352  -0.31753
 Alpha  occ. eigenvalues --   -0.30726  -0.30650  -0.29881  -0.28731  -0.27862
 Alpha  occ. eigenvalues --   -0.27158  -0.26633  -0.25517  -0.24280  -0.23492
 Alpha  occ. eigenvalues --   -0.22779  -0.19611  -0.18584  -0.14159  -0.12899
 Alpha  occ. eigenvalues --   -0.11750   0.04370
 Alpha virt. eigenvalues --    0.06325   0.06424   0.07449   0.08065   0.09048
 Alpha virt. eigenvalues --    0.09486   0.09779   0.10253   0.11109   0.11203
 Alpha virt. eigenvalues --    0.11830   0.12117   0.13102   0.13401   0.13643

  Beta  occ. eigenvalues --  -88.72907 -19.06464 -14.24551 -14.23116 -14.20448
  Beta  occ. eigenvalues --  -10.14731 -10.11737 -10.10424 -10.09568 -10.08073
  Beta  occ. eigenvalues --  -10.07418 -10.06453 -10.06093  -7.81512  -5.77910
  Beta  occ. eigenvalues --   -5.77539  -5.76879  -0.97779  -0.85403  -0.81087
  Beta  occ. eigenvalues --   -0.73165  -0.71953  -0.66829  -0.64416  -0.60999
  Beta  occ. eigenvalues --   -0.56589  -0.54231  -0.50912  -0.48035  -0.45635
  Beta  occ. eigenvalues --   -0.43935  -0.41164  -0.38521  -0.38081  -0.36319
  Beta  occ. eigenvalues --   -0.36065  -0.35783  -0.34240  -0.32321  -0.31717
  Beta  occ. eigenvalues --   -0.30675  -0.30606  -0.29843  -0.28692  -0.27827
  Beta  occ. eigenvalues --   -0.27118  -0.26601  -0.25467  -0.24252  -0.23470
  Beta  occ. eigenvalues --   -0.22729  -0.19577  -0.18548  -0.14115  -0.12879
  Beta  occ. eigenvalues --   -0.11730
  Beta virt. eigenvalues --    0.06398   0.06940   0.07318   0.07999   0.08581
  Beta virt. eigenvalues --    0.09623   0.09778   0.10258   0.10541   0.11318
  Beta virt. eigenvalues --    0.11438   0.12229   0.12453   0.13243   0.13718

 Mulliken charges and spin densities:
               1          2
     1  C    1.580901  -2.299668
     2  C   -1.420912   1.963916
     3  C    2.081678  -2.774684
     4  C   -0.834550   0.424446
     5  N    0.075967  -0.054805
     6  C   -0.395148  -0.143258
     7  C    0.499830  -1.013923
     8  C   -0.649780   0.867437
     9  N   -0.311790   0.018061
    10  O   -0.133975  -0.007735
    11  N   -0.319280  -0.057628
    12  S   -0.177556   0.126605
    13  C   -0.012340  -0.625613
    14  H   -0.219080   0.361057
    15  H   -0.170739   0.338462
    16  H   -0.448125   0.601886
    17  H    0.006627   0.266013
    18  H    0.092740   0.043223
    19  H   -0.425549   0.594492
    20  H   -0.120725   0.257012
    21  H    0.051418   0.099809
    22  H    0.236246   0.000816
    23  H   -0.008947   0.212904
    24  H   -0.242789   0.400274
    25  H    0.086974   0.076840
    26  H   -0.229521   0.370278
    27  H    0.166117   0.108189
    28  H    0.325052  -0.052937
    29  H   -0.078047   0.358198
    30  H    0.489027  -0.298274
    31  H   -0.152358   0.340145
    32  H   -0.341365   0.498460
 Sum of Mulliken charges =  -1.00000   1.00000

 Dipole moment (field-independent basis, Debye):
    X=             -4.0717    Y=              1.5684    Z=             -2.2487  Tot=              4.9087
 Quadrupole moment (field-independent basis, Debye-Ang):
   XX=           -155.9276   YY=           -141.6284   ZZ=           -124.4422
   XY=              8.2022   XZ=             -5.1216   YZ=              0.4404

 Summary of Natural Population Analysis:

                                       Natural Population
                Natural  -----------------------------------------------
    Atom  No    Charge         Core      Valence    Rydberg      Total
 -----------------------------------------------------------------------
      C    1   -0.29348      0.99963     2.28679    0.00706     3.29348
      C    2   -0.16353      0.99956     2.14967    0.01430     3.16353
      C    3   -0.19464      0.99959     2.18410    0.01096     3.19464
      C    4   -0.08636      0.99961     2.07521    0.01153     3.08636
      N    5   -0.35176      0.99973     2.83980    0.01223     3.85176
      C    6   -0.03429      0.99956     2.02284    0.01189     3.03429
      C    7   -0.28704      0.99964     2.28106    0.00634     3.28704
      C    8    0.20587      0.99960     1.77465    0.01988     2.79413
      N    9   -0.13862      0.99959     2.62515    0.01389     3.63862
      O   10   -0.29578      0.99990     3.28990    0.00599     4.29578
      N   11   -0.39898      0.99970     2.89031    0.00896     3.89898
      S   12    0.07780      4.99962     2.90563    0.01695     7.92220
      C   13   -0.35972      0.99962     2.35244    0.00766     3.35972
      H   14    0.10153      0.00000     0.39691    0.00156     0.39847
      H   15    0.10445      0.00000     0.39433    0.00122     0.39555
      H   16    0.10557      0.00000     0.39227    0.00216     0.39443
      H   17    0.10282      0.00000     0.39587    0.00131     0.39718
      H   18    0.09718      0.00000     0.40131    0.00151     0.40282
      H   19    0.10476      0.00000     0.39353    0.00171     0.39524
      H   20    0.08276      0.00000     0.41572    0.00152     0.41724
      H   21    0.09461      0.00000     0.40323    0.00216     0.40539
      H   22    0.18054      0.00000     0.31613    0.00333     0.31946
      H   23    0.09893      0.00000     0.39886    0.00221     0.40107
      H   24    0.09949      0.00000     0.39875    0.00176     0.40051
      H   25    0.10965      0.00000     0.38904    0.00131     0.39035
      H   26    0.10150      0.00000     0.39753    0.00097     0.39850
      H   27    0.23146      0.00000     0.26514    0.00339     0.26854
      H   28    0.19727      0.00000     0.29983    0.00289     0.30273
      H   29    0.19009      0.00000     0.30722    0.00268     0.30991
      H   30    0.11088      0.00000     0.38655    0.00257     0.38912
      H   31    0.10158      0.00000     0.39672    0.00171     0.39842
      H   32    0.10544      0.00000     0.39300    0.00156     0.39456
 =======================================================================
   * Total *    0.00000     16.99534    38.81950    0.18517    56.00000

 Normal termination of Gaussian 16 at Mon Dec 14 14:08:16 2020.
