 Gaussian 16, Revision A.03,

 -----------------------------------------------------------
 # opt freq B3LYP/6-31G(d) empiricaldispersion=gd3bj scf=xqc
 -----------------------------------------------------------

 -------------------------------
 CID_152802865_JID_6543_neutraal
 -------------------------------
 Symbolic Z-matrix:
 Charge =  0 Multiplicity = 1

 SCF Done:  E(RB3LYP) =  -713.207219361     A.U. after   14 cycles
 SCF Done:  E(RB3LYP) =  -713.211729816     A.U. after   13 cycles
 SCF Done:  E(RB3LYP) =  -713.210314363     A.U. after   14 cycles
 SCF Done:  E(RB3LYP) =  -713.213121147     A.U. after   12 cycles
 SCF Done:  E(RB3LYP) =  -713.213744709     A.U. after   13 cycles
 SCF Done:  E(RB3LYP) =  -713.214149731     A.U. after   12 cycles
 SCF Done:  E(RB3LYP) =  -713.214349772     A.U. after   12 cycles
 SCF Done:  E(RB3LYP) =  -713.214391225     A.U. after   11 cycles
 SCF Done:  E(RB3LYP) =  -713.214409802     A.U. after   10 cycles
 SCF Done:  E(RB3LYP) =  -713.214416723     A.U. after   10 cycles
 SCF Done:  E(RB3LYP) =  -713.214419068     A.U. after    8 cycles
 SCF Done:  E(RB3LYP) =  -713.214419255     A.U. after    8 cycles
 SCF Done:  E(RB3LYP) =  -713.214419424     A.U. after    8 cycles
 SCF Done:  E(RB3LYP) =  -713.214419526     A.U. after    8 cycles
 SCF Done:  E(RB3LYP) =  -713.214419567     A.U. after    7 cycles
 Optimization completed.
    -- Stationary point found.
 Normal termination of Gaussian 16 at Thu Dec 10 22:44:00 2020.

 --------------------------------------------------------------------
 #N Geom=AllCheck Guess=TCheck SCRF=Check GenChk RB3LYP/6-31G(d) Freq
 --------------------------------------------------------------------

 Structure from the checkpoint file:  "JID_6543.chk"
 -------------------------------
 CID_152802865_JID_6543_neutraal
 -------------------------------
 Charge =  0 Multiplicity = 1

 SCF Done:  E(RB3LYP) =  -713.214419567     A.U. after    1 cycles

  Exact polarizability: 172.970  10.695 139.962  -6.495  -0.790 120.962
 Approx polarizability: 220.377  21.006 202.792  -9.130   5.119 192.348

                      1                      2                      3
                      A                      A                      A
 Frequencies --     14.3128                29.5649                48.2647
 Red. masses --      3.8854                 4.1968                 4.8640
 Frc consts  --      0.0005                 0.0022                 0.0067
 IR Inten    --      0.3824                 0.4471                 2.0184

                      4                      5                      6
                      A                      A                      A
 Frequencies --     63.4432                68.5032                85.3352
 Red. masses --      2.5279                 3.7992                 2.8451
 Frc consts  --      0.0060                 0.0105                 0.0122
 IR Inten    --      0.1763                 0.5345                 0.2789

                      7                      8                      9
                      A                      A                      A
 Frequencies --    143.7027               152.7517               180.3648
 Red. masses --      4.4270                 3.5879                 2.2177
 Frc consts  --      0.0539                 0.0493                 0.0425
 IR Inten    --      3.7615                 0.2725                 1.7686

                     10                     11                     12
                      A                      A                      A
 Frequencies --    213.8389               216.0284               232.5554
 Red. masses --      2.5672                 1.8072                 1.8310
 Frc consts  --      0.0692                 0.0497                 0.0583
 IR Inten    --      0.7373                 1.0643                 0.2874

                     13                     14                     15
                      A                      A                      A
 Frequencies --    248.1754               318.4360               351.1459
 Red. masses --      2.7857                 2.7018                 2.5547
 Frc consts  --      0.1011                 0.1614                 0.1856
 IR Inten    --      0.3937                 3.9403                 4.2387

                     16                     17                     18
                      A                      A                      A
 Frequencies --    370.5368               394.7047               447.1874
 Red. masses --      2.5696                 2.7952                 2.0859
 Frc consts  --      0.2079                 0.2566                 0.2458
 IR Inten    --      4.0976                 1.9771                 0.1649

                     19                     20                     21
                      A                      A                      A
 Frequencies --    449.9928               475.7338               487.8467
 Red. masses --      3.2524                 3.3578                 3.3409
 Frc consts  --      0.3880                 0.4478                 0.4685
 IR Inten    --      0.4063                 4.2920                 1.0998

                     22                     23                     24
                      A                      A                      A
 Frequencies --    503.7988               531.7573               576.7927
 Red. masses --      3.1401                 3.2077                 2.7314
 Frc consts  --      0.4696                 0.5344                 0.5354
 IR Inten    --      3.0143                 0.0744                14.7914

                     25                     26                     27
                      A                      A                      A
 Frequencies --    634.6751               688.4402               764.7809
 Red. masses --      1.8064                 3.2527                 2.3183
 Frc consts  --      0.4287                 0.9083                 0.7989
 IR Inten    --     12.1832                 1.4336                 2.8453

                     28                     29                     30
                      A                      A                      A
 Frequencies --    804.5883               807.9637               821.4071
 Red. masses --      1.6756                 1.7405                 1.3407
 Frc consts  --      0.6391                 0.6694                 0.5329
 IR Inten    --      5.4041                 5.1863                 2.4424

                     31                     32                     33
                      A                      A                      A
 Frequencies --    842.2649               856.2765               862.5690
 Red. masses --      1.2788                 1.6518                 3.2621
 Frc consts  --      0.5345                 0.7136                 1.4300
 IR Inten    --      6.9963                 0.4736                17.3672

                     34                     35                     36
                      A                      A                      A
 Frequencies --    882.8854               895.9374               918.3573
 Red. masses --      2.2129                 2.5460                 1.6882
 Frc consts  --      1.0163                 1.2041                 0.8389
 IR Inten    --      9.4577                11.7235                 4.3969

                     37                     38                     39
                      A                      A                      A
 Frequencies --    944.0034               961.7162               994.9512
 Red. masses --      3.9904                 1.9529                 2.5250
 Frc consts  --      2.0951                 1.0642                 1.4727
 IR Inten    --      1.9546                36.6813                40.3177

                     40                     41                     42
                      A                      A                      A
 Frequencies --   1004.7540              1038.4557              1047.3206
 Red. masses --      2.0922                 2.3866                 2.2607
 Frc consts  --      1.2445                 1.5164                 1.4610
 IR Inten    --     12.4549                28.9582                40.4149

                     43                     44                     45
                      A                      A                      A
 Frequencies --   1053.9133              1068.1724              1078.3760
 Red. masses --      2.1899                 1.3545                 2.0890
 Frc consts  --      1.4331                 0.9106                 1.4313
 IR Inten    --      8.7646                 9.7804                 8.5440

                     46                     47                     48
                      A                      A                      A
 Frequencies --   1090.6174              1092.2963              1100.5681
 Red. masses --      1.4158                 1.7035                 1.8464
 Frc consts  --      0.9922                 1.1975                 1.3177
 IR Inten    --      0.6956                 2.6540                28.2757

                     49                     50                     51
                      A                      A                      A
 Frequencies --   1139.3534              1142.2109              1143.9176
 Red. masses --      1.2784                 1.8633                 5.6889
 Frc consts  --      0.9778                 1.4322                 4.3860
 IR Inten    --      2.8407                 6.5159                79.0185

                     52                     53                     54
                      A                      A                      A
 Frequencies --   1166.7178              1177.9905              1187.4700
 Red. masses --      2.2364                 2.5702                 2.3500
 Frc consts  --      1.7936                 2.1014                 1.9524
 IR Inten    --      0.6511                11.0673                11.2568

                     55                     56                     57
                      A                      A                      A
 Frequencies --   1211.0697              1218.7218              1243.6982
 Red. masses --      1.3828                 2.2184                 1.1573
 Frc consts  --      1.1950                 1.9414                 1.0547
 IR Inten    --      1.6594                22.2238                 3.2199

                     58                     59                     60
                      A                      A                      A
 Frequencies --   1252.2340              1280.2156              1295.2888
 Red. masses --      1.5962                 1.2312                 1.2117
 Frc consts  --      1.4747                 1.1889                 1.1977
 IR Inten    --     16.3295                 6.4588                 4.3927

                     61                     62                     63
                      A                      A                      A
 Frequencies --   1320.5511              1331.6886              1347.4974
 Red. masses --      1.3380                 1.2345                 1.4743
 Frc consts  --      1.3747                 1.2899                 1.5772
 IR Inten    --     45.4104                 5.4161                 3.9524

                     64                     65                     66
                      A                      A                      A
 Frequencies --   1362.6663              1375.9086              1381.2219
 Red. masses --      1.4512                 1.2864                 1.4358
 Frc consts  --      1.5876                 1.4349                 1.6139
 IR Inten    --      9.9710                 0.4421                 1.8761

                     67                     68                     69
                      A                      A                      A
 Frequencies --   1401.3575              1406.0019              1414.6262
 Red. masses --      1.4023                 1.3031                 1.8622
 Frc consts  --      1.6225                 1.5177                 2.1956
 IR Inten    --     23.0282                38.9101                 4.0345

                     70                     71                     72
                      A                      A                      A
 Frequencies --   1419.8987              1436.7162              1442.3114
 Red. masses --      1.3886                 1.2334                 1.3244
 Frc consts  --      1.6494                 1.5000                 1.6233
 IR Inten    --      3.3078                 2.9803                 3.9357

                     73                     74                     75
                      A                      A                      A
 Frequencies --   1493.0494              1495.6797              1506.5205
 Red. masses --      1.0884                 1.0848                 1.0998
 Frc consts  --      1.4295                 1.4299                 1.4707
 IR Inten    --      1.9517                 3.4301                 6.9438

                     76                     77                     78
                      A                      A                      A
 Frequencies --   1509.8768              1517.9587              1527.3822
 Red. masses --      1.0792                 1.0834                 1.0511
 Frc consts  --      1.4496                 1.4708                 1.4448
 IR Inten    --      6.4298                 0.8175                 6.6419

                     79                     80                     81
                      A                      A                      A
 Frequencies --   1529.2949              1532.6226              1535.5454
 Red. masses --      1.0977                 1.3305                 1.0634
 Frc consts  --      1.5126                 1.8413                 1.4773
 IR Inten    --      1.3558                 1.8028                 9.1423

                     82                     83                     84
                      A                      A                      A
 Frequencies --   1540.8762              1696.1666              1773.5177
 Red. masses --      1.0857                 7.6434                10.5855
 Frc consts  --      1.5188                12.9560                19.6170
 IR Inten    --      7.3100                59.5310                97.1411

                     85                     86                     87
                      A                      A                      A
 Frequencies --   2990.9168              2996.3508              3029.7978
 Red. masses --      1.0703                 1.0706                 1.0689
 Frc consts  --      5.6409                 5.6633                 5.7812
 IR Inten    --     27.7863                53.5619                20.7801

                     88                     89                     90
                      A                      A                      A
 Frequencies --   3039.9198              3049.1398              3053.7545
 Red. masses --      1.0609                 1.0633                 1.0349
 Frc consts  --      5.7760                 5.8244                 5.6860
 IR Inten    --     43.9289                37.8582                19.6505

                     91                     92                     93
                      A                      A                      A
 Frequencies --   3075.4411              3090.5089              3099.6242
 Red. masses --      1.0605                 1.1034                 1.0926
 Frc consts  --      5.9099                 6.2095                 6.1851
 IR Inten    --     13.8092                42.8724                50.7976

                     94                     95                     96
                      A                      A                      A
 Frequencies --   3100.7922              3103.0748              3105.4067
 Red. masses --      1.0926                 1.0959                 1.0999
 Frc consts  --      6.1894                 6.2176                 6.2495
 IR Inten    --     23.8017                25.9697                50.3384

                     97                     98                     99
                      A                      A                      A
 Frequencies --   3113.6022              3128.1941              3132.1666
 Red. masses --      1.1022                 1.1023                 1.0891
 Frc consts  --      6.2954                 6.3555                 6.2952
 IR Inten    --      6.5513                33.2132                18.6072

                    100                    101                    102
                      A                      A                      A
 Frequencies --   3137.6090              3147.4445              3155.9565
 Red. masses --      1.1012                 1.0528                 1.0587
 Frc consts  --      6.3870                 6.1447                 6.2126
 IR Inten    --     28.1130                15.1314                 5.4152

                    103                    104                    105
                      A                      A                      A
 Frequencies --   3161.8374              3224.9675              3239.2038
 Red. masses --      1.0866                 1.1198                 1.1164
 Frc consts  --      6.4004                 6.8617                 6.9017
 IR Inten    --     17.5656                 1.4593                19.0015

 - Thermochemistry -
 -------------------
 Temperature   298.150 Kelvin.  Pressure   1.00000 Atm.
 Atom     1 has atomic number  6 and mass  12.00000

 Molecular mass:   223.15723 amu.
 Principal axes and moments of inertia in atomic units:
                           1         2         3
     Eigenvalues --  2065.405885856.399616759.38941
           X            0.99993   0.00668  -0.00998
           Y           -0.00703   0.99938  -0.03464
           Z            0.00974   0.03471   0.99935
 This molecule is an asymmetric top.
 Rotational symmetry number  1.
 Warning -- assumption of classical behavior for rotation
           may cause significant error
 Rotational temperatures (Kelvin)      0.04194     0.01479     0.01281
 Rotational constants (GHZ):           0.87379     0.30817     0.26700
 Zero-point vibrational energy     860076.7 (Joules/Mol)
                                  205.56327 (Kcal/Mol)
 Warning -- explicit consideration of  24 degrees of freedom as
           vibrations may cause significant error
 Vibrational temperatures:     20.59    42.54    69.44    91.28    98.56
          (Kelvin)            122.78   206.76   219.78   259.50   307.67
                              310.82   334.60   357.07   458.16   505.22
                              533.12   567.89   643.40   647.44   684.47
                              701.90   724.85   765.08   829.88   913.16
                              990.51  1100.35  1157.62  1162.48  1181.82
                             1211.83  1231.99  1241.04  1270.28  1289.05
                             1321.31  1358.21  1383.70  1431.51  1445.62
                             1494.11  1506.86  1516.35  1536.86  1551.54
                             1569.16  1571.57  1583.47  1639.28  1643.39
                             1645.84  1678.65  1694.87  1708.50  1742.46
                             1753.47  1789.40  1801.69  1841.94  1863.63
                             1899.98  1916.00  1938.75  1960.57  1979.63
                             1987.27  2016.24  2022.92  2035.33  2042.92
                             2067.11  2075.16  2148.17  2151.95  2167.55
                             2172.38  2184.00  2197.56  2200.31  2205.10
                             2209.31  2216.98  2440.41  2551.70  4303.26
                             4311.08  4359.20  4373.77  4387.03  4393.67
                             4424.87  4446.55  4459.67  4461.35  4464.63
                             4467.99  4479.78  4500.77  4506.49  4514.32
                             4528.47  4540.72  4549.18  4640.01  4660.49

 Zero-point correction=                           0.327586 (Hartree/Particle)
 Thermal correction to Energy=                    0.344050
 Thermal correction to Enthalpy=                  0.344995
 Thermal correction to Gibbs Free Energy=         0.281270
 Sum of electronic and zero-point Energies=           -712.886834
 Sum of electronic and thermal Energies=              -712.870369
 Sum of electronic and thermal Enthalpies=            -712.869425
 Sum of electronic and thermal Free Energies=         -712.933150

                     E (Thermal)             CV                S
                      KCal/Mol        Cal/Mol-Kelvin    Cal/Mol-Kelvin
 Total                  215.895             61.964            134.120
 Electronic               0.000              0.000              0.000
 Translational            0.889              2.981             42.111
 Rotational               0.889              2.981             32.769
 Vibrational            214.117             56.002             59.240
 Vibration     1          0.593              1.986              7.299
 Vibration     2          0.593              1.984              5.858
 Vibration     3          0.595              1.978              4.887
 Vibration     4          0.597              1.972              4.347
 Vibration     5          0.598              1.969              4.196
 Vibration     6          0.601              1.959              3.764
 Vibration     7          0.616              1.909              2.754
 Vibration     8          0.619              1.900              2.638
 Vibration     9          0.629              1.866              2.325
 Vibration    10          0.644              1.820              2.011
 Vibration    11          0.645              1.817              1.992
 Vibration    12          0.653              1.791              1.859
 Vibration    13          0.662              1.766              1.744
 Vibration    14          0.705              1.638              1.318
 Vibration    15          0.728              1.573              1.161
 Vibration    16          0.743              1.533              1.078
 Vibration    17          0.762              1.481              0.982
 Vibration    18          0.806              1.367              0.804
 Vibration    19          0.809              1.361              0.796
 Vibration    20          0.832              1.304              0.722
 Vibration    21          0.844              1.277              0.689
 Vibration    22          0.859              1.242              0.649
 Vibration    23          0.887              1.180              0.583
 Vibration    24          0.933              1.081              0.491

 Optimization completed.
    -- Stationary point found.
 Normal termination of Gaussian 16 at Thu Dec 10 22:56:48 2020.

 ----------------------------------------------------------------------
 # B3LYP/6-311++G(d,p) empiricaldispersion=gd3bj scf=xqc pop=npa geom=c
 heck
 ----------------------------------------------------------------------

 ---------------------------------------
 CID_152802865_JID_6543_Energie_neutraal
 ---------------------------------------
 Structure from the checkpoint file:  "JID_6543.chk"
 Charge =  0 Multiplicity = 1

 SCF Done:  E(RB3LYP) =  -713.414006342     A.U. after   15 cycles
 Normal termination of Gaussian 16 at Thu Dec 10 23:03:18 2020.

 ----------------------------------------------------------------------
 # B3LYP/6-311++G(d,p) empiricaldispersion=gd3bj scf=xqc pop=npa geom=c
 heck
 ----------------------------------------------------------------------

 -------------------------------------
 CID_152802865_JID_6543_Energie_kation
 -------------------------------------
 Structure from the checkpoint file:  "JID_6543.chk"
 Charge =  1 Multiplicity = 2

 SCF Done:  E(UB3LYP) =  -713.136739570     A.U. after   24 cycles
 Normal termination of Gaussian 16 at Thu Dec 10 23:15:49 2020.
 Gaussian 16:  ES64L-G16RevA.03 25-Dec-2016

 ----------------------------------------------------------------------
 # B3LYP/6-311++G(d,p) empiricaldispersion=gd3bj scf=xqc pop=npa geom=c
 heck
 ----------------------------------------------------------------------

 ------------------------------------
 CID_152802865_JID_6543_Energie_anion
 ------------------------------------
 Structure from the checkpoint file:  "JID_6543.chk"
 Charge = -1 Multiplicity = 2

                         Standard orientation:
 ---------------------------------------------------------------------
 Center     Atomic      Atomic             Coordinates (Angstroms)
 Number     Number       Type             X           Y           Z
 ---------------------------------------------------------------------
      1          6           0        1.526755    2.617152   -0.967630
      2          6           0        2.223684    2.121350    0.312429
      3          6           0        1.476304    0.931668    0.898879
      4          8           0        0.785061    1.069392    1.899225
      5          6           0        1.572095   -0.367995    0.154083
      6          6           0        0.536923   -1.225622    0.082643
      7          6           0       -0.828814   -1.097107    0.692261
      8          7           0       -1.845716   -1.239068   -0.360952
      9          6           0       -1.861357   -0.109476   -1.302362
     10          6           0       -2.504355    1.147468   -0.711755
     11          8           0       -3.823852    0.869618   -0.252056
     12          6           0       -3.821216   -0.161431    0.730614
     13          6           0       -3.199071   -1.443634    0.168565
     14          6           0        2.856031   -0.642601   -0.571630
     15          6           0        4.100312   -1.012288    0.209357
     16          6           0        3.417511   -2.037246   -0.661944
     17          1           0        1.506795    1.842019   -1.741661
     18          1           0        2.044725    3.490153   -1.377285
     19          1           0        0.491579    2.905586   -0.754749
     20          1           0        3.260690    1.847367    0.090598
     21          1           0        2.227432    2.908033    1.071553
     22          1           0        0.655066   -2.108420   -0.545084
     23          1           0       -0.970595   -1.935276    1.389536
     24          1           0       -0.905187   -0.182379    1.287448
     25          1           0       -2.439230   -0.417407   -2.183121
     26          1           0       -0.837182    0.099902   -1.628996
     27          1           0       -1.892658    1.545572    0.115184
     28          1           0       -2.601387    1.930763   -1.470457
     29          1           0       -4.867340   -0.322555    1.009900
     30          1           0       -3.274851    0.175198    1.627294
     31          1           0       -3.829769   -1.803083   -0.655141
     32          1           0       -3.169401   -2.226598    0.935761
     33          1           0        3.033614   -0.010894   -1.441496
     34          1           0        5.053936   -0.603647   -0.112579
     35          1           0        3.997756   -1.123327    1.285447
     36          1           0        2.876270   -2.837247   -0.166012
     37          1           0        3.901263   -2.333791   -1.587893
 ---------------------------------------------------------------------

 SCF Done:  E(UB3LYP) =  -713.414187684     A.U. after   33 cycles
 SCF Done:  E(UB3LYP) =  -713.414187684     a.u. after    1 cycles

 The electronic state is 2-A.
 Alpha  occ. eigenvalues --  -19.02114 -18.92074 -14.18754 -10.11352 -10.10405
 Alpha  occ. eigenvalues --  -10.08920 -10.07819 -10.06352 -10.06027 -10.05992
 Alpha  occ. eigenvalues --  -10.05813 -10.05687 -10.03468 -10.02699 -10.02174
 Alpha  occ. eigenvalues --  -10.01121  -0.93580  -0.86149  -0.80586  -0.74615
 Alpha  occ. eigenvalues --   -0.66539  -0.64965  -0.63453  -0.59238  -0.54707
 Alpha  occ. eigenvalues --   -0.54309  -0.50936  -0.49034  -0.48108  -0.44906
 Alpha  occ. eigenvalues --   -0.43014  -0.39473  -0.38755  -0.37228  -0.36387
 Alpha  occ. eigenvalues --   -0.35859  -0.35363  -0.34962  -0.33749  -0.32153
 Alpha  occ. eigenvalues --   -0.30231  -0.29089  -0.27960  -0.27613  -0.26336
 Alpha  occ. eigenvalues --   -0.26179  -0.25751  -0.25193  -0.24767  -0.23870
 Alpha  occ. eigenvalues --   -0.23170  -0.21690  -0.21056  -0.20659  -0.19901
 Alpha  occ. eigenvalues --   -0.18985  -0.17943  -0.17212  -0.11611  -0.09669
 Alpha  occ. eigenvalues --   -0.07464   0.05220
 Alpha virt. eigenvalues --    0.07478   0.07864   0.08565   0.09102   0.09858
 Alpha virt. eigenvalues --    0.10022   0.10375   0.11036   0.11739   0.11984
 Alpha virt. eigenvalues --    0.12669   0.12980   0.13207   0.13644   0.14410

  Beta  occ. eigenvalues --  -19.02111 -18.91565 -14.18718 -10.11351 -10.10403
  Beta  occ. eigenvalues --  -10.08911 -10.07819 -10.06022 -10.05997 -10.05990
  Beta  occ. eigenvalues --  -10.05804 -10.05712 -10.03393 -10.02729 -10.02154
  Beta  occ. eigenvalues --  -10.00717  -0.93572  -0.85212  -0.80523  -0.74574
  Beta  occ. eigenvalues --   -0.66509  -0.64521  -0.63218  -0.59104  -0.54658
  Beta  occ. eigenvalues --   -0.54164  -0.50680  -0.48995  -0.47939  -0.44770
  Beta  occ. eigenvalues --   -0.42465  -0.39432  -0.38643  -0.37218  -0.36248
  Beta  occ. eigenvalues --   -0.35821  -0.35279  -0.34713  -0.33685  -0.31985
  Beta  occ. eigenvalues --   -0.29953  -0.29050  -0.27768  -0.27238  -0.26137
  Beta  occ. eigenvalues --   -0.25899  -0.25707  -0.25156  -0.24517  -0.23696
  Beta  occ. eigenvalues --   -0.22902  -0.21550  -0.21010  -0.20456  -0.18971
  Beta  occ. eigenvalues --   -0.18226  -0.17675  -0.16992  -0.10076  -0.09487
  Beta  occ. eigenvalues --   -0.07018
  Beta virt. eigenvalues --    0.07471   0.07893   0.08704   0.09136   0.09836
  Beta virt. eigenvalues --    0.09973   0.10256   0.10731   0.11760   0.11911
  Beta virt. eigenvalues --    0.12336   0.12652   0.13047   0.13229   0.13632

 Mulliken charges and spin densities:
               1          2
     1  C    0.374809  -0.916955
     2  C   -0.542380   0.372280
     3  C   -0.584175  -0.062655
     4  O   -0.334551   0.170590
     5  C    1.048639   0.043677
     6  C   -0.227049   0.367551
     7  C   -0.967715  -0.007197
     8  N    0.201145  -0.004767
     9  C   -0.171252   0.010010
    10  C   -0.495827  -0.043345
    11  O   -0.123824   0.000165
    12  C   -0.311551  -0.005421
    13  C   -0.074938  -0.000629
    14  C    0.162653  -0.085908
    15  C   -0.574510  -0.026793
    16  C   -0.312706  -0.049351
    17  H    0.005773   0.097636
    18  H   -0.670437   0.824566
    19  H    0.161881  -0.036915
    20  H    0.076813   0.065688
    21  H   -0.009110   0.176519
    22  H    0.149095  -0.012452
    23  H    0.099648   0.017045
    24  H    0.260909  -0.000568
    25  H    0.167409  -0.004807
    26  H    0.157764  -0.029969
    27  H    0.238707  -0.010927
    28  H    0.085314   0.061179
    29  H    0.134846   0.023609
    30  H    0.140877  -0.002041
    31  H    0.135698  -0.003569
    32  H    0.093126   0.023653
    33  H    0.215048   0.022686
    34  H    0.104650   0.010926
    35  H    0.162645  -0.001357
    36  H    0.120018   0.007739
    37  H    0.102560   0.010109
 Sum of Mulliken charges =  -1.00000   1.00000

 Dipole moment (field-independent basis, Debye):
    X=             -3.2039    Y=             -5.1218    Z=             -1.3624  Tot=              6.1930
 Quadrupole moment (field-independent basis, Debye-Ang):
   XX=           -137.7268   YY=           -137.7258   ZZ=           -120.6561
   XY=             -7.1019   XZ=             -2.9176   YZ=              0.9734

 Summary of Natural Population Analysis:

                                       Natural Population
                Natural  -----------------------------------------------
    Atom  No    Charge         Core      Valence    Rydberg      Total
 -----------------------------------------------------------------------
      C    1   -0.27948      0.99966     2.27398    0.00584     3.27948
      C    2   -0.23448      0.99961     2.22506    0.00981     3.23448
      C    3    0.31603      0.99960     1.66100    0.02337     2.68397
      O    4   -0.26364      0.99988     3.25765    0.00611     4.26364
      C    5   -0.06927      0.99941     2.05692    0.01294     3.06927
      C    6    0.00315      0.99949     1.98814    0.00923     2.99685
      C    7   -0.11516      0.99958     2.10336    0.01222     3.11516
      N    8   -0.27552      0.99974     2.76083    0.01495     3.77552
      C    9   -0.10465      0.99962     2.09323    0.01181     3.10465
      C   10   -0.02705      0.99959     2.01436    0.01310     3.02705
      O   11   -0.30505      0.99989     3.29553    0.00962     4.30505
      C   12   -0.02115      0.99959     2.01116    0.01040     3.02115
      C   13   -0.09507      0.99962     2.08609    0.00935     3.09507
      C   14   -0.11805      0.99957     2.10554    0.01294     3.11805
      C   15   -0.19750      0.99962     2.19181    0.00606     3.19750
      C   16   -0.20017      0.99963     2.19403    0.00651     3.20017
      H   17    0.09249      0.00000     0.40627    0.00124     0.40751
      H   18    0.09654      0.00000     0.40047    0.00299     0.40346
      H   19    0.09432      0.00000     0.40446    0.00122     0.40568
      H   20    0.09792      0.00000     0.40056    0.00152     0.40208
      H   21    0.10093      0.00000     0.39758    0.00150     0.39907
      H   22    0.08181      0.00000     0.41618    0.00202     0.41819
      H   23    0.09593      0.00000     0.40310    0.00096     0.40407
      H   24    0.10701      0.00000     0.39148    0.00151     0.39299
      H   25    0.08818      0.00000     0.41083    0.00100     0.41182
      H   26    0.10978      0.00000     0.38895    0.00128     0.39022
      H   27    0.08868      0.00000     0.41026    0.00106     0.41132
      H   28    0.08800      0.00000     0.41037    0.00163     0.41200
      H   29    0.08440      0.00000     0.41438    0.00122     0.41560
      H   30    0.08144      0.00000     0.41729    0.00127     0.41856
      H   31    0.08912      0.00000     0.40965    0.00123     0.41088
      H   32    0.09403      0.00000     0.40478    0.00118     0.40597
      H   33    0.10232      0.00000     0.39643    0.00125     0.39768
      H   34    0.09400      0.00000     0.40471    0.00129     0.40600
      H   35    0.10239      0.00000     0.39667    0.00094     0.39761
      H   36    0.10315      0.00000     0.39581    0.00105     0.39685
      H   37    0.09464      0.00000     0.40436    0.00100     0.40536
 =======================================================================
   * Total *   -0.00000     15.99411    44.80329    0.20261    61.00000

 Normal termination of Gaussian 16 at Thu Dec 10 23:32:18 2020.
