 Gaussian 16, Revision A.03,

 -----------------------------------------------------------
 # opt freq B3LYP/6-31G(d) empiricaldispersion=gd3bj scf=xqc
 -----------------------------------------------------------

 -------------------------------
 CID_103022096_JID_6765_neutraal
 -------------------------------
 Symbolic Z-matrix:
 Charge =  0 Multiplicity = 1

 SCF Done:  E(RB3LYP) =  -783.637031345     A.U. after   15 cycles
 SCF Done:  E(RB3LYP) =  -783.641342840     A.U. after   12 cycles
 SCF Done:  E(RB3LYP) =  -783.642094036     A.U. after   12 cycles
 SCF Done:  E(RB3LYP) =  -783.642696860     A.U. after   12 cycles
 SCF Done:  E(RB3LYP) =  -783.643196910     A.U. after   12 cycles
 SCF Done:  E(RB3LYP) =  -783.643560725     A.U. after   12 cycles
 SCF Done:  E(RB3LYP) =  -783.644163788     A.U. after   12 cycles
 SCF Done:  E(RB3LYP) =  -783.645566859     A.U. after   14 cycles
 SCF Done:  E(RB3LYP) =  -783.646093722     A.U. after   13 cycles
 SCF Done:  E(RB3LYP) =  -783.645381365     A.U. after   13 cycles
 SCF Done:  E(RB3LYP) =  -783.648442429     A.U. after   10 cycles
 SCF Done:  E(RB3LYP) =  -783.648444374     A.U. after    8 cycles
 SCF Done:  E(RB3LYP) =  -783.648444568     A.U. after    8 cycles
 SCF Done:  E(RB3LYP) =  -783.648444729     A.U. after    7 cycles
 SCF Done:  E(RB3LYP) =  -783.648444747     A.U. after    6 cycles
 Optimization completed.
    -- Stationary point found.
 Normal termination of Gaussian 16 at Fri Dec 11 00:34:27 2020.

 --------------------------------------------------------------------
 #N Geom=AllCheck Guess=TCheck SCRF=Check GenChk RB3LYP/6-31G(d) Freq
 --------------------------------------------------------------------

 Structure from the checkpoint file:  "JID_6765.chk"
 -------------------------------
 CID_103022096_JID_6765_neutraal
 -------------------------------
 Charge =  0 Multiplicity = 1

 SCF Done:  E(RB3LYP) =  -783.648444747     A.U. after    1 cycles

  Exact polarizability: 138.567  -9.071 137.032 -13.622   2.055 121.293
 Approx polarizability: 172.859 -21.683 224.333 -16.803   5.482 180.310

                      1                      2                      3
                      A                      A                      A
 Frequencies --     37.9687                42.6449                51.1483
 Red. masses --      3.5834                 5.1439                 5.1343
 Frc consts  --      0.0030                 0.0055                 0.0079
 IR Inten    --      0.6706                 1.3969                 0.2156

                      4                      5                      6
                      A                      A                      A
 Frequencies --     66.1861               101.4925               115.5512
 Red. masses --      4.5333                 4.1180                 2.9568
 Frc consts  --      0.0117                 0.0250                 0.0233
 IR Inten    --      0.3496                 1.6686                 2.8657

                      7                      8                      9
                      A                      A                      A
 Frequencies --    132.7860               147.0763               159.1937
 Red. masses --      2.4951                 3.4020                 5.3235
 Frc consts  --      0.0259                 0.0434                 0.0795
 IR Inten    --      4.7415                 2.6538                 3.2025

                     10                     11                     12
                      A                      A                      A
 Frequencies --    210.2370               217.2863               243.8985
 Red. masses --      1.2377                 2.4813                 1.9070
 Frc consts  --      0.0322                 0.0690                 0.0668
 IR Inten    --      1.0631                 0.9147                 1.5478

                     13                     14                     15
                      A                      A                      A
 Frequencies --    261.9591               268.5425               273.9389
 Red. masses --      2.0149                 1.9553                 2.8846
 Frc consts  --      0.0815                 0.0831                 0.1275
 IR Inten    --      0.3147                 1.2682                20.1399

                     16                     17                     18
                      A                      A                      A
 Frequencies --    278.7962               299.7026               318.6713
 Red. masses --      2.4952                 1.2262                 2.6234
 Frc consts  --      0.1143                 0.0649                 0.1570
 IR Inten    --      0.5656                 1.1838                 2.6286

                     19                     20                     21
                      A                      A                      A
 Frequencies --    344.5240               346.2234               390.5141
 Red. masses --      2.4131                 1.4943                 2.4899
 Frc consts  --      0.1688                 0.1055                 0.2237
 IR Inten    --      6.1738               112.1617                 0.5879

                     22                     23                     24
                      A                      A                      A
 Frequencies --    396.3004               415.0722               456.6869
 Red. masses --      2.4071                 2.2961                 2.0378
 Frc consts  --      0.2227                 0.2331                 0.2504
 IR Inten    --      0.6244                27.3877                12.9681

                     25                     26                     27
                      A                      A                      A
 Frequencies --    471.3434               499.8075               507.2328
 Red. masses --      2.4865                 1.7326                 2.3771
 Frc consts  --      0.3255                 0.2550                 0.3603
 IR Inten    --      2.4396                31.3044                 1.4047

                     28                     29                     30
                      A                      A                      A
 Frequencies --    528.6014               572.2839               587.1140
 Red. masses --      3.0756                 3.4777                 3.1186
 Frc consts  --      0.5063                 0.6711                 0.6334
 IR Inten    --      2.9948                25.2351                 8.9651

                     31                     32                     33
                      A                      A                      A
 Frequencies --    641.2622               665.5725               714.9100
 Red. masses --      2.5800                 3.2854                 1.8215
 Frc consts  --      0.6251                 0.8575                 0.5485
 IR Inten    --     27.8968                 8.4035               104.5019

                     34                     35                     36
                      A                      A                      A
 Frequencies --    761.8083               779.1876               795.4163
 Red. masses --      1.6319                 1.4519                 3.0793
 Frc consts  --      0.5580                 0.5194                 1.1479
 IR Inten    --    146.3782               192.7880                18.0045

                     37                     38                     39
                      A                      A                      A
 Frequencies --    841.9050               851.8630               883.5473
 Red. masses --      3.2243                 3.5307                 2.5913
 Frc consts  --      1.3465                 1.5096                 1.1919
 IR Inten    --     21.0701                 4.1547                21.0433

                     40                     41                     42
                      A                      A                      A
 Frequencies --    899.8886               910.3784               947.5252
 Red. masses --      2.2921                 2.0468                 1.4901
 Frc consts  --      1.0936                 0.9995                 0.7882
 IR Inten    --      3.7877                 2.4524                 0.5359

                     43                     44                     45
                      A                      A                      A
 Frequencies --    969.8070               989.5596              1001.7913
 Red. masses --      4.8464                 1.8440                 1.8734
 Frc consts  --      2.6856                 1.0639                 1.1077
 IR Inten    --     79.4736                 2.0033                 4.8465

                     46                     47                     48
                      A                      A                      A
 Frequencies --   1032.9972              1056.7858              1091.9234
 Red. masses --      1.4295                 1.8406                 2.3536
 Frc consts  --      0.8987                 1.2111                 1.6533
 IR Inten    --      6.2368                 6.0386                 8.1045

                     49                     50                     51
                      A                      A                      A
 Frequencies --   1121.9967              1137.9460              1165.5625
 Red. masses --      4.8107                 1.9916                 1.6175
 Frc consts  --      3.5682                 1.5195                 1.2947
 IR Inten    --     85.2122                15.3165                 5.5530

                     52                     53                     54
                      A                      A                      A
 Frequencies --   1185.6275              1196.2184              1200.1857
 Red. masses --      1.5318                 1.4333                 1.6734
 Frc consts  --      1.2686                 1.2084                 1.4202
 IR Inten    --     24.8861                 2.8305                 9.6627

                     55                     56                     57
                      A                      A                      A
 Frequencies --   1231.3618              1237.0288              1246.0659
 Red. masses --      1.8527                 1.2890                 1.5345
 Frc consts  --      1.6551                 1.1622                 1.4038
 IR Inten    --     36.3462                 0.8412                72.3187

                     58                     59                     60
                      A                      A                      A
 Frequencies --   1260.2355              1304.6454              1317.1952
 Red. masses --      1.7942                 2.0852                 1.1770
 Frc consts  --      1.6789                 2.0912                 1.2032
 IR Inten    --     49.5338                37.2636                 8.9415

                     61                     62                     63
                      A                      A                      A
 Frequencies --   1330.6037              1357.7007              1372.7856
 Red. masses --      1.7008                 1.4585                 1.3443
 Frc consts  --      1.7742                 1.5841                 1.4926
 IR Inten    --     49.8391                 5.8599                48.9917

                     64                     65                     66
                      A                      A                      A
 Frequencies --   1391.5243              1404.3521              1423.7524
 Red. masses --      1.5904                 1.3831                 1.3062
 Frc consts  --      1.8144                 1.6072                 1.5601
 IR Inten    --     71.0013                19.7249                19.1848

                     67                     68                     69
                      A                      A                      A
 Frequencies --   1430.5448              1443.0142              1459.1757
 Red. masses --      1.6728                 1.2633                 1.8434
 Frc consts  --      2.0170                 1.5499                 2.3125
 IR Inten    --     45.9803                13.1026                 1.8098

                     70                     71                     72
                      A                      A                      A
 Frequencies --   1495.9692              1499.5580              1505.2261
 Red. masses --      1.4365                 1.1201                 1.1440
 Frc consts  --      1.8940                 1.4841                 1.5271
 IR Inten    --     39.3017                 0.3975                10.1677

                     73                     74                     75
                      A                      A                      A
 Frequencies --   1506.5103              1518.2943              1520.2741
 Red. masses --      1.2414                 1.0648                 1.1434
 Frc consts  --      1.6601                 1.4462                 1.5570
 IR Inten    --     14.8801                 6.5059                 4.5798

                     76                     77                     78
                      A                      A                      A
 Frequencies --   1522.7871              1526.1229              1533.1998
 Red. masses --      1.0764                 1.0907                 1.0536
 Frc consts  --      1.4707                 1.4968                 1.4592
 IR Inten    --      6.3669                 5.5259                 0.7299

                     79                     80                     81
                      A                      A                      A
 Frequencies --   1538.7301              1547.3086              1551.7631
 Red. masses --      1.0728                 1.0595                 1.0701
 Frc consts  --      1.4965                 1.4946                 1.5182
 IR Inten    --     11.4228                 6.4602                 5.2920

                     82                     83                     84
                      A                      A                      A
 Frequencies --   1682.1612              1732.0164              1749.9627
 Red. masses --      1.1998                 5.3675                 6.2705
 Frc consts  --      2.0003                 9.4870                11.3138
 IR Inten    --     32.3768                24.3727               345.2991

                     85                     86                     87
                      A                      A                      A
 Frequencies --   3024.2383              3043.0749              3055.2993
 Red. masses --      1.0414                 1.0716                 1.0711
 Frc consts  --      5.6119                 5.8466                 5.8911
 IR Inten    --     62.6899                18.9622                47.0825

                     88                     89                     90
                      A                      A                      A
 Frequencies --   3057.1594              3066.4007              3067.0226
 Red. masses --      1.0363                 1.0369                 1.0622
 Frc consts  --      5.7066                 5.7443                 5.8868
 IR Inten    --     28.7632                18.8079                17.6346

                     91                     92                     93
                      A                      A                      A
 Frequencies --   3093.7122              3103.6195              3104.0618
 Red. masses --      1.0628                 1.0906                 1.1014
 Frc consts  --      5.9932                 6.1896                 6.2524
 IR Inten    --      9.9283                24.3957                 8.7579

                     94                     95                     96
                      A                      A                      A
 Frequencies --   3124.7580              3130.7232              3134.8560
 Red. masses --      1.1021                 1.1035                 1.1030
 Frc consts  --      6.3405                 6.3726                 6.3864
 IR Inten    --     10.5951                 1.3990                28.1156

                     97                     98                     99
                      A                      A                      A
 Frequencies --   3137.2739              3138.6053              3140.6026
 Red. masses --      1.1015                 1.0942                 1.1040
 Frc consts  --      6.3877                 6.3509                 6.4156
 IR Inten    --     59.4017                 7.4954                21.6093

                    100                    101                    102
                      A                      A                      A
 Frequencies --   3154.7246              3173.7820              3519.6050
 Red. masses --      1.1017                 1.0898                 1.0481
 Frc consts  --      6.4600                 6.4677                 7.6499
 IR Inten    --     15.6477                12.1964                30.1822

                    103                    104                    105
                      A                      A                      A
 Frequencies --   3557.0385              3622.1579              3776.1434
 Red. masses --      1.0747                 1.0979                 1.0678
 Frc consts  --      8.0112                 8.4871                 8.9711
 IR Inten    --     13.2087                27.4648                56.3161

 - Thermochemistry -
 -------------------
 Temperature   298.150 Kelvin.  Pressure   1.00000 Atm.
 Atom     1 has atomic number  6 and mass  12.00000

 Molecular mass:   231.15829 amu.
 Principal axes and moments of inertia in atomic units:
                           1         2         3
     Eigenvalues --  2172.282045642.650135849.56875
           X            0.99965   0.01504  -0.02192
           Y           -0.01355   0.99768   0.06674
           Z            0.02288  -0.06642   0.99753
 This molecule is an asymmetric top.
 Rotational symmetry number  1.
 Warning -- assumption of classical behavior for rotation
           may cause significant error
 Rotational temperatures (Kelvin)      0.03987     0.01535     0.01481
 Rotational constants (GHZ):           0.83080     0.31984     0.30853
 Zero-point vibrational energy     852047.3 (Joules/Mol)
                                  203.64418 (Kcal/Mol)
 Warning -- explicit consideration of  30 degrees of freedom as
           vibrations may cause significant error
 Vibrational temperatures:     54.63    61.36    73.59    95.23   146.03
          (Kelvin)            166.25   191.05   211.61   229.04   302.48
                              312.63   350.92   376.90   386.37   394.14
                              401.13   431.21   458.50   495.69   498.14
                              561.86   570.19   597.20   657.07   678.16
                              719.11   729.79   760.54   823.39   844.73
                              922.63   957.61  1028.60  1096.07  1121.08
                             1144.43  1211.31  1225.64  1271.23  1294.74
                             1309.83  1363.28  1395.34  1423.76  1441.35
                             1486.25  1520.48  1571.03  1614.30  1637.25
                             1676.98  1705.85  1721.09  1726.80  1771.66
                             1779.81  1792.81  1813.20  1877.09  1895.15
                             1914.44  1953.43  1975.13  2002.09  2020.55
                             2048.46  2058.23  2076.18  2099.43  2152.37
                             2157.53  2165.68  2167.53  2184.49  2187.34
                             2190.95  2195.75  2205.93  2213.89  2226.23
                             2232.64  2420.25  2491.99  2517.81  4351.20
                             4378.31  4395.89  4398.57  4411.87  4412.76
                             4451.16  4465.42  4466.05  4495.83  4504.41
                             4510.36  4513.84  4515.75  4518.63  4538.95
                             4566.36  5063.93  5117.79  5211.48  5433.03

 Zero-point correction=                           0.324528 (Hartree/Particle)
 Thermal correction to Energy=                    0.342961
 Thermal correction to Enthalpy=                  0.343905
 Thermal correction to Gibbs Free Energy=         0.278542
 Sum of electronic and zero-point Energies=           -783.323917
 Sum of electronic and thermal Energies=              -783.305484
 Sum of electronic and thermal Enthalpies=            -783.304540
 Sum of electronic and thermal Free Energies=         -783.369902

                     E (Thermal)             CV                S
                      KCal/Mol        Cal/Mol-Kelvin    Cal/Mol-Kelvin
 Total                  215.211             69.348            137.567
 Electronic               0.000              0.000              0.000
 Translational            0.889              2.981             42.216
 Rotational               0.889              2.981             32.639
 Vibrational            213.434             63.387             62.713
 Vibration     1          0.594              1.982              5.362
 Vibration     2          0.595              1.980              5.132
 Vibration     3          0.595              1.977              4.772
 Vibration     4          0.598              1.970              4.264
 Vibration     5          0.604              1.948              3.425
 Vibration     6          0.608              1.937              3.173
 Vibration     7          0.613              1.921              2.905
 Vibration     8          0.617              1.906              2.710
 Vibration     9          0.621              1.892              2.559
 Vibration    10          0.642              1.825              2.042
 Vibration    11          0.646              1.815              1.982
 Vibration    12          0.659              1.773              1.774
 Vibration    13          0.669              1.742              1.649
 Vibration    14          0.673              1.731              1.606
 Vibration    15          0.676              1.721              1.571
 Vibration    16          0.679              1.713              1.541
 Vibration    17          0.692              1.674              1.419
 Vibration    18          0.705              1.638              1.317
 Vibration    19          0.723              1.586              1.191
 Vibration    20          0.724              1.583              1.183
 Vibration    21          0.758              1.490              0.998
 Vibration    22          0.763              1.478              0.976
 Vibration    23          0.778              1.438              0.909
 Vibration    24          0.815              1.346              0.776
 Vibration    25          0.828              1.314              0.734
 Vibration    26          0.855              1.250              0.659
 Vibration    27          0.862              1.234              0.640
 Vibration    28          0.884              1.187              0.590
 Vibration    29          0.928              1.091              0.500
 Vibration    30          0.944              1.059              0.472

 Optimization completed.
    -- Stationary point found.
 Normal termination of Gaussian 16 at Fri Dec 11 00:47:44 2020.

 ----------------------------------------------------------------------
 # B3LYP/6-311++G(d,p) empiricaldispersion=gd3bj scf=xqc pop=npa geom=c
 heck
 ----------------------------------------------------------------------

 ---------------------------------------
 CID_103022096_JID_6765_Energie_neutraal
 ---------------------------------------
 Structure from the checkpoint file:  "JID_6765.chk"
 Charge =  0 Multiplicity = 1

 SCF Done:  E(RB3LYP) =  -783.895942114     A.U. after   16 cycles
 Normal termination of Gaussian 16 at Fri Dec 11 00:54:01 2020.

 ----------------------------------------------------------------------
 # B3LYP/6-311++G(d,p) empiricaldispersion=gd3bj scf=xqc pop=npa geom=c
 heck
 ----------------------------------------------------------------------

 -------------------------------------
 CID_103022096_JID_6765_Energie_kation
 -------------------------------------
 Structure from the checkpoint file:  "JID_6765.chk"
 Charge =  1 Multiplicity = 2

 SCF Done:  E(UB3LYP) =  -783.594426891     A.U. after   30 cycles
 Normal termination of Gaussian 16 at Fri Dec 11 01:10:08 2020.
 Gaussian 16:  ES64L-G16RevA.03 25-Dec-2016

 ----------------------------------------------------------------------
 # B3LYP/6-311++G(d,p) empiricaldispersion=gd3bj scf=xqc pop=npa geom=c
 heck
 ----------------------------------------------------------------------

 ------------------------------------
 CID_103022096_JID_6765_Energie_anion
 ------------------------------------
 Structure from the checkpoint file:  "JID_6765.chk"
 Charge = -1 Multiplicity = 2

                         Standard orientation:
 ---------------------------------------------------------------------
 Center     Atomic      Atomic             Coordinates (Angstroms)
 Number     Number       Type             X           Y           Z
 ---------------------------------------------------------------------
      1          6           0       -2.009655   -1.587830   -1.251381
      2          6           0       -2.290682   -0.777082    0.015959
      3          6           0       -2.850300   -1.700427    1.109347
      4          6           0       -1.006951   -0.086186    0.558203
      5          6           0       -0.494835    1.046794   -0.316559
      6          8           0       -0.781991    2.220076   -0.069422
      7          7           0        0.276287    0.751836   -1.408738
      8          6           0        1.126566   -0.410470   -1.641651
      9          6           0        2.615330   -0.047124   -1.615134
     10          6           0        3.052123    0.753314   -0.369267
     11          6           0        2.438206    0.324693    0.944880
     12          7           0        2.457818   -0.862161    1.447407
     13          8           0        3.230955   -1.743994    0.629306
     14          7           0        1.871135    1.333095    1.714426
     15          8           0       -3.263507    0.179819   -0.410331
     16          6           0       -3.744331    1.105278    0.552689
     17          1           0       -1.257284   -2.361453   -1.066902
     18          1           0       -1.660422   -0.932044   -2.052257
     19          1           0       -2.933114   -2.071162   -1.584079
     20          1           0       -2.143609   -2.508482    1.326485
     21          1           0       -3.035794   -1.163393    2.044737
     22          1           0       -3.792419   -2.144496    0.772025
     23          1           0       -1.225716    0.370475    1.526410
     24          1           0       -0.242068   -0.846767    0.735411
     25          1           0        0.521490    1.592110   -1.922997
     26          1           0        0.924350   -1.151268   -0.869426
     27          1           0        0.874651   -0.872102   -2.604497
     28          1           0        3.184013   -0.977025   -1.680138
     29          1           0        2.864713    0.549449   -2.502823
     30          1           0        4.141539    0.676945   -0.270861
     31          1           0        2.827193    1.815627   -0.506105
     32          1           0        3.197179   -2.560401    1.148934
     33          1           0        1.274710    1.984480    1.212489
     34          1           0        1.422533    0.982113    2.554352
     35          1           0       -4.233587    0.607799    1.401827
     36          1           0       -2.950272    1.766846    0.914393
     37          1           0       -4.491257    1.710401    0.032418
 ---------------------------------------------------------------------

 SCF Done:  E(UB3LYP) =  -783.884662696     A.U. after   33 cycles
 SCF Done:  E(UB3LYP) =  -783.884662695     a.u. after    1 cycles

 The electronic state is 2-A.
 Alpha  occ. eigenvalues --  -19.05387 -19.02896 -18.99633 -14.24316 -14.24254
 Alpha  occ. eigenvalues --  -14.23048 -10.18266 -10.14589 -10.14495 -10.11384
 Alpha  occ. eigenvalues --  -10.11130 -10.08821 -10.08343 -10.07645 -10.07035
 Alpha  occ. eigenvalues --  -10.06292  -0.96855  -0.94910  -0.93919  -0.84477
 Alpha  occ. eigenvalues --   -0.82978  -0.72702  -0.71531  -0.69066  -0.63442
 Alpha  occ. eigenvalues --   -0.61620  -0.60889  -0.58208  -0.53134  -0.50014
 Alpha  occ. eigenvalues --   -0.47582  -0.45872  -0.43399  -0.41735  -0.40348
 Alpha  occ. eigenvalues --   -0.39730  -0.38492  -0.37765  -0.37415  -0.36672
 Alpha  occ. eigenvalues --   -0.36408  -0.34216  -0.33238  -0.32765  -0.32494
 Alpha  occ. eigenvalues --   -0.31793  -0.30652  -0.29789  -0.29289  -0.28590
 Alpha  occ. eigenvalues --   -0.28289  -0.27005  -0.26546  -0.26051  -0.25607
 Alpha  occ. eigenvalues --   -0.25455  -0.22757  -0.21382  -0.18156  -0.17088
 Alpha  occ. eigenvalues --   -0.16911  -0.16070  -0.12806   0.04197
 Alpha virt. eigenvalues --    0.06124   0.06647   0.07488   0.08276   0.08555
 Alpha virt. eigenvalues --    0.08978   0.09098   0.09412   0.10575   0.10896
 Alpha virt. eigenvalues --    0.11258   0.11395   0.11563   0.12054   0.12785

  Beta  occ. eigenvalues --  -19.05346 -19.02892 -18.99628 -14.24292 -14.24238
  Beta  occ. eigenvalues --  -14.23042 -10.18261 -10.14587 -10.14498 -10.11375
  Beta  occ. eigenvalues --  -10.11109 -10.08800 -10.08333 -10.07613 -10.07006
  Beta  occ. eigenvalues --  -10.06272  -0.96785  -0.94901  -0.93913  -0.84452
  Beta  occ. eigenvalues --   -0.82951  -0.72645  -0.71516  -0.69016  -0.63415
  Beta  occ. eigenvalues --   -0.61571  -0.60847  -0.58178  -0.53067  -0.49974
  Beta  occ. eigenvalues --   -0.47530  -0.45834  -0.43371  -0.41716  -0.40302
  Beta  occ. eigenvalues --   -0.39693  -0.38449  -0.37733  -0.37374  -0.36636
  Beta  occ. eigenvalues --   -0.36382  -0.34198  -0.33208  -0.32744  -0.32463
  Beta  occ. eigenvalues --   -0.31764  -0.30624  -0.29763  -0.29265  -0.28562
  Beta  occ. eigenvalues --   -0.28266  -0.26966  -0.26502  -0.26020  -0.25571
  Beta  occ. eigenvalues --   -0.25421  -0.22735  -0.21367  -0.18091  -0.17074
  Beta  occ. eigenvalues --   -0.16901  -0.16053  -0.12770
  Beta virt. eigenvalues --    0.06307   0.07033   0.07633   0.07825   0.08586
  Beta virt. eigenvalues --    0.08858   0.09269   0.09463   0.09722   0.10982
  Beta virt. eigenvalues --    0.11147   0.11391   0.11679   0.11813   0.12182

 Mulliken charges and spin densities:
               1          2
     1  C   -0.289038  -0.452392
     2  C   -1.539686   1.412695
     3  C    0.923636  -1.297702
     4  C    1.246174  -1.211675
     5  C   -1.017538   0.386550
     6  O   -0.239364   0.009035
     7  N   -0.228509   0.065088
     8  C   -0.296730   0.494661
     9  C    1.488969  -2.220372
    10  C   -1.024732   0.394518
    11  C    0.658363  -0.645086
    12  N   -0.296163   0.097845
    13  O   -0.130494   0.012587
    14  N   -0.214073   0.054242
    15  O   -0.007070   0.002174
    16  C    0.040751  -0.238693
    17  H   -0.162698   0.325221
    18  H    0.145491   0.061157
    19  H   -0.030758   0.209115
    20  H   -0.172134   0.337466
    21  H   -0.239048   0.372289
    22  H    0.020911   0.145975
    23  H    0.280099  -0.036818
    24  H    0.149883   0.048382
    25  H    0.105515   0.225983
    26  H    0.480450  -0.435383
    27  H   -0.696208   0.911025
    28  H    0.059284   0.145195
    29  H   -0.482783   0.650287
    30  H    0.036796   0.185094
    31  H   -0.085995   0.232234
    32  H   -0.195369   0.478438
    33  H    0.297368  -0.015091
    34  H    0.156526   0.112570
    35  H    0.055006   0.063332
    36  H    0.126360   0.055798
    37  H    0.076810   0.064257
 Sum of Mulliken charges =  -1.00000   1.00000

 Dipole moment (field-independent basis, Debye):
    X=             -3.2501    Y=              3.0320    Z=              2.2261  Tot=              4.9711
 Quadrupole moment (field-independent basis, Debye-Ang):
   XX=           -163.2030   YY=           -146.8852   ZZ=           -143.6877
   XY=              3.7415   XZ=              2.6017   YZ=              5.5419

 Summary of Natural Population Analysis:

                                       Natural Population
                Natural  -----------------------------------------------
    Atom  No    Charge         Core      Valence    Rydberg      Total
 -----------------------------------------------------------------------
      C    1   -0.29133      0.99960     2.28407    0.00766     3.29133
      C    2    0.14206      0.99954     1.84291    0.01549     2.85794
      C    3   -0.30002      0.99961     2.29352    0.00690     3.30002
      C    4   -0.25614      0.99952     2.24485    0.01177     3.25614
      C    5    0.34843      0.99965     1.62770    0.02422     2.65157
      O    6   -0.33757      0.99988     3.33222    0.00548     4.33757
      N    7   -0.31702      0.99966     2.80635    0.01101     3.81702
      C    8   -0.09170      0.99960     2.08052    0.01158     3.09170
      C    9   -0.19010      0.99962     2.18172    0.00876     3.19010
      C   10   -0.22272      0.99958     2.21328    0.00986     3.22272
      C   11    0.19658      0.99962     1.78388    0.01992     2.80342
      N   12   -0.13249      0.99958     2.61877    0.01414     3.63249
      O   13   -0.29495      0.99991     3.28819    0.00686     4.29495
      N   14   -0.39837      0.99971     2.89109    0.00757     3.89837
      O   15   -0.30938      0.99987     3.29926    0.01026     4.30938
      C   16   -0.10371      0.99959     2.09586    0.00826     3.10371
      H   17    0.10132      0.00000     0.39746    0.00122     0.39868
      H   18    0.10786      0.00000     0.39060    0.00155     0.39214
      H   19    0.10275      0.00000     0.39619    0.00106     0.39725
      H   20    0.10713      0.00000     0.39168    0.00119     0.39287
      H   21    0.09962      0.00000     0.39922    0.00116     0.40038
      H   22    0.10326      0.00000     0.39583    0.00091     0.39674
      H   23    0.10974      0.00000     0.38870    0.00156     0.39026
      H   24    0.11888      0.00000     0.37848    0.00264     0.38112
      H   25    0.19234      0.00000     0.30518    0.00249     0.30766
      H   26    0.10399      0.00000     0.39302    0.00299     0.39601
      H   27    0.09890      0.00000     0.39926    0.00184     0.40110
      H   28    0.11361      0.00000     0.38456    0.00184     0.38639
      H   29    0.09862      0.00000     0.39911    0.00227     0.40138
      H   30    0.11882      0.00000     0.38005    0.00114     0.38118
      H   31    0.10406      0.00000     0.39455    0.00139     0.39594
      H   32    0.23810      0.00000     0.25370    0.00820     0.26190
      H   33    0.19542      0.00000     0.30251    0.00207     0.30458
      H   34    0.18799      0.00000     0.31008    0.00193     0.31201
      H   35    0.07519      0.00000     0.42351    0.00130     0.42481
      H   36    0.09266      0.00000     0.40592    0.00142     0.40734
      H   37    0.08819      0.00000     0.41098    0.00083     0.41181
 =======================================================================
   * Total *    0.00000     15.99451    46.78478    0.22070    63.00000

 Normal termination of Gaussian 16 at Fri Dec 11 01:27:19 2020.
