 Gaussian 16, Revision A.03,

 -----------------------------------------------------------
 # opt freq B3LYP/6-31G(d) empiricaldispersion=gd3bj scf=xqc
 -----------------------------------------------------------

 -------------------------------
 CID_80042638_JID_10797_neutraal
 -------------------------------
 Symbolic Z-matrix:
 Charge =  0 Multiplicity = 1

 SCF Done:  E(RB3LYP) =  -858.014702267     A.U. after   15 cycles
 SCF Done:  E(RB3LYP) =  -858.024295278     A.U. after   13 cycles
 SCF Done:  E(RB3LYP) =  -858.025710919     A.U. after   12 cycles
 SCF Done:  E(RB3LYP) =  -858.025999414     A.U. after   11 cycles
 SCF Done:  E(RB3LYP) =  -858.026090616     A.U. after   11 cycles
 SCF Done:  E(RB3LYP) =  -858.026126114     A.U. after    9 cycles
 SCF Done:  E(RB3LYP) =  -858.026145049     A.U. after   10 cycles
 SCF Done:  E(RB3LYP) =  -858.026148392     A.U. after    8 cycles
 SCF Done:  E(RB3LYP) =  -858.026150689     A.U. after    8 cycles
 SCF Done:  E(RB3LYP) =  -858.026156211     A.U. after    9 cycles
 SCF Done:  E(RB3LYP) =  -858.026161564     A.U. after    8 cycles
 SCF Done:  E(RB3LYP) =  -858.026162631     A.U. after    9 cycles
 SCF Done:  E(RB3LYP) =  -858.026162936     A.U. after    7 cycles
 SCF Done:  E(RB3LYP) =  -858.026162993     A.U. after    7 cycles
 SCF Done:  E(RB3LYP) =  -858.026163040     A.U. after    7 cycles
 Optimization completed.
    -- Stationary point found.
 Normal termination of Gaussian 16 at Sat Dec 12 16:34:56 2020.

 --------------------------------------------------------------------
 #N Geom=AllCheck Guess=TCheck SCRF=Check GenChk RB3LYP/6-31G(d) Freq
 --------------------------------------------------------------------

 Structure from the checkpoint file:  "JID_10797.chk"
 -------------------------------
 CID_80042638_JID_10797_neutraal
 -------------------------------
 Charge =  0 Multiplicity = 1

 SCF Done:  E(RB3LYP) =  -858.026163040     A.U. after    1 cycles

  Exact polarizability: 250.387 -37.855 166.611 -20.179 -14.082 150.402
 Approx polarizability: 328.209 -71.142 261.738 -41.248 -33.656 254.720

                      1                      2                      3
                      A                      A                      A
 Frequencies --     21.3405                28.5554                32.6555
 Red. masses --      5.2050                 4.1189                 3.3104
 Frc consts  --      0.0014                 0.0020                 0.0021
 IR Inten    --      1.1739                 0.3883                 0.2292

                      4                      5                      6
                      A                      A                      A
 Frequencies --     66.2338                79.2359                87.5396
 Red. masses --      3.8418                 1.1753                 2.5370
 Frc consts  --      0.0099                 0.0043                 0.0115
 IR Inten    --      0.8175                 0.6611                 0.0742

                      7                      8                      9
                      A                      A                      A
 Frequencies --    104.9959               119.8970               152.4804
 Red. masses --      3.3895                 2.9206                 3.6148
 Frc consts  --      0.0220                 0.0247                 0.0495
 IR Inten    --      2.2994                 0.4701                 1.1503

                     10                     11                     12
                      A                      A                      A
 Frequencies --    185.4577               231.9916               256.4387
 Red. masses --      3.9446                 3.7795                 2.8314
 Frc consts  --      0.0799                 0.1198                 0.1097
 IR Inten    --      0.2452                 3.7033                 0.6705

                     13                     14                     15
                      A                      A                      A
 Frequencies --    282.9026               293.7537               316.3432
 Red. masses --      2.9889                 3.7077                 2.6231
 Frc consts  --      0.1409                 0.1885                 0.1547
 IR Inten    --      1.0933                 0.5740                 0.5622

                     16                     17                     18
                      A                      A                      A
 Frequencies --    326.3979               376.0755               384.0561
 Red. masses --      2.3947                 3.7724                 3.3033
 Frc consts  --      0.1503                 0.3144                 0.2871
 IR Inten    --      2.9621                13.1623                 1.8005

                     19                     20                     21
                      A                      A                      A
 Frequencies --    441.4204               444.8881               458.1500
 Red. masses --      2.8827                 2.2976                 2.0982
 Frc consts  --      0.3309                 0.2679                 0.2595
 IR Inten    --      2.3710                 0.3533                81.4116

                     22                     23                     24
                      A                      A                      A
 Frequencies --    484.7552               492.4588               525.5524
 Red. masses --      2.3977                 2.3391                 3.1822
 Frc consts  --      0.3320                 0.3342                 0.5179
 IR Inten    --      0.7748                39.2737                26.1790

                     25                     26                     27
                      A                      A                      A
 Frequencies --    574.4071               613.8995               630.3500
 Red. masses --      3.4926                 3.8173                 3.6346
 Frc consts  --      0.6790                 0.8476                 0.8509
 IR Inten    --      6.4529                 3.3610                 6.4350

                     28                     29                     30
                      A                      A                      A
 Frequencies --    660.9676               674.4105               724.2102
 Red. masses --      4.6569                 4.3220                 3.7128
 Frc consts  --      1.1987                 1.1582                 1.1473
 IR Inten    --     12.3902                20.0018                 6.0245

                     31                     32                     33
                      A                      A                      A
 Frequencies --    729.8918               733.2351               759.8580
 Red. masses --      3.8908                 2.5335                 8.5330
 Frc consts  --      1.2213                 0.8025                 2.9028
 IR Inten    --      2.8577                 1.3526                21.6972

                     34                     35                     36
                      A                      A                      A
 Frequencies --    787.6433               795.4197               802.1937
 Red. masses --      1.2817                 1.3396                 1.4852
 Frc consts  --      0.4685                 0.4994                 0.5631
 IR Inten    --      4.0342                25.9919                 2.4449

                     37                     38                     39
                      A                      A                      A
 Frequencies --    803.6964               829.0373               851.6209
 Red. masses --      3.4010                 1.7794                 2.9928
 Frc consts  --      1.2943                 0.7206                 1.2789
 IR Inten    --      2.3391                 3.9469                 2.2317

                     40                     41                     42
                      A                      A                      A
 Frequencies --    869.6050               876.9120               907.2004
 Red. masses --      3.4850                 1.3344                 2.7035
 Frc consts  --      1.5527                 0.6046                 1.3109
 IR Inten    --      0.9622                10.6502                14.2782

                     43                     44                     45
                      A                      A                      A
 Frequencies --    914.5330               923.5376               939.2337
 Red. masses --      2.4470                 1.2504                 2.9867
 Frc consts  --      1.2058                 0.6284                 1.5524
 IR Inten    --      7.0193                 0.4029                11.2020

                     46                     47                     48
                      A                      A                      A
 Frequencies --    953.8949               969.9289               986.4749
 Red. masses --      2.6733                 2.9103                 1.9063
 Frc consts  --      1.4332                 1.6131                 1.0930
 IR Inten    --     20.3532                 3.7297                 1.2214

                     49                     50                     51
                      A                      A                      A
 Frequencies --   1000.3395              1032.4557              1042.8951
 Red. masses --      2.1987                 1.9062                 1.5896
 Frc consts  --      1.2963                 1.1972                 1.0187
 IR Inten    --     10.8706                 3.6782                 3.5017

                     52                     53                     54
                      A                      A                      A
 Frequencies --   1058.2383              1064.9240              1074.5741
 Red. masses --      1.5948                 2.5846                 1.5016
 Frc consts  --      1.0523                 1.7270                 1.0216
 IR Inten    --     10.9100                16.7988                 4.4182

                     55                     56                     57
                      A                      A                      A
 Frequencies --   1078.6027              1086.6187              1114.6452
 Red. masses --      1.5149                 2.5036                 2.1852
 Frc consts  --      1.0384                 1.7417                 1.5996
 IR Inten    --      3.7099                10.3786                21.0317

                     58                     59                     60
                      A                      A                      A
 Frequencies --   1121.3859              1144.0585              1152.1940
 Red. masses --      2.4976                 1.1283                 2.0313
 Frc consts  --      1.8505                 0.8701                 1.5888
 IR Inten    --      7.7603                 7.9406                25.9777

                     61                     62                     63
                      A                      A                      A
 Frequencies --   1167.4299              1196.0260              1206.3879
 Red. masses --      2.0417                 2.6641                 1.4314
 Frc consts  --      1.6395                 2.2454                 1.2274
 IR Inten    --     22.7710                 8.6757                 3.8422

                     64                     65                     66
                      A                      A                      A
 Frequencies --   1210.5854              1235.0604              1240.8639
 Red. masses --      1.8564                 1.7040                 3.8411
 Frc consts  --      1.6029                 1.5314                 3.4846
 IR Inten    --      7.3722                 2.7049                44.0811

                     67                     68                     69
                      A                      A                      A
 Frequencies --   1249.6820              1259.6420              1278.4130
 Red. masses --      1.4193                 1.3565                 1.3990
 Frc consts  --      1.3060                 1.2682                 1.3471
 IR Inten    --      1.0606                19.5163                47.6870

                     70                     71                     72
                      A                      A                      A
 Frequencies --   1293.6060              1303.6721              1323.3487
 Red. masses --      1.8352                 1.3434                 1.5092
 Frc consts  --      1.8094                 1.3452                 1.5572
 IR Inten    --      4.5065                 2.9393                 6.8053

                     73                     74                     75
                      A                      A                      A
 Frequencies --   1342.7867              1352.6682              1361.8563
 Red. masses --      2.2235                 1.4988                 1.7385
 Frc consts  --      2.3621                 1.6158                 1.8997
 IR Inten    --     19.0752                21.4657                 2.8521

                     76                     77                     78
                      A                      A                      A
 Frequencies --   1373.1522              1389.6636              1391.7800
 Red. masses --      1.8375                 1.4562                 1.4214
 Frc consts  --      2.0414                 1.6569                 1.6222
 IR Inten    --     14.9486                67.3283                 6.5163

                     79                     80                     81
                      A                      A                      A
 Frequencies --   1414.2078              1427.2422              1434.9158
 Red. masses --      1.8018                 1.7975                 1.4055
 Frc consts  --      2.1231                 2.1573                 1.7051
 IR Inten    --     64.1334                20.3457                45.2170

                     82                     83                     84
                      A                      A                      A
 Frequencies --   1443.0355              1491.0123              1491.5929
 Red. masses --      1.2505                 1.7182                 1.0933
 Frc consts  --      1.5342                 2.2506                 1.4332
 IR Inten    --      0.3494               126.1269                 2.1771

                     85                     86                     87
                      A                      A                      A
 Frequencies --   1509.3513              1512.4218              1512.5136
 Red. masses --      1.2111                 1.2735                 1.0455
 Frc consts  --      1.6256                 1.7162                 1.4092
 IR Inten    --      4.0224                 8.9687                 6.8145

                     88                     89                     90
                      A                      A                      A
 Frequencies --   1514.4662              1520.5029              1532.6830
 Red. masses --      1.1541                 1.1054                 2.4278
 Frc consts  --      1.5596                 1.5057                 3.3602
 IR Inten    --      9.7697                24.2624                 1.5689

                     91                     92                     93
                      A                      A                      A
 Frequencies --   1534.6006              1545.9185              1566.4029
 Red. masses --      1.3303                 1.1375                 4.8657
 Frc consts  --      1.8459                 1.6017                 7.0340
 IR Inten    --     17.8989                14.2929                30.1537

                     94                     95                     96
                      A                      A                      A
 Frequencies --   1579.4043              1635.3125              1704.5586
 Red. masses --      4.0834                 4.5698                 6.7030
 Frc consts  --      6.0015                 7.2003                11.4747
 IR Inten    --     63.4134               772.9727               119.5496

                     97                     98                     99
                      A                      A                      A
 Frequencies --   3044.5631              3046.0193              3049.0654
 Red. masses --      1.0794                 1.0378                 1.0691
 Frc consts  --      5.8951                 5.6734                 5.8562
 IR Inten    --      5.3651                33.6684                22.0295

                    100                    101                    102
                      A                      A                      A
 Frequencies --   3057.7255              3061.2196              3072.4866
 Red. masses --      1.0708                 1.0701                 1.0643
 Frc consts  --      5.8990                 5.9085                 5.9199
 IR Inten    --     66.6100                60.0536                50.4952

                    103                    104                    105
                      A                      A                      A
 Frequencies --   3097.6291              3098.3695              3130.3234
 Red. masses --      1.1008                 1.0989                 1.1007
 Frc consts  --      6.2234                 6.2154                 6.3548
 IR Inten    --     17.4737                41.3981                11.3012

                    106                    107                    108
                      A                      A                      A
 Frequencies --   3132.7346              3135.1548              3135.9234
 Red. masses --      1.0969                 1.0957                 1.1007
 Frc consts  --      6.3425                 6.3454                 6.3775
 IR Inten    --     43.4306                 6.4828                15.7477

                    109                    110                    111
                      A                      A                      A
 Frequencies --   3143.7197              3147.5862              3159.3271
 Red. masses --      1.0520                 1.0591                 1.0891
 Frc consts  --      6.1259                 6.1824                 6.4050
 IR Inten    --     20.8911                18.8500                15.7627

                    112                    113                    114
                      A                      A                      A
 Frequencies --   3216.8499              3217.0539              3226.4945
 Red. masses --      1.1182                 1.0899                 1.0915
 Frc consts  --      6.8178                 6.6458                 6.6948
 IR Inten    --      0.5715                 4.8955                 2.8917

                    115                    116                    117
                      A                      A                      A
 Frequencies --   3231.4056              3259.7956              3623.9855
 Red. masses --      1.1145                 1.0952                 1.0754
 Frc consts  --      6.8568                 6.8569                 8.3213
 IR Inten    --     31.2205                 1.2719                27.4323

 - Thermochemistry -
 -------------------
 Temperature   298.150 Kelvin.  Pressure   1.00000 Atm.
 Atom     1 has atomic number  6 and mass  12.00000

 Molecular mass:   271.17970 amu.
 Principal axes and moments of inertia in atomic units:
                           1         2         3
     Eigenvalues --  2498.75527********************
           X            0.99995  -0.00954   0.00044
           Y            0.00955   0.99979  -0.01789
           Z           -0.00027   0.01789   0.99984
 This molecule is an asymmetric top.
 Rotational symmetry number  1.
 Warning -- assumption of classical behavior for rotation
           may cause significant error
 Rotational temperatures (Kelvin)      0.03466     0.00734     0.00673
 Rotational constants (GHZ):           0.72226     0.15289     0.14019
 Zero-point vibrational energy     928965.3 (Joules/Mol)
                                  222.02803 (Kcal/Mol)
 Warning -- explicit consideration of  26 degrees of freedom as
           vibrations may cause significant error
 Vibrational temperatures:     30.70    41.08    46.98    95.30   114.00
          (Kelvin)            125.95   151.07   172.51   219.39   266.83
                              333.78   368.96   407.03   422.65   455.15
                              469.61   541.09   552.57   635.11   640.09
                              659.18   697.45   708.54   756.15   826.44
                              883.26   906.93   950.98   970.33  1041.98
                             1050.15  1054.96  1093.27  1133.24  1144.43
                             1154.18  1156.34  1192.80  1225.29  1251.17
                             1261.68  1305.26  1315.81  1328.76  1351.35
                             1372.44  1395.51  1419.32  1439.27  1485.47
                             1500.49  1522.57  1532.19  1546.07  1551.87
                             1563.40  1603.73  1613.42  1646.04  1657.75
                             1679.67  1720.81  1735.72  1741.76  1776.98
                             1785.33  1798.01  1812.34  1839.35  1861.21
                             1875.69  1904.00  1931.97  1946.19  1959.41
                             1975.66  1999.42  2002.46  2034.73  2053.48
                             2064.52  2076.21  2145.23  2146.07  2171.62
                             2176.04  2176.17  2178.98  2187.66  2205.19
                             2207.95  2224.23  2253.70  2272.41  2352.85
                             2452.48  4380.45  4382.54  4386.92  4399.39
                             4404.41  4420.62  4456.80  4457.86  4503.84
                             4507.31  4510.79  4511.89  4523.11  4528.67
                             4545.57  4628.33  4628.62  4642.21  4649.27
                             4690.12  5214.11

 Zero-point correction=                           0.353824 (Hartree/Particle)
 Thermal correction to Energy=                    0.371706
 Thermal correction to Enthalpy=                  0.372650
 Thermal correction to Gibbs Free Energy=         0.305706
 Sum of electronic and zero-point Energies=           -857.672339
 Sum of electronic and thermal Energies=              -857.654457
 Sum of electronic and thermal Enthalpies=            -857.653513
 Sum of electronic and thermal Free Energies=         -857.720457

                     E (Thermal)             CV                S
                      KCal/Mol        Cal/Mol-Kelvin    Cal/Mol-Kelvin
 Total                  233.249             70.103            140.897
 Electronic               0.000              0.000              0.000
 Translational            0.889              2.981             42.692
 Rotational               0.889              2.981             34.295
 Vibrational            231.472             64.141             63.910
 Vibration     1          0.593              1.985              6.505
 Vibration     2          0.593              1.984              5.927
 Vibration     3          0.594              1.983              5.661
 Vibration     4          0.598              1.970              4.262
 Vibration     5          0.600              1.963              3.910
 Vibration     6          0.601              1.958              3.714
 Vibration     7          0.605              1.945              3.359
 Vibration     8          0.609              1.933              3.102
 Vibration     9          0.619              1.900              2.641
 Vibration    10          0.632              1.860              2.273
 Vibration    11          0.653              1.792              1.863
 Vibration    12          0.666              1.752              1.686
 Vibration    13          0.682              1.705              1.516
 Vibration    14          0.689              1.685              1.452
 Vibration    15          0.703              1.642              1.329
 Vibration    16          0.710              1.623              1.278
 Vibration    17          0.747              1.521              1.055
 Vibration    18          0.753              1.504              1.023
 Vibration    19          0.801              1.380              0.822
 Vibration    20          0.804              1.372              0.811
 Vibration    21          0.816              1.343              0.772
 Vibration    22          0.841              1.284              0.697
 Vibration    23          0.848              1.267              0.677
 Vibration    24          0.881              1.193              0.597
 Vibration    25          0.931              1.087              0.496
 Vibration    26          0.973              1.002              0.426

                           ! Non-Optimized Parameters !
 Normal termination of Gaussian 16 at Sat Dec 12 16:54:48 2020.

 ----------------------------------------------------------------------
 # B3LYP/6-311++G(d,p) empiricaldispersion=gd3bj scf=xqc pop=npa geom=c
 heck
 ----------------------------------------------------------------------

 ---------------------------------------
 CID_80042638_JID_10797_Energie_neutraal
 ---------------------------------------
 Structure from the checkpoint file:  "JID_10797.chk"
 Charge =  0 Multiplicity = 1

 SCF Done:  E(RB3LYP) =  -858.251899966     A.U. after   15 cycles
 Normal termination of Gaussian 16 at Sat Dec 12 17:03:16 2020.

 ----------------------------------------------------------------------
 # B3LYP/6-311++G(d,p) empiricaldispersion=gd3bj scf=xqc pop=npa geom=c
 heck
 ----------------------------------------------------------------------

 -------------------------------------
 CID_80042638_JID_10797_Energie_kation
 -------------------------------------
 Structure from the checkpoint file:  "JID_10797.chk"
 Charge =  1 Multiplicity = 2

 SCF Done:  E(UB3LYP) =  -857.992601615     A.U. after   26 cycles
 Normal termination of Gaussian 16 at Sat Dec 12 17:22:49 2020.
 Gaussian 16:  ES64L-G16RevA.03 25-Dec-2016

 ----------------------------------------------------------------------
 # B3LYP/6-311++G(d,p) empiricaldispersion=gd3bj scf=xqc pop=npa geom=c
 heck
 ----------------------------------------------------------------------

 ------------------------------------
 CID_80042638_JID_10797_Energie_anion
 ------------------------------------
 Structure from the checkpoint file:  "JID_10797.chk"
 Charge = -1 Multiplicity = 2

                         Standard orientation:
 ---------------------------------------------------------------------
 Center     Atomic      Atomic             Coordinates (Angstroms)
 Number     Number       Type             X           Y           Z
 ---------------------------------------------------------------------
      1          6           0       -5.530365    2.253480   -0.483825
      2          6           0       -4.523732    1.190914   -0.124482
      3          6           0       -3.409776    0.961475   -0.911369
      4          6           0       -2.487818   -0.038595   -0.547930
      5          7           0       -1.348733   -0.469534   -1.100531
      6          6           0       -0.949658   -1.453427   -0.249765
      7          7           0       -1.742837   -1.684790    0.813507
      8          7           0       -2.735885   -0.771259    0.609946
      9          6           0       -3.819400   -0.568487    1.399820
     10          6           0       -4.718558    0.406061    1.046132
     11          7           0        0.174196   -2.198006   -0.460223
     12          6           0        1.217149   -1.771759   -1.381305
     13          6           0        2.291664   -0.850998   -0.783758
     14          6           0        3.109427   -1.457338    0.383582
     15          6           0        3.297257   -0.275328    1.383651
     16          7           0        2.848719    0.953631    0.711625
     17          6           0        1.780093    0.475143   -0.178426
     18          6           0        3.861682    1.705099   -0.001086
     19          6           0        5.198049    2.035831    0.589421
     20          6           0        5.122533    1.137406   -0.631857
     21          1           0       -5.250847    2.772275   -1.404943
     22          1           0       -5.616580    3.001449    0.313873
     23          1           0       -6.527667    1.820079   -0.627916
     24          1           0       -3.220225    1.534613   -1.811920
     25          1           0       -3.896365   -1.205161    2.271595
     26          1           0       -5.586283    0.571734    1.675351
     27          1           0        0.438743   -2.783279    0.319547
     28          1           0        1.693484   -2.671872   -1.788376
     29          1           0        0.715073   -1.265680   -2.209040
     30          1           0        2.981035   -0.602215   -1.600324
     31          1           0        4.064392   -1.862335    0.034390
     32          1           0        2.573375   -2.281596    0.869350
     33          1           0        2.660331   -0.430516    2.262378
     34          1           0        4.322512   -0.179154    1.747075
     35          1           0        1.523314    1.227293   -0.928522
     36          1           0        0.885426    0.294550    0.427680
     37          1           0        3.395827    2.515688   -0.556779
     38          1           0        5.571553    3.049622    0.473326
     39          1           0        5.476677    1.576394    1.533800
     40          1           0        5.345415    0.085089   -0.481158
     41          1           0        5.451312    1.525876   -1.592473
 ---------------------------------------------------------------------

 SCF Done:  E(UB3LYP) =  -858.242513017     A.U. after   33 cycles
 SCF Done:  E(UB3LYP) =  -858.242513019     a.u. after    2 cycles

 The electronic state is 2-A.
 Alpha  occ. eigenvalues --  -14.28089 -14.22188 -14.20840 -14.20542 -14.17649
 Alpha  occ. eigenvalues --  -10.14191 -10.12348 -10.10907 -10.10246 -10.09855
 Alpha  occ. eigenvalues --  -10.09506 -10.08631 -10.07800 -10.07517 -10.07384
 Alpha  occ. eigenvalues --  -10.07365 -10.07244 -10.07034 -10.06522 -10.05203
 Alpha  occ. eigenvalues --   -0.96129  -0.84815  -0.84100  -0.78522  -0.75678
 Alpha  occ. eigenvalues --   -0.75094  -0.69390  -0.67639  -0.64108  -0.63418
 Alpha  occ. eigenvalues --   -0.60507  -0.57816  -0.53790  -0.53186  -0.51031
 Alpha  occ. eigenvalues --   -0.50564  -0.49434  -0.46827  -0.45815  -0.42848
 Alpha  occ. eigenvalues --   -0.41905  -0.41082  -0.39955  -0.38020  -0.37128
 Alpha  occ. eigenvalues --   -0.36514  -0.36098  -0.34565  -0.34514  -0.33712
 Alpha  occ. eigenvalues --   -0.32538  -0.32004  -0.31581  -0.30155  -0.29705
 Alpha  occ. eigenvalues --   -0.29020  -0.27686  -0.26749  -0.26417  -0.26363
 Alpha  occ. eigenvalues --   -0.25946  -0.24399  -0.23549  -0.22826  -0.22367
 Alpha  occ. eigenvalues --   -0.21011  -0.20882  -0.20216  -0.18278  -0.16662
 Alpha  occ. eigenvalues --   -0.11664  -0.11261  -0.10173   0.04495
 Alpha virt. eigenvalues --    0.05610   0.06629   0.06878   0.07446   0.08200
 Alpha virt. eigenvalues --    0.08458   0.09159   0.09462   0.09585   0.10095
 Alpha virt. eigenvalues --    0.10255   0.11155   0.11246   0.11713   0.11861

  Beta  occ. eigenvalues --  -14.27857 -14.22187 -14.20840 -14.20541 -14.17621
  Beta  occ. eigenvalues --  -10.14183 -10.12387 -10.10903 -10.10241 -10.09849
  Beta  occ. eigenvalues --  -10.09243 -10.08631 -10.07789 -10.07531 -10.07380
  Beta  occ. eigenvalues --  -10.07337 -10.07228 -10.06815 -10.06582 -10.05022
  Beta  occ. eigenvalues --   -0.95900  -0.84762  -0.84059  -0.78397  -0.75525
  Beta  occ. eigenvalues --   -0.75053  -0.69173  -0.67541  -0.63903  -0.63326
  Beta  occ. eigenvalues --   -0.60394  -0.57790  -0.53766  -0.52977  -0.50971
  Beta  occ. eigenvalues --   -0.50396  -0.49271  -0.46766  -0.45768  -0.42775
  Beta  occ. eigenvalues --   -0.41878  -0.40934  -0.39899  -0.37931  -0.37051
  Beta  occ. eigenvalues --   -0.36284  -0.35661  -0.34456  -0.34429  -0.33644
  Beta  occ. eigenvalues --   -0.32309  -0.31985  -0.31556  -0.30111  -0.29655
  Beta  occ. eigenvalues --   -0.28978  -0.27659  -0.26634  -0.26322  -0.26297
  Beta  occ. eigenvalues --   -0.25761  -0.24241  -0.23434  -0.22807  -0.22327
  Beta  occ. eigenvalues --   -0.20832  -0.20367  -0.20130  -0.17834  -0.16621
  Beta  occ. eigenvalues --   -0.11252  -0.10690  -0.09840
  Beta virt. eigenvalues --    0.06440   0.06574   0.07307   0.07717   0.08207
  Beta virt. eigenvalues --    0.08417   0.08642   0.09325   0.09605   0.09775
  Beta virt. eigenvalues --    0.10099   0.10522   0.11237   0.11318   0.11751

 Mulliken charges and spin densities:
               1          2
     1  C   -0.552824  -0.193352
     2  C    0.545399   0.139128
     3  C   -0.468074   0.176849
     4  C   -0.070059  -0.121186
     5  N   -0.079648   0.012709
     6  C   -0.328211  -0.017822
     7  N    0.050014   0.019093
     8  N    0.068018   0.029755
     9  C    0.041310   0.267944
    10  C   -0.622815   0.012210
    11  N   -0.060193  -0.013940
    12  C   -0.800441  -0.020535
    13  C    0.137398   0.781981
    14  C    0.650458  -1.246815
    15  C   -0.256449  -0.114364
    16  N    0.392976  -0.044746
    17  C   -0.545116  -0.463347
    18  C   -1.301295   1.223301
    19  C    0.340679  -0.613247
    20  C    0.958073  -1.312148
    21  H    0.117878   0.019416
    22  H    0.143535  -0.002065
    23  H    0.066823   0.077409
    24  H    0.106825   0.012926
    25  H    0.131184  -0.008216
    26  H    0.118619   0.023106
    27  H    0.197028   0.075984
    28  H   -0.073732   0.244467
    29  H    0.191979   0.021051
    30  H   -0.197125   0.425323
    31  H   -0.276899   0.448112
    32  H    0.167812  -0.100231
    33  H    0.184198  -0.014899
    34  H    0.023839   0.078743
    35  H    0.158128  -0.021994
    36  H    0.307474   0.008489
    37  H    0.023600   0.162634
    38  H    0.023573   0.111618
    39  H   -0.071856   0.197658
    40  H    0.030278   0.107404
    41  H   -0.472357   0.631597
 Sum of Mulliken charges =  -1.00000   1.00000

 Dipole moment (field-independent basis, Debye):
    X=             -3.4376    Y=              0.3739    Z=              2.3810  Tot=              4.1984
 Quadrupole moment (field-independent basis, Debye-Ang):
   XX=           -226.2147   YY=           -149.6713   ZZ=           -146.0451
   XY=             -8.4105   XZ=              7.0709   YZ=             -1.9441

 Summary of Natural Population Analysis:

                                       Natural Population
                Natural  -----------------------------------------------
    Atom  No    Charge         Core      Valence    Rydberg      Total
 -----------------------------------------------------------------------
      C    1   -0.29146      0.99964     2.28718    0.00464     3.29146
      C    2    0.02165      0.99955     1.96911    0.00969     2.97835
      C    3   -0.09517      0.99943     2.08763    0.00811     3.09517
      C    4    0.18284      0.99959     1.80168    0.01588     2.81716
      N    5   -0.29984      0.99967     2.79183    0.00834     3.79984
      C    6    0.26979      0.99965     1.71035    0.02022     2.73021
      N    7   -0.21055      0.99970     2.70059    0.01026     3.71055
      N    8   -0.06904      0.99959     2.55823    0.01122     3.56904
      C    9    0.07199      0.99958     1.91714    0.01130     2.92801
      C   10   -0.15158      0.99954     2.14225    0.00978     3.15158
      N   11   -0.32132      0.99966     2.81133    0.01033     3.82132
      C   12   -0.08520      0.99959     2.07321    0.01240     3.08520
      C   13   -0.12729      0.99959     2.11794    0.00976     3.12729
      C   14   -0.20081      0.99962     2.19296    0.00822     3.20081
      C   15   -0.09149      0.99963     2.08046    0.01140     3.09149
      N   16   -0.27143      0.99973     2.76027    0.01144     3.77143
      C   17   -0.08353      0.99960     2.07245    0.01148     3.08353
      C   18   -0.00890      0.99956     1.99483    0.01451     3.00890
      C   19   -0.20621      0.99962     2.19811    0.00848     3.20621
      C   20   -0.21603      0.99962     2.20648    0.00993     3.21603
      H   21    0.09963      0.00000     0.39958    0.00080     0.40037
      H   22    0.09985      0.00000     0.39924    0.00091     0.40015
      H   23    0.10041      0.00000     0.39825    0.00134     0.39959
      H   24    0.10070      0.00000     0.39816    0.00115     0.39930
      H   25    0.09871      0.00000     0.40050    0.00080     0.40129
      H   26    0.09736      0.00000     0.40153    0.00111     0.40264
      H   27    0.18960      0.00000     0.30822    0.00218     0.31040
      H   28    0.09319      0.00000     0.40593    0.00089     0.40681
      H   29    0.11088      0.00000     0.38759    0.00154     0.38912
      H   30    0.10053      0.00000     0.39767    0.00180     0.39947
      H   31    0.10078      0.00000     0.39777    0.00145     0.39922
      H   32    0.09233      0.00000     0.40635    0.00131     0.40767
      H   33    0.09400      0.00000     0.40487    0.00113     0.40600
      H   34    0.09608      0.00000     0.40279    0.00113     0.40392
      H   35    0.10092      0.00000     0.39809    0.00099     0.39908
      H   36    0.09988      0.00000     0.39898    0.00114     0.40012
      H   37    0.09982      0.00000     0.39895    0.00123     0.40018
      H   38    0.10122      0.00000     0.39790    0.00089     0.39878
      H   39    0.10046      0.00000     0.39838    0.00116     0.39954
      H   40    0.10374      0.00000     0.39468    0.00158     0.39626
      H   41    0.10351      0.00000     0.39490    0.00159     0.39649
 =======================================================================
   * Total *    0.00000     19.99216    52.76433    0.24351    73.00000

 Normal termination of Gaussian 16 at Sat Dec 12 18:24:38 2020.
