 Gaussian 16, Revision A.03,

 -----------------------------------------------------------
 # opt freq B3LYP/6-31G(d) empiricaldispersion=gd3bj scf=xqc
 -----------------------------------------------------------

 ------------------------------
 CID_66846378_JID_4264_neutraal
 ------------------------------
 Symbolic Z-matrix:
 Charge =  0 Multiplicity = 1

 SCF Done:  E(RB3LYP) =  -1103.63605888     A.U. after   14 cycles
 SCF Done:  E(RB3LYP) =  -1103.64090528     A.U. after   12 cycles
 SCF Done:  E(RB3LYP) =  -1103.64051592     A.U. after   12 cycles
 SCF Done:  E(RB3LYP) =  -1103.64164253     A.U. after   12 cycles
 SCF Done:  E(RB3LYP) =  -1103.64181451     A.U. after   12 cycles
 SCF Done:  E(RB3LYP) =  -1103.64183434     A.U. after   10 cycles
 SCF Done:  E(RB3LYP) =  -1103.64183745     A.U. after   10 cycles
 SCF Done:  E(RB3LYP) =  -1103.64184436     A.U. after    8 cycles
 SCF Done:  E(RB3LYP) =  -1103.64184510     A.U. after    8 cycles
 SCF Done:  E(RB3LYP) =  -1103.64184533     A.U. after    7 cycles
 SCF Done:  E(RB3LYP) =  -1103.64184541     A.U. after    7 cycles
 Optimization completed.
    -- Stationary point found.
 Normal termination of Gaussian 16 at Thu Dec 10 09:20:30 2020.

 --------------------------------------------------------------------
 #N Geom=AllCheck Guess=TCheck SCRF=Check GenChk RB3LYP/6-31G(d) Freq
 --------------------------------------------------------------------

 Structure from the checkpoint file:  "JID_4264.chk"
 ------------------------------
 CID_66846378_JID_4264_neutraal
 ------------------------------
 Charge =  0 Multiplicity = 1

 SCF Done:  E(RB3LYP) =  -1103.64184541     A.U. after    1 cycles

  Exact polarizability: 105.269   4.632 112.585  -2.293  -2.226  98.764
 Approx polarizability: 147.142  14.319 175.310   0.188   4.951 151.810

                      1                      2                      3
                      A                      A                      A
 Frequencies --     39.5764                56.3712                80.6333
 Red. masses --      4.8886                12.0205                 7.1247
 Frc consts  --      0.0045                 0.0225                 0.0273
 IR Inten    --      1.2475                 1.6670                 1.0996

                      4                      5                      6
                      A                      A                      A
 Frequencies --     87.3322               161.5734               180.0453
 Red. masses --      5.5065                 4.7966                 7.3935
 Frc consts  --      0.0247                 0.0738                 0.1412
 IR Inten    --      0.7797                 1.0879                 1.9204

                      7                      8                      9
                      A                      A                      A
 Frequencies --    237.8900               255.4989               265.3543
 Red. masses --      4.0209                 2.6793                 3.5696
 Frc consts  --      0.1341                 0.1031                 0.1481
 IR Inten    --      3.2286                16.6634                 7.0313

                     10                     11                     12
                      A                      A                      A
 Frequencies --    290.7597               306.4396               328.9889
 Red. masses --      4.9914                 1.2124                 2.7042
 Frc consts  --      0.2486                 0.0671                 0.1724
 IR Inten    --      1.5827                77.1736                 6.0418

                     13                     14                     15
                      A                      A                      A
 Frequencies --    341.7619               393.4937               410.0912
 Red. masses --      2.8316                 6.5927                 2.0192
 Frc consts  --      0.1949                 0.6014                 0.2001
 IR Inten    --     20.6511                19.4170                 7.5022

                     16                     17                     18
                      A                      A                      A
 Frequencies --    426.5800               462.5661               469.8231
 Red. masses --      3.8440                 2.5675                 3.6679
 Frc consts  --      0.4121                 0.3237                 0.4770
 IR Inten    --     18.7040                 0.6920                 7.1413

                     19                     20                     21
                      A                      A                      A
 Frequencies --    493.1153               526.7595               577.8481
 Red. masses --      6.2973                 1.2471                 3.3735
 Frc consts  --      0.9022                 0.2039                 0.6637
 IR Inten    --     34.7681                 7.4217                41.9359

                     22                     23                     24
                      A                      A                      A
 Frequencies --    591.1472               612.6182               644.5654
 Red. masses --      1.6327                 1.9660                 4.3894
 Frc consts  --      0.3362                 0.4347                 1.0745
 IR Inten    --    103.9097                96.6014                 4.0895

                     25                     26                     27
                      A                      A                      A
 Frequencies --    663.5839               700.4669               722.5801
 Red. masses --      3.5714                 2.0451                 2.7297
 Frc consts  --      0.9266                 0.5912                 0.8397
 IR Inten    --     19.7387                18.6356                16.2777

                     28                     29                     30
                      A                      A                      A
 Frequencies --    766.9455               842.0609               889.4857
 Red. masses --      9.3631                 2.5215                 2.7676
 Frc consts  --      3.2449                 1.0534                 1.2901
 IR Inten    --     75.4823                32.4853                10.7065

                     31                     32                     33
                      A                      A                      A
 Frequencies --    935.8971               939.6544               953.6644
 Red. masses --      1.9860                 2.0496                 2.1076
 Frc consts  --      1.0249                 1.0663                 1.1294
 IR Inten    --      8.1815                14.4285                 1.7117

                     34                     35                     36
                      A                      A                      A
 Frequencies --    986.4280              1019.4424              1043.9419
 Red. masses --      1.9688                 2.1470                 2.7584
 Frc consts  --      1.1287                 1.3146                 1.7712
 IR Inten    --     38.3200                 9.9421                15.5978

                     37                     38                     39
                      A                      A                      A
 Frequencies --   1087.3368              1101.9334              1119.9298
 Red. masses --      2.6487                 2.6493                 4.1967
 Frc consts  --      1.8450                 1.8954                 3.1013
 IR Inten    --     67.4859                79.4765               139.8035

                     40                     41                     42
                      A                      A                      A
 Frequencies --   1140.3387              1150.9504              1171.7168
 Red. masses --      2.1950                 1.3651                 1.9725
 Frc consts  --      1.6817                 1.0654                 1.5955
 IR Inten    --     49.0746                11.2959                35.3710

                     43                     44                     45
                      A                      A                      A
 Frequencies --   1208.2001              1221.2950              1238.3766
 Red. masses --      1.4122                 1.3356                 1.4307
 Frc consts  --      1.2146                 1.1738                 1.2927
 IR Inten    --     97.2000                97.3898                24.3907

                     46                     47                     48
                      A                      A                      A
 Frequencies --   1292.4874              1306.1420              1326.4868
 Red. masses --      2.3258                 1.4953                 1.6705
 Frc consts  --      2.2892                 1.5030                 1.7319
 IR Inten    --     59.0762                24.9736                44.5381

                     49                     50                     51
                      A                      A                      A
 Frequencies --   1332.6967              1371.0879              1380.6038
 Red. masses --      1.6525                 1.3597                 1.3847
 Frc consts  --      1.7292                 1.5060                 1.5551
 IR Inten    --     49.3361                20.4144                 5.7700

                     52                     53                     54
                      A                      A                      A
 Frequencies --   1387.5794              1411.8018              1428.0867
 Red. masses --      1.4740                 1.5895                 1.8270
 Frc consts  --      1.6721                 1.8666                 2.1953
 IR Inten    --     18.1619                18.4037                69.5931

                     55                     56                     57
                      A                      A                      A
 Frequencies --   1461.8510              1477.1273              1487.9688
 Red. masses --      1.5596                 1.0972                 1.0892
 Frc consts  --      1.9636                 1.4105                 1.4209
 IR Inten    --     31.1959                 7.5390                 2.3864

                     58                     59                     60
                      A                      A                      A
 Frequencies --   1494.2806              1505.0566              1512.5550
 Red. masses --      1.4682                 1.1425                 1.2885
 Frc consts  --      1.9315                 1.5248                 1.7368
 IR Inten    --     27.8122                29.5270                11.9514

                     61                     62                     63
                      A                      A                      A
 Frequencies --   1530.6471              1859.8871              3025.7407
 Red. masses --      1.1112                 7.6767                 1.0705
 Frc consts  --      1.5339                15.6457                 5.7742
 IR Inten    --     14.6625               557.2817                21.2791

                     64                     65                     66
                      A                      A                      A
 Frequencies --   3040.6917              3081.8628              3101.7004
 Red. masses --      1.0709                 1.0608                 1.0621
 Frc consts  --      5.8337                 5.9363                 6.0205
 IR Inten    --     59.8186                11.1903                 3.5098

                     67                     68                     69
                      A                      A                      A
 Frequencies --   3106.8711              3110.8737              3127.9410
 Red. masses --      1.0657                 1.0928                 1.1044
 Frc consts  --      6.0611                 6.2308                 6.3664
 IR Inten    --      3.3252                 4.0599                 5.7680

                     70                     71                     72
                      A                      A                      A
 Frequencies --   3149.9445              3169.2094              3188.3477
 Red. masses --      1.0942                 1.1035                 1.0985
 Frc consts  --      6.3967                 6.5300                 6.5791
 IR Inten    --      4.9108                 3.0393                 1.8428

                     73                     74                     75
                      A                      A                      A
 Frequencies --   3637.0338              3723.0803              3734.7068
 Red. masses --      1.0768                 1.0660                 1.0648
 Frc consts  --      8.3923                 8.7059                 8.7504
 IR Inten    --     33.5953                10.4132                96.8551

 - Thermochemistry -
 -------------------
 Temperature   298.150 Kelvin.  Pressure   1.00000 Atm.
 Atom     1 has atomic number  6 and mass  12.00000

 Molecular mass:   223.05144 amu.
 Principal axes and moments of inertia in atomic units:
                           1         2         3
     Eigenvalues --  2202.178973593.895134665.10625
           X            0.99997   0.00162  -0.00740
           Y           -0.00180   0.99969  -0.02474
           Z            0.00735   0.02476   0.99967
 This molecule is an asymmetric top.
 Rotational symmetry number  1.
 Warning -- assumption of classical behavior for rotation
           may cause significant error
 Rotational temperatures (Kelvin)      0.03933     0.02410     0.01857
 Rotational constants (GHZ):           0.81953     0.50217     0.38686
 Zero-point vibrational energy     573665.7 (Joules/Mol)
                                  137.10939 (Kcal/Mol)
 Warning -- explicit consideration of  23 degrees of freedom as
           vibrations may cause significant error
 Vibrational temperatures:     56.94    81.11   116.01   125.65   232.47
          (Kelvin)            259.05   342.27   367.61   381.79   418.34
                              440.90   473.34   491.72   566.15   590.03
                              613.75   665.53   675.97   709.48   757.89
                              831.39   850.53   881.42   927.39   954.75
                             1007.82  1039.63  1103.46  1211.54  1279.77
                             1346.55  1351.95  1372.11  1419.25  1466.75
                             1502.00  1564.44  1585.44  1611.33  1640.69
                             1655.96  1685.84  1738.33  1757.17  1781.75
                             1859.60  1879.25  1908.52  1917.45  1972.69
                             1986.38  1996.42  2031.27  2054.70  2103.28
                             2125.26  2140.86  2149.94  2165.44  2176.23
                             2202.26  2675.96  4353.37  4374.88  4434.11
                             4462.66  4470.09  4475.85  4500.41  4532.07
                             4559.79  4587.32  5232.88  5356.68  5373.41

 Zero-point correction=                           0.218498 (Hartree/Particle)
 Thermal correction to Energy=                    0.232361
 Thermal correction to Enthalpy=                  0.233305
 Thermal correction to Gibbs Free Energy=         0.177709
 Sum of electronic and zero-point Energies=          -1103.423348
 Sum of electronic and thermal Energies=             -1103.409484
 Sum of electronic and thermal Enthalpies=           -1103.408540
 Sum of electronic and thermal Free Energies=        -1103.464137

                     E (Thermal)             CV                S
                      KCal/Mol        Cal/Mol-Kelvin    Cal/Mol-Kelvin
 Total                  145.809             53.460            117.013
 Electronic               0.000              0.000              0.000
 Translational            0.889              2.981             42.109
 Rotational               0.889              2.981             31.979
 Vibrational            144.031             47.499             42.925
 Vibration     1          0.594              1.981              5.280
 Vibration     2          0.596              1.975              4.580
 Vibration     3          0.600              1.962              3.875
 Vibration     4          0.601              1.958              3.719
 Vibration     5          0.622              1.890              2.531
 Vibration     6          0.629              1.867              2.328
 Vibration     7          0.656              1.783              1.819
 Vibration     8          0.666              1.754              1.692
 Vibration     9          0.671              1.737              1.626
 Vibration    10          0.687              1.691              1.470
 Vibration    11          0.697              1.661              1.381
 Vibration    12          0.712              1.618              1.265
 Vibration    13          0.721              1.592              1.204
 Vibration    14          0.761              1.484              0.987
 Vibration    15          0.774              1.448              0.926
 Vibration    16          0.788              1.412              0.870
 Vibration    17          0.820              1.333              0.759
 Vibration    18          0.827              1.317              0.738
 Vibration    19          0.849              1.265              0.676
 Vibration    20          0.882              1.191              0.594
 Vibration    21          0.934              1.079              0.489
 Vibration    22          0.949              1.051              0.465
 Vibration    23          0.972              1.005              0.428

                           ! Non-Optimized Parameters !
 Normal termination of Gaussian 16 at Thu Dec 10 09:28:55 2020.

 ----------------------------------------------------------------------
 # B3LYP/6-311++G(d,p) empiricaldispersion=gd3bj scf=xqc pop=npa geom=c
 heck
 ----------------------------------------------------------------------

 --------------------------------------
 CID_66846378_JID_4264_Energie_neutraal
 --------------------------------------
 Structure from the checkpoint file:  "JID_4264.chk"
 Charge =  0 Multiplicity = 1

 SCF Done:  E(RB3LYP) =  -1103.89901660     A.U. after   15 cycles
 Normal termination of Gaussian 16 at Thu Dec 10 09:32:40 2020.

 ----------------------------------------------------------------------
 # B3LYP/6-311++G(d,p) empiricaldispersion=gd3bj scf=xqc pop=npa geom=c
 heck
 ----------------------------------------------------------------------

 ------------------------------------
 CID_66846378_JID_4264_Energie_kation
 ------------------------------------
 Structure from the checkpoint file:  "JID_4264.chk"
 Charge =  1 Multiplicity = 2

 SCF Done:  E(UB3LYP) =  -1103.54781936     A.U. after   33 cycles
 SCF Done:  E(UB3LYP) =  -1103.54781936     a.u. after    1 cycles
 Normal termination of Gaussian 16 at Thu Dec 10 09:44:30 2020.
 Gaussian 16:  ES64L-G16RevA.03 25-Dec-2016

 ----------------------------------------------------------------------
 # B3LYP/6-311++G(d,p) empiricaldispersion=gd3bj scf=xqc pop=npa geom=c
 heck
 ----------------------------------------------------------------------

 -----------------------------------
 CID_66846378_JID_4264_Energie_anion
 -----------------------------------
 Structure from the checkpoint file:  "JID_4264.chk"
 Charge = -1 Multiplicity = 2

                         Standard orientation:
 ---------------------------------------------------------------------
 Center     Atomic      Atomic             Coordinates (Angstroms)
 Number     Number       Type             X           Y           Z
 ---------------------------------------------------------------------
      1          6           0        0.288711    0.914779    1.324758
      2          6           0        0.605280   -0.578405    1.229381
      3         16           0        1.935135   -0.889652    0.042801
      4          8           0        2.037875   -2.334873   -0.206862
      5          8           0        3.113046   -0.110423    0.465846
      6          6           0        1.247489   -0.083103   -1.427611
      7          6           0        0.897421    1.375725   -1.120463
      8          6           0       -0.124428    1.611399    0.013886
      9          6           0       -1.586634    1.323209   -0.404790
     10          7           0       -1.913987   -0.029698   -0.841166
     11          6           0       -2.636218   -0.947023   -0.130338
     12          8           0       -3.105763   -1.969156   -0.589467
     13          8           0       -2.740423   -0.598619    1.185012
     14          8           0       -0.102587    3.003024    0.360816
     15          1           0        1.176171    1.437858    1.692824
     16          1           0       -0.506468    1.058981    2.062981
     17          1           0       -0.242626   -1.188148    0.919543
     18          1           0        0.978966   -0.962395    2.183267
     19          1           0        0.392303   -0.685691   -1.736897
     20          1           0        2.029163   -0.157299   -2.189389
     21          1           0        0.526457    1.849099   -2.041388
     22          1           0        1.816589    1.897995   -0.837211
     23          1           0       -2.228660    1.588940    0.436407
     24          1           0       -1.832605    2.004215   -1.230467
     25          1           0       -1.920179   -0.226404   -1.831614
     26          1           0       -3.263256   -1.310968    1.592181
     27          1           0       -0.257026    3.517021   -0.448581
 ---------------------------------------------------------------------

 SCF Done:  E(UB3LYP) =  -1103.90130023     A.U. after   28 cycles

 The electronic state is 2-A.
 Alpha  occ. eigenvalues --  -88.94768 -19.07823 -19.03611 -19.02105 -19.01935
 Alpha  occ. eigenvalues --  -19.00772 -14.25089 -10.23279 -10.15084 -10.11957
 Alpha  occ. eigenvalues --  -10.11784 -10.11586 -10.09322 -10.09165  -8.01319
 Alpha  occ. eigenvalues --   -5.97584  -5.97464  -5.97410  -1.02237  -1.01197
 Alpha  occ. eigenvalues --   -0.94284  -0.92658  -0.90914  -0.84277  -0.74920
 Alpha  occ. eigenvalues --   -0.69333  -0.66800  -0.61113  -0.56807  -0.55102
 Alpha  occ. eigenvalues --   -0.52260  -0.47226  -0.43822  -0.43136  -0.42055
 Alpha  occ. eigenvalues --   -0.40763  -0.40270  -0.38483  -0.37888  -0.37334
 Alpha  occ. eigenvalues --   -0.36572  -0.34361  -0.34039  -0.33324  -0.32230
 Alpha  occ. eigenvalues --   -0.31372  -0.30995  -0.29293  -0.27593  -0.26924
 Alpha  occ. eigenvalues --   -0.24449  -0.23930  -0.23622  -0.22770  -0.21169
 Alpha  occ. eigenvalues --   -0.20564  -0.19563  -0.19036  -0.16812   0.03522
 Alpha virt. eigenvalues --    0.05861   0.07592   0.08167   0.09040   0.10258
 Alpha virt. eigenvalues --    0.10514   0.11125   0.11372   0.12340   0.12797
 Alpha virt. eigenvalues --    0.13258   0.13584   0.14015   0.14731   0.15123

  Beta  occ. eigenvalues --  -88.94768 -19.07773 -19.03577 -19.02104 -19.01927
  Beta  occ. eigenvalues --  -19.00759 -14.25048 -10.23274 -10.15089 -10.11948
  Beta  occ. eigenvalues --  -10.11768 -10.11535 -10.09303 -10.09116  -8.01318
  Beta  occ. eigenvalues --   -5.97583  -5.97463  -5.97411  -1.02167  -1.01188
  Beta  occ. eigenvalues --   -0.94223  -0.92606  -0.90904  -0.84200  -0.74884
  Beta  occ. eigenvalues --   -0.69294  -0.66741  -0.61032  -0.56737  -0.54996
  Beta  occ. eigenvalues --   -0.52210  -0.47172  -0.43760  -0.43066  -0.41987
  Beta  occ. eigenvalues --   -0.40742  -0.40222  -0.38433  -0.37841  -0.37302
  Beta  occ. eigenvalues --   -0.36528  -0.34322  -0.33981  -0.33283  -0.32181
  Beta  occ. eigenvalues --   -0.31329  -0.30946  -0.29249  -0.27557  -0.26886
  Beta  occ. eigenvalues --   -0.24401  -0.23903  -0.23577  -0.22762  -0.21152
  Beta  occ. eigenvalues --   -0.20531  -0.19514  -0.19016  -0.16773
  Beta virt. eigenvalues --    0.06329   0.07508   0.08328   0.08481   0.09734
  Beta virt. eigenvalues --    0.10619   0.10759   0.11385   0.11662   0.12435
  Beta virt. eigenvalues --    0.13016   0.13613   0.13987   0.14204   0.14823

 Mulliken charges and spin densities:
               1          2
     1  C    0.628652  -1.083072
     2  C   -1.407109   0.686637
     3  S    0.978362  -0.312940
     4  O   -0.123022   0.009204
     5  O   -0.232922  -0.012049
     6  C   -0.578267  -0.239675
     7  C    0.274197  -0.734542
     8  C    0.022542   0.329724
     9  C    0.683631  -1.266426
    10  N   -0.230872  -0.015392
    11  C    0.659643  -0.631755
    12  O   -0.359731   0.059296
    13  O   -0.258358   0.040776
    14  O   -0.184053   0.006479
    15  H    0.229896   0.012828
    16  H    0.044275   0.141187
    17  H    0.101768   0.164657
    18  H    0.139338   0.121191
    19  H    0.172623   0.037434
    20  H    0.027593   0.247365
    21  H   -0.882939   1.090508
    22  H    0.185893   0.054084
    23  H    0.180010   0.059229
    24  H   -1.038631   1.265794
    25  H    0.004126   0.351507
    26  H   -0.093315   0.401456
    27  H    0.056672   0.216494
 Sum of Mulliken charges =  -1.00000   1.00000

 Dipole moment (field-independent basis, Debye):
    X=              2.1292    Y=             -1.1334    Z=              4.2768  Tot=              4.9101
 Quadrupole moment (field-independent basis, Debye-Ang):
   XX=           -146.6103   YY=           -142.8748   ZZ=           -127.2612
   XY=              2.1001   XZ=             -7.4538   YZ=              7.3708

 Summary of Natural Population Analysis:

                                       Natural Population
                Natural  -----------------------------------------------
    Atom  No    Charge         Core      Valence    Rydberg      Total
 -----------------------------------------------------------------------
      C    1   -0.20679      0.99956     2.19658    0.01065     3.20679
      C    2   -0.29061      0.99957     2.27907    0.01196     3.29061
      S    3    1.02109      4.99924     1.88508    0.09459     6.97891
      O    4   -0.46851      0.99991     3.46346    0.00514     4.46851
      O    5   -0.47467      0.99991     3.46922    0.00554     4.47467
      C    6   -0.28920      0.99958     2.27765    0.01196     3.28920
      C    7   -0.21756      0.99957     2.20529    0.01271     3.21756
      C    8    0.12958      0.99951     1.85517    0.01574     2.87042
      C    9   -0.10089      0.99954     2.08516    0.01619     3.10089
      N   10   -0.33500      0.99966     2.82386    0.01147     3.83500
      C   11    0.45584      0.99972     1.51988    0.02456     2.54416
      O   12   -0.32920      0.99987     3.32372    0.00561     4.32920
      O   13   -0.35598      0.99988     3.34950    0.00660     4.35598
      O   14   -0.37331      0.99989     3.36733    0.00609     4.37331
      H   15    0.11410      0.00000     0.38469    0.00121     0.38590
      H   16    0.11414      0.00000     0.38472    0.00115     0.38586
      H   17    0.11879      0.00000     0.37935    0.00186     0.38121
      H   18    0.11718      0.00000     0.38176    0.00106     0.38282
      H   19    0.11812      0.00000     0.38030    0.00158     0.38188
      H   20    0.11927      0.00000     0.37972    0.00101     0.38073
      H   21    0.11588      0.00000     0.37814    0.00598     0.38412
      H   22    0.11351      0.00000     0.38503    0.00146     0.38649
      H   23    0.11009      0.00000     0.38774    0.00217     0.38991
      H   24    0.10749      0.00000     0.38592    0.00659     0.39251
      H   25    0.20501      0.00000     0.29067    0.00432     0.29499
      H   26    0.24722      0.00000     0.24646    0.00632     0.25278
      H   27    0.23441      0.00000     0.26187    0.00372     0.26559
 =======================================================================
   * Total *    0.00000     17.99541    40.72735    0.27724    59.00000

 Normal termination of Gaussian 16 at Thu Dec 10 09:54:18 2020.
