 Gaussian 16, Revision A.03,

 -----------------------------------------------------------
 # opt freq B3LYP/6-31G(d) empiricaldispersion=gd3bj scf=xqc
 -----------------------------------------------------------

 --------------------------------
 CID_114764812_JID_10539_neutraal
 --------------------------------
 Symbolic Z-matrix:
 Charge =  0 Multiplicity = 1

 SCF Done:  E(RB3LYP) =  -1299.98186314     A.U. after   15 cycles
 SCF Done:  E(RB3LYP) =  -1299.97826225     A.U. after   14 cycles
 SCF Done:  E(RB3LYP) =  -1299.98600130     A.U. after   13 cycles
 SCF Done:  E(RB3LYP) =  -1299.98537226     A.U. after   14 cycles
 SCF Done:  E(RB3LYP) =  -1299.98949981     A.U. after   12 cycles
 SCF Done:  E(RB3LYP) =  -1299.99027944     A.U. after   11 cycles
 SCF Done:  E(RB3LYP) =  -1299.99048670     A.U. after   12 cycles
 SCF Done:  E(RB3LYP) =  -1299.99068366     A.U. after   11 cycles
 SCF Done:  E(RB3LYP) =  -1299.99089744     A.U. after   12 cycles
 SCF Done:  E(RB3LYP) =  -1299.99054665     A.U. after   14 cycles
 SCF Done:  E(RB3LYP) =  -1299.99176640     A.U. after    9 cycles
 SCF Done:  E(RB3LYP) =  -1299.99176647     A.U. after    9 cycles
 SCF Done:  E(RB3LYP) =  -1299.99176657     A.U. after    8 cycles
 SCF Done:  E(RB3LYP) =  -1299.99176659     A.U. after    7 cycles
 SCF Done:  E(RB3LYP) =  -1299.99176659     A.U. after    7 cycles
 Optimization completed.
    -- Stationary point found.
 Normal termination of Gaussian 16 at Sat Dec 12 16:09:32 2020.

 --------------------------------------------------------------------
 #N Geom=AllCheck Guess=TCheck SCRF=Check GenChk RB3LYP/6-31G(d) Freq
 --------------------------------------------------------------------

 Structure from the checkpoint file:  "JID_10539.chk"
 --------------------------------
 CID_114764812_JID_10539_neutraal
 --------------------------------
 Charge =  0 Multiplicity = 1

 SCF Done:  E(RB3LYP) =  -1299.99176659     A.U. after    1 cycles

  Exact polarizability: 213.185 -16.491 172.489  15.985  15.184 146.633
 Approx polarizability: 284.174 -31.060 271.566  26.486  39.716 240.515

                      1                      2                      3
                      A                      A                      A
 Frequencies --     14.7812                26.7323                45.3682
 Red. masses --      4.6815                 3.8737                 3.2425
 Frc consts  --      0.0006                 0.0016                 0.0039
 IR Inten    --      2.9230                 0.1657                 3.2362

                      4                      5                      6
                      A                      A                      A
 Frequencies --     47.8873                73.8401               107.8201
 Red. masses --      4.4817                 4.7695                 4.0356
 Frc consts  --      0.0061                 0.0153                 0.0276
 IR Inten    --      2.3871                 1.0995                 0.1050

                      7                      8                      9
                      A                      A                      A
 Frequencies --    137.9434               147.3485               165.6353
 Red. masses --      3.7670                 3.3676                 1.8318
 Frc consts  --      0.0422                 0.0431                 0.0296
 IR Inten    --      5.6188                 0.2035                 0.6431

                     10                     11                     12
                      A                      A                      A
 Frequencies --    169.5787               185.9337               221.6068
 Red. masses --      2.4106                 2.7284                 6.5297
 Frc consts  --      0.0408                 0.0556                 0.1889
 IR Inten    --      1.2730                 5.7961                 8.2364

                     13                     14                     15
                      A                      A                      A
 Frequencies --    254.4533               258.5278               267.7272
 Red. masses --      4.9385                 3.4949                 3.6331
 Frc consts  --      0.1884                 0.1376                 0.1534
 IR Inten    --      0.9043                 4.5520                 4.8701

                     16                     17                     18
                      A                      A                      A
 Frequencies --    279.1894               324.6323               340.0273
 Red. masses --      4.6708                 2.5949                 4.4211
 Frc consts  --      0.2145                 0.1611                 0.3012
 IR Inten    --      0.4084                 0.6463                 3.5081

                     19                     20                     21
                      A                      A                      A
 Frequencies --    358.4694               367.3785               389.8692
 Red. masses --      2.7716                 3.1380                 4.8811
 Frc consts  --      0.2098                 0.2495                 0.4371
 IR Inten    --      3.9470                 2.4383                24.7726

                     22                     23                     24
                      A                      A                      A
 Frequencies --    433.7509               453.3192               479.8333
 Red. masses --      2.5786                 3.4835                 4.3078
 Frc consts  --      0.2858                 0.4218                 0.5844
 IR Inten    --      5.1580                 7.8714                12.4008

                     25                     26                     27
                      A                      A                      A
 Frequencies --    488.1715               498.0620               515.2737
 Red. masses --      1.8745                 6.8779                 5.7436
 Frc consts  --      0.2632                 1.0053                 0.8985
 IR Inten    --      0.7919                32.3562                 3.9360

                     28                     29                     30
                      A                      A                      A
 Frequencies --    538.6451               568.2546               588.8896
 Red. masses --      5.1506                 5.2895                 5.0069
 Frc consts  --      0.8805                 1.0063                 1.0230
 IR Inten    --     18.9935                 4.1928                42.9108

                     31                     32                     33
                      A                      A                      A
 Frequencies --    608.4126               612.0028               641.5671
 Red. masses --      2.6014                 2.0832                 3.6618
 Frc consts  --      0.5673                 0.4597                 0.8880
 IR Inten    --     51.0647                42.6974                 8.7010

                     34                     35                     36
                      A                      A                      A
 Frequencies --    666.4419               730.1789               747.7506
 Red. masses --      1.1488                 2.7457                 4.3011
 Frc consts  --      0.3006                 0.8625                 1.4169
 IR Inten    --    151.0290                28.2963                13.1455

                     37                     38                     39
                      A                      A                      A
 Frequencies --    765.7624               789.0365               795.9783
 Red. masses --      3.3033                 3.2062                 1.6982
 Frc consts  --      1.1413                 1.1761                 0.6339
 IR Inten    --     19.0118                 1.6613                27.2559

                     40                     41                     42
                      A                      A                      A
 Frequencies --    804.4514               844.6891               849.5242
 Red. masses --      1.4889                 2.2305                 1.9288
 Frc consts  --      0.5677                 0.9377                 0.8201
 IR Inten    --      0.7732                 2.3691                21.5134

                     43                     44                     45
                      A                      A                      A
 Frequencies --    857.2772               879.7266               896.2922
 Red. masses --      2.4312                 2.3237                 1.4190
 Frc consts  --      1.0527                 1.0595                 0.6717
 IR Inten    --     13.8468                 0.4350                 2.9200

                     46                     47                     48
                      A                      A                      A
 Frequencies --    914.2109               931.1111               956.2228
 Red. masses --      3.8761                 1.7324                 1.4097
 Frc consts  --      1.9087                 0.8849                 0.7594
 IR Inten    --    193.6268                25.2335                12.8338

                     49                     50                     51
                      A                      A                      A
 Frequencies --    957.3492               986.0473               991.5898
 Red. masses --      1.2480                 4.7412                 1.9845
 Frc consts  --      0.6739                 2.7160                 1.1496
 IR Inten    --      0.3751                23.7193                 3.6096

                     52                     53                     54
                      A                      A                      A
 Frequencies --   1045.1924              1049.8301              1061.9945
 Red. masses --      2.2868                 1.9344                 1.6895
 Frc consts  --      1.4719                 1.2561                 1.1227
 IR Inten    --      1.4106                 0.3165                 5.1522

                     55                     56                     57
                      A                      A                      A
 Frequencies --   1084.6924              1093.2301              1097.0158
 Red. masses --      4.6197                 2.3969                 3.6758
 Frc consts  --      3.2024                 1.6878                 2.6063
 IR Inten    --    152.0927                70.4819                71.9899

                     58                     59                     60
                      A                      A                      A
 Frequencies --   1106.8781              1146.1606              1154.5461
 Red. masses --      1.9553                 1.0633                 1.3795
 Frc consts  --      1.4114                 0.8230                 1.0834
 IR Inten    --     16.4394                 1.3720                21.2647

                     61                     62                     63
                      A                      A                      A
 Frequencies --   1175.3423              1186.1007              1189.1503
 Red. masses --      1.8351                 1.1709                 1.2623
 Frc consts  --      1.4936                 0.9706                 1.0517
 IR Inten    --      0.4353                 4.3931                 3.0730

                     64                     65                     66
                      A                      A                      A
 Frequencies --   1216.9707              1225.5430              1240.1770
 Red. masses --      1.4337                 1.4429                 2.4142
 Frc consts  --      1.2510                 1.2768                 2.1877
 IR Inten    --      1.9894                17.3114                31.7091

                     67                     68                     69
                      A                      A                      A
 Frequencies --   1261.1104              1287.4644              1288.4733
 Red. masses --      2.1309                 2.2365                 1.4357
 Frc consts  --      1.9967                 2.1841                 1.4043
 IR Inten    --    151.8343                44.4740                11.4868

                     70                     71                     72
                      A                      A                      A
 Frequencies --   1296.8511              1305.1473              1311.1213
 Red. masses --      3.7761                 1.2898                 1.2250
 Frc consts  --      3.7417                 1.2945                 1.2407
 IR Inten    --     50.0912                 4.5884                 3.3111

                     73                     74                     75
                      A                      A                      A
 Frequencies --   1317.1670              1344.8871              1363.8465
 Red. masses --      1.5826                 4.5521                 1.5289
 Frc consts  --      1.6178                 4.8510                 1.6756
 IR Inten    --     25.9538               122.1311                 6.3468

                     76                     77                     78
                      A                      A                      A
 Frequencies --   1369.9797              1390.4301              1391.6546
 Red. masses --      1.3578                 1.4747                 1.5011
 Frc consts  --      1.5015                 1.6798                 1.7128
 IR Inten    --      0.2430                36.0494                 1.6026

                     79                     80                     81
                      A                      A                      A
 Frequencies --   1400.4181              1405.4020              1409.3367
 Red. masses --      1.4321                 1.4374                 1.4388
 Frc consts  --      1.6548                 1.6728                 1.6838
 IR Inten    --      0.6887                 4.0293                 2.4740

                     82                     83                     84
                      A                      A                      A
 Frequencies --   1426.8346              1436.4736              1489.6477
 Red. masses --      1.4282                 1.4899                 1.0956
 Frc consts  --      1.7131                 1.8113                 1.4325
 IR Inten    --      8.7892                84.0519                 9.0254

                     85                     86                     87
                      A                      A                      A
 Frequencies --   1498.2744              1514.2257              1515.0198
 Red. masses --      1.2963                 1.0951                 1.3105
 Frc consts  --      1.7145                 1.4795                 1.7722
 IR Inten    --     38.3013                 3.7620                13.5993

                     88                     89                     90
                      A                      A                      A
 Frequencies --   1517.1766              1519.9908              1527.2598
 Red. masses --      1.0893                 1.9263                 1.0946
 Frc consts  --      1.4774                 2.6222                 1.5042
 IR Inten    --      1.1244                89.8905                 5.0720

                     91                     92                     93
                      A                      A                      A
 Frequencies --   1530.3611              1533.1211              1535.9251
 Red. masses --      1.1217                 1.0850                 2.3244
 Frc consts  --      1.5478                 1.5026                 3.2308
 IR Inten    --     20.5723                11.7087                22.9706

                     94                     95                     96
                      A                      A                      A
 Frequencies --   1542.3479              1648.1810              1661.1608
 Red. masses --      1.0969                 6.5083                 6.3948
 Frc consts  --      1.5374                10.4166                10.3968
 IR Inten    --      1.8804                45.1178                 6.1857

                     97                     98                     99
                      A                      A                      A
 Frequencies --   3023.6389              3034.5687              3037.1739
 Red. masses --      1.0684                 1.0629                 1.0642
 Frc consts  --      5.7551                 5.7668                 5.7837
 IR Inten    --     21.3361                23.3100                19.6712

                    100                    101                    102
                      A                      A                      A
 Frequencies --   3037.4964              3039.8421              3048.5873
 Red. masses --      1.0324                 1.0722                 1.0616
 Frc consts  --      5.6124                 5.8377                 5.8130
 IR Inten    --     39.6445                18.9572                19.5099

                    103                    104                    105
                      A                      A                      A
 Frequencies --   3070.6058              3072.4384              3078.1576
 Red. masses --      1.0855                 1.0992                 1.0924
 Frc consts  --      6.0299                 6.1133                 6.0982
 IR Inten    --     32.4994                36.6630                51.7688

                    106                    107                    108
                      A                      A                      A
 Frequencies --   3081.5462              3085.8165              3089.5993
 Red. masses --      1.1009                 1.0698                 1.0987
 Frc consts  --      6.1594                 6.0022                 6.1791
 IR Inten    --     33.4178                 3.4686                87.8846

                    109                    110                    111
                      A                      A                      A
 Frequencies --   3104.3809              3114.7397              3156.8913
 Red. masses --      1.1070                 1.0907                 1.1011
 Frc consts  --      6.2854                 6.2342                 6.4652
 IR Inten    --     31.9007                48.7333                 0.8964

                    112                    113                    114
                      A                      A                      A
 Frequencies --   3160.1157              3200.5088              3217.7282
 Red. masses --      1.1029                 1.0870                 1.0920
 Frc consts  --      6.4891                 6.5600                 6.6614
 IR Inten    --     26.3404                 6.1746                 9.0467

                    115                    116                    117
                      A                      A                      A
 Frequencies --   3225.5915              3518.9314              3540.3645
 Red. masses --      1.0958                 1.0737                 1.0661
 Frc consts  --      6.7174                 7.8334                 7.8729
 IR Inten    --      9.2681                59.9817               258.3842

 - Thermochemistry -
 -------------------
 Temperature   298.150 Kelvin.  Pressure   1.00000 Atm.
 Atom     1 has atomic number  6 and mass  12.00000

 Molecular mass:   299.11913 amu.
 Principal axes and moments of inertia in atomic units:
                           1         2         3
     Eigenvalues --  3593.968958678.579339340.92448
           X            0.99986   0.01617  -0.00308
           Y           -0.01604   0.99918   0.03726
           Z            0.00368  -0.03720   0.99930
 This molecule is an asymmetric top.
 Rotational symmetry number  1.
 Warning -- assumption of classical behavior for rotation
           may cause significant error
 Rotational temperatures (Kelvin)      0.02410     0.00998     0.00927
 Rotational constants (GHZ):           0.50216     0.20795     0.19321
 Zero-point vibrational energy     909313.9 (Joules/Mol)
                                  217.33123 (Kcal/Mol)
 Warning -- explicit consideration of  32 degrees of freedom as
           vibrations may cause significant error
 Vibrational temperatures:     21.27    38.46    65.27    68.90   106.24
          (Kelvin)            155.13   198.47   212.00   238.31   243.99
                              267.52   318.84   366.10   371.96   385.20
                              401.69   467.07   489.22   515.76   528.58
                              560.93   624.07   652.23   690.37   702.37
                              716.60   741.36   774.99   817.59   847.28
                              875.37   880.54   923.07   958.86  1050.56
                             1075.85  1101.76  1135.25  1145.24  1157.43
                             1215.32  1222.28  1233.43  1265.73  1289.56
                             1315.35  1339.66  1375.79  1377.41  1418.70
                             1426.68  1503.80  1510.47  1527.97  1560.63
                             1572.91  1578.36  1592.55  1649.07  1661.13
                             1691.06  1706.53  1710.92  1750.95  1763.28
                             1784.34  1814.46  1852.37  1853.83  1865.88
                             1877.82  1886.41  1895.11  1934.99  1962.27
                             1971.10  2000.52  2002.28  2014.89  2022.06
                             2027.72  2052.90  2066.77  2143.27  2155.68
                             2178.63  2179.78  2182.88  2186.93  2197.39
                             2201.85  2205.82  2209.85  2219.09  2371.36
                             2390.04  4350.34  4366.07  4369.82  4370.28
                             4373.65  4386.24  4417.92  4420.55  4428.78
                             4433.66  4439.80  4445.24  4466.51  4481.42
                             4542.06  4546.70  4604.82  4629.59  4640.91
                             5062.96  5093.79

 Zero-point correction=                           0.346339 (Hartree/Particle)
 Thermal correction to Energy=                    0.365650
 Thermal correction to Enthalpy=                  0.366595
 Thermal correction to Gibbs Free Energy=         0.297149
 Sum of electronic and zero-point Energies=          -1299.645427
 Sum of electronic and thermal Energies=             -1299.626116
 Sum of electronic and thermal Enthalpies=           -1299.625172
 Sum of electronic and thermal Free Energies=        -1299.694617

                     E (Thermal)             CV                S
                      KCal/Mol        Cal/Mol-Kelvin    Cal/Mol-Kelvin
 Total                  229.449             75.087            146.160
 Electronic               0.000              0.000              0.000
 Translational            0.889              2.981             42.984
 Rotational               0.889              2.981             34.032
 Vibrational            227.672             69.125             69.144
 Vibration     1          0.593              1.986              7.235
 Vibration     2          0.593              1.984              6.058
 Vibration     3          0.595              1.979              5.010
 Vibration     4          0.595              1.978              4.903
 Vibration     5          0.599              1.966              4.048
 Vibration     6          0.606              1.943              3.308
 Vibration     7          0.614              1.915              2.832
 Vibration     8          0.617              1.906              2.706
 Vibration     9          0.624              1.885              2.484
 Vibration    10          0.625              1.880              2.440
 Vibration    11          0.632              1.859              2.268
 Vibration    12          0.648              1.808              1.946
 Vibration    13          0.665              1.755              1.700
 Vibration    14          0.667              1.748              1.672
 Vibration    15          0.673              1.732              1.611
 Vibration    16          0.680              1.712              1.539
 Vibration    17          0.709              1.626              1.287
 Vibration    18          0.720              1.596              1.212
 Vibration    19          0.733              1.558              1.129
 Vibration    20          0.740              1.539              1.091
 Vibration    21          0.758              1.492              1.001
 Vibration    22          0.794              1.397              0.846
 Vibration    23          0.812              1.354              0.786
 Vibration    24          0.836              1.295              0.711
 Vibration    25          0.844              1.276              0.688
 Vibration    26          0.854              1.254              0.663
 Vibration    27          0.870              1.216              0.621
 Vibration    28          0.894              1.165              0.568
 Vibration    29          0.924              1.100              0.508
 Vibration    30          0.946              1.055              0.469
 Vibration    31          0.967              1.014              0.435
 Vibration    32          0.971              1.006              0.429

                           ! Non-Optimized Parameters !
 Normal termination of Gaussian 16 at Sat Dec 12 16:31:49 2020.

 ----------------------------------------------------------------------
 # B3LYP/6-311++G(d,p) empiricaldispersion=gd3bj scf=xqc pop=npa geom=c
 heck
 ----------------------------------------------------------------------

 ----------------------------------------
 CID_114764812_JID_10539_Energie_neutraal
 ----------------------------------------
 Structure from the checkpoint file:  "JID_10539.chk"
 Charge =  0 Multiplicity = 1

 SCF Done:  E(RB3LYP) =  -1300.27798000     A.U. after   16 cycles
 Normal termination of Gaussian 16 at Sat Dec 12 16:41:26 2020.

 ----------------------------------------------------------------------
 # B3LYP/6-311++G(d,p) empiricaldispersion=gd3bj scf=xqc pop=npa geom=c
 heck
 ----------------------------------------------------------------------

 --------------------------------------
 CID_114764812_JID_10539_Energie_kation
 --------------------------------------
 Structure from the checkpoint file:  "JID_10539.chk"
 Charge =  1 Multiplicity = 2

 SCF Done:  E(UB3LYP) =  -1299.97737790     A.U. after   25 cycles
 Normal termination of Gaussian 16 at Sat Dec 12 17:01:45 2020.
 Gaussian 16:  ES64L-G16RevA.03 25-Dec-2016

 ----------------------------------------------------------------------
 # B3LYP/6-311++G(d,p) empiricaldispersion=gd3bj scf=xqc pop=npa geom=c
 heck
 ----------------------------------------------------------------------

 -------------------------------------
 CID_114764812_JID_10539_Energie_anion
 -------------------------------------
 Structure from the checkpoint file:  "JID_10539.chk"
 Charge = -1 Multiplicity = 2

                         Standard orientation:
 ---------------------------------------------------------------------
 Center     Atomic      Atomic             Coordinates (Angstroms)
 Number     Number       Type             X           Y           Z
 ---------------------------------------------------------------------
      1          6           0       -3.279456   -2.249208   -1.128836
      2          8           0       -2.721516   -1.059014   -1.702948
      3          6           0       -2.807268    0.043019   -0.868497
      4          6           0       -3.926306    0.868712   -0.879366
      5          6           0       -3.951095    1.990799   -0.050509
      6          6           0       -2.874252    2.267693    0.790134
      7          6           0       -1.743641    1.449414    0.792002
      8          6           0       -1.698082    0.332444   -0.058155
      9          7           0       -0.542544   -0.469172   -0.244439
     10         16           0        0.283353   -1.233530    1.021616
     11          8           0       -0.401269   -0.881316    2.283602
     12          8           0        0.471149   -2.633757    0.632310
     13          6           0        1.878958   -0.386030    1.068332
     14          6           0        2.898335   -0.814845    0.005482
     15          6           0        2.462786   -0.549300   -1.448087
     16          6           0        2.356923    0.947311   -1.765224
     17          6           0        3.684395    1.663548   -1.477086
     18          6           0        4.164120    1.414007   -0.039863
     19          6           0        4.233909   -0.087760    0.278560
     20          8           0       -0.691479    1.763417    1.616770
     21          1           0       -2.739728   -2.539645   -0.218588
     22          1           0       -3.174947   -3.032036   -1.882540
     23          1           0       -4.339189   -2.103561   -0.889203
     24          1           0       -4.752373    0.627315   -1.540046
     25          1           0       -4.818109    2.644036   -0.049660
     26          1           0       -2.881597    3.122214    1.458203
     27          1           0       -0.679540   -1.126115   -1.011063
     28          1           0        1.620852    0.674405    1.033405
     29          1           0        2.254286   -0.614444    2.071637
     30          1           0        3.051476   -1.892678    0.131805
     31          1           0        3.220583   -1.000735   -2.103110
     32          1           0        1.523839   -1.062408   -1.672581
     33          1           0        1.549992    1.396644   -1.172081
     34          1           0        2.075401    1.082629   -2.816344
     35          1           0        3.585517    2.740167   -1.660508
     36          1           0        4.448227    1.293887   -2.176864
     37          1           0        3.484569    1.915419    0.662787
     38          1           0        5.150487    1.867510    0.115161
     39          1           0        4.546990   -0.245204    1.318747
     40          1           0        5.003329   -0.551286   -0.353362
     41          1           0       -0.516932    0.971107    2.168227
 ---------------------------------------------------------------------

 SCF Done:  E(UB3LYP) =  -1300.26739006     A.U. after   33 cycles
 SCF Done:  E(UB3LYP) =  -1300.26739006     a.u. after    1 cycles

 The electronic state is 2-A.
 Alpha  occ. eigenvalues --  -88.98830 -19.06766 -19.05758 -19.04777 -19.04452
 Alpha  occ. eigenvalues --  -14.27357 -10.15509 -10.15078 -10.14071 -10.13801
 Alpha  occ. eigenvalues --  -10.12655 -10.09998 -10.09745 -10.09421 -10.09129
 Alpha  occ. eigenvalues --  -10.08017 -10.07816 -10.07601 -10.07435 -10.07413
 Alpha  occ. eigenvalues --   -8.05064  -6.01386  -6.01317  -6.01064  -1.04598
 Alpha  occ. eigenvalues --   -0.98246  -0.97137  -0.93683  -0.86179  -0.77065
 Alpha  occ. eigenvalues --   -0.76039  -0.70382  -0.67462  -0.66511  -0.65562
 Alpha  occ. eigenvalues --   -0.63777  -0.61291  -0.57275  -0.53096  -0.52672
 Alpha  occ. eigenvalues --   -0.52315  -0.51140  -0.48008  -0.46525  -0.45843
 Alpha  occ. eigenvalues --   -0.43671  -0.42615  -0.40813  -0.40388  -0.40111
 Alpha  occ. eigenvalues --   -0.38929  -0.38411  -0.37382  -0.37154  -0.36148
 Alpha  occ. eigenvalues --   -0.35591  -0.34734  -0.34397  -0.33545  -0.31314
 Alpha  occ. eigenvalues --   -0.31083  -0.29551  -0.29422  -0.28872  -0.28557
 Alpha  occ. eigenvalues --   -0.28098  -0.27636  -0.27295  -0.25744  -0.25328
 Alpha  occ. eigenvalues --   -0.24702  -0.23992  -0.23354  -0.22992  -0.22707
 Alpha  occ. eigenvalues --   -0.21607  -0.21305  -0.20823  -0.16121  -0.14786
 Alpha  occ. eigenvalues --    0.03862
 Alpha virt. eigenvalues --    0.05195   0.06266   0.06546   0.06995   0.07081
 Alpha virt. eigenvalues --    0.07353   0.07546   0.08279   0.08925   0.09465
 Alpha virt. eigenvalues --    0.09960   0.10029   0.10391   0.10518   0.11144

  Beta  occ. eigenvalues --  -88.98821 -19.06769 -19.05755 -19.04763 -19.04433
  Beta  occ. eigenvalues --  -14.27337 -10.15518 -10.15049 -10.14041 -10.13756
  Beta  occ. eigenvalues --  -10.12634 -10.09994 -10.09720 -10.09417 -10.09097
  Beta  occ. eigenvalues --  -10.07989 -10.07803 -10.07583 -10.07424 -10.07400
  Beta  occ. eigenvalues --   -8.05051  -6.01377  -6.01310  -6.01054  -1.04554
  Beta  occ. eigenvalues --   -0.98230  -0.97132  -0.93640  -0.86139  -0.77021
  Beta  occ. eigenvalues --   -0.76008  -0.70346  -0.67398  -0.66469  -0.65526
  Beta  occ. eigenvalues --   -0.63736  -0.61225  -0.57237  -0.53042  -0.52636
  Beta  occ. eigenvalues --   -0.52267  -0.51103  -0.47982  -0.46489  -0.45795
  Beta  occ. eigenvalues --   -0.43636  -0.42582  -0.40788  -0.40345  -0.40074
  Beta  occ. eigenvalues --   -0.38899  -0.38355  -0.37356  -0.37122  -0.36114
  Beta  occ. eigenvalues --   -0.35565  -0.34712  -0.34366  -0.33517  -0.31280
  Beta  occ. eigenvalues --   -0.31042  -0.29520  -0.29383  -0.28828  -0.28518
  Beta  occ. eigenvalues --   -0.28065  -0.27603  -0.27256  -0.25711  -0.25304
  Beta  occ. eigenvalues --   -0.24672  -0.23932  -0.23321  -0.22967  -0.22677
  Beta  occ. eigenvalues --   -0.21571  -0.21270  -0.20808  -0.15996  -0.14685
  Beta virt. eigenvalues --    0.05718   0.06122   0.06539   0.06854   0.07237
  Beta virt. eigenvalues --    0.07500   0.07727   0.07996   0.08549   0.09351
  Beta virt. eigenvalues --    0.09716   0.10198   0.10235   0.10649   0.10763

 Mulliken charges and spin densities:
               1          2
     1  C    0.445317  -0.768096
     2  O   -0.194889   0.025200
     3  C   -0.460968   0.267401
     4  C   -0.096749  -0.160758
     5  C    0.351115  -0.543033
     6  C   -0.226793  -0.047569
     7  C   -0.401254   0.114155
     8  C   -0.020674   0.263244
     9  N   -0.010478  -0.030669
    10  S    0.861148  -0.729412
    11  O   -0.158613   0.011764
    12  O   -0.094968   0.033705
    13  C   -0.236240  -0.646153
    14  C   -0.481282   0.881717
    15  C    0.034709  -0.326880
    16  C   -0.556657   0.435546
    17  C    0.766355  -1.398443
    18  C   -0.174380  -0.027093
    19  C    0.462941  -1.000549
    20  O   -0.175328   0.002214
    21  H    0.091583   0.103774
    22  H   -0.226887   0.395824
    23  H   -0.220427   0.350322
    24  H   -0.289318   0.475020
    25  H   -0.013498   0.168572
    26  H    0.097565   0.073250
    27  H    0.482054  -0.123535
    28  H    0.521999  -0.256482
    29  H    0.077059   0.180429
    30  H    0.108956   0.159650
    31  H   -0.185327   0.372639
    32  H   -0.104671   0.265287
    33  H    0.107790   0.053909
    34  H    0.052234   0.121730
    35  H   -0.026109   0.185409
    36  H   -0.094425   0.233510
    37  H   -0.046484   0.171911
    38  H   -0.434238   0.627844
    39  H   -0.323411   0.478606
    40  H   -0.340755   0.506548
    41  H    0.133996   0.099491
 Sum of Mulliken charges =  -1.00000   1.00000

 Dipole moment (field-independent basis, Debye):
    X=             -3.9537    Y=              1.7048    Z=              1.3437  Tot=              4.5104
 Quadrupole moment (field-independent basis, Debye-Ang):
   XX=           -230.7520   YY=           -174.8871   ZZ=           -170.9270
   XY=             -8.5374   XZ=             -2.5878   YZ=              0.0480

 Summary of Natural Population Analysis:

                                       Natural Population
                Natural  -----------------------------------------------
    Atom  No    Charge         Core      Valence    Rydberg      Total
 -----------------------------------------------------------------------
      C    1   -0.09784      0.99959     2.08927    0.00898     3.09784
      O    2   -0.29657      0.99987     3.28692    0.00978     4.29657
      C    3    0.15113      0.99933     1.83599    0.01355     2.84887
      C    4   -0.12514      0.99951     2.11595    0.00968     3.12514
      C    5   -0.09660      0.99958     2.08785    0.00916     3.09660
      C    6   -0.11612      0.99953     2.10743    0.00916     3.11612
      C    7    0.14910      0.99935     1.83903    0.01253     2.85090
      C    8    0.03803      0.99937     1.94979    0.01281     2.96197
      N    9   -0.42796      0.99969     2.91633    0.01195     3.92796
      S   10    1.10062      4.99926     1.80356    0.09656     6.89938
      O   11   -0.47605      0.99990     3.47086    0.00529     4.47605
      O   12   -0.45427      0.99991     3.44882    0.00554     4.45427
      C   13   -0.28850      0.99954     2.27423    0.01474     3.28850
      C   14   -0.12126      0.99958     2.10964    0.01204     3.12126
      C   15   -0.18925      0.99961     2.18062    0.00902     3.18925
      C   16   -0.19432      0.99963     2.18629    0.00841     3.19432
      C   17   -0.18923      0.99963     2.18166    0.00794     3.18923
      C   18   -0.19233      0.99963     2.18389    0.00881     3.19233
      C   19   -0.18709      0.99961     2.17734    0.01014     3.18709
      O   20   -0.36420      0.99987     3.35711    0.00721     4.36420
      H   21    0.08622      0.00000     0.41237    0.00142     0.41378
      H   22    0.09386      0.00000     0.40468    0.00146     0.40614
      H   23    0.08501      0.00000     0.41354    0.00146     0.41499
      H   24    0.10776      0.00000     0.39108    0.00116     0.39224
      H   25    0.10054      0.00000     0.39866    0.00080     0.39946
      H   26    0.10598      0.00000     0.39310    0.00092     0.39402
      H   27    0.21153      0.00000     0.28516    0.00331     0.28847
      H   28    0.12257      0.00000     0.37579    0.00164     0.37743
      H   29    0.12014      0.00000     0.37883    0.00104     0.37986
      H   30    0.10957      0.00000     0.38878    0.00165     0.39043
      H   31    0.09996      0.00000     0.39880    0.00123     0.40004
      H   32    0.09948      0.00000     0.39888    0.00164     0.40052
      H   33    0.09703      0.00000     0.40138    0.00159     0.40297
      H   34    0.10016      0.00000     0.39899    0.00085     0.39984
      H   35    0.09836      0.00000     0.40079    0.00084     0.40164
      H   36    0.09394      0.00000     0.40474    0.00133     0.40606
      H   37    0.09135      0.00000     0.40731    0.00134     0.40865
      H   38    0.10287      0.00000     0.39576    0.00137     0.39713
      H   39    0.10068      0.00000     0.39791    0.00141     0.39932
      H   40    0.10203      0.00000     0.39624    0.00173     0.39797
      H   41    0.24881      0.00000     0.24752    0.00367     0.25119
 =======================================================================
   * Total *   -0.00000     23.99197    55.69290    0.31513    80.00000

 Normal termination of Gaussian 16 at Sat Dec 12 17:28:21 2020.
