 Gaussian 16, Revision A.03,

 -----------------------------------------------------------
 # opt freq B3LYP/6-31G(d) empiricaldispersion=gd3bj scf=xqc
 -----------------------------------------------------------

 ------------------------------
 CID_17870196_JID_6467_neutraal
 ------------------------------
 Symbolic Z-matrix:
 Charge =  0 Multiplicity = 1

 SCF Done:  E(RB3LYP) =  -1337.09837363     A.U. after   15 cycles
 SCF Done:  E(RB3LYP) =  -1337.10448722     A.U. after   12 cycles
 SCF Done:  E(RB3LYP) =  -1337.10655839     A.U. after   13 cycles
 SCF Done:  E(RB3LYP) =  -1337.10800031     A.U. after   14 cycles
 SCF Done:  E(RB3LYP) =  -1337.10821734     A.U. after   12 cycles
 SCF Done:  E(RB3LYP) =  -1337.10826414     A.U. after   10 cycles
 SCF Done:  E(RB3LYP) =  -1337.10826871     A.U. after    9 cycles
 SCF Done:  E(RB3LYP) =  -1337.10826945     A.U. after    8 cycles
 SCF Done:  E(RB3LYP) =  -1337.10826956     A.U. after    7 cycles
 Optimization completed.
    -- Stationary point found.
 Normal termination of Gaussian 16 at Thu Dec 10 22:57:32 2020.

 --------------------------------------------------------------------
 #N Geom=AllCheck Guess=TCheck SCRF=Check GenChk RB3LYP/6-31G(d) Freq
 --------------------------------------------------------------------

 Structure from the checkpoint file:  "JID_6467.chk"
 ------------------------------
 CID_17870196_JID_6467_neutraal
 ------------------------------
 Charge =  0 Multiplicity = 1

 SCF Done:  E(RB3LYP) =  -1337.10826956     A.U. after    1 cycles

  Exact polarizability: 228.311  18.016 175.397 -21.277  13.009 121.339
 Approx polarizability: 321.839  36.802 325.713 -47.272  34.590 210.272

                      1                      2                      3
                      A                      A                      A
 Frequencies --     34.2590                37.6737                94.6520
 Red. masses --      5.9200                 5.7119                 4.5384
 Frc consts  --      0.0041                 0.0048                 0.0240
 IR Inten    --      0.7109                 0.7470                 0.4346

                      4                      5                      6
                      A                      A                      A
 Frequencies --    105.0470               141.8386               189.7388
 Red. masses --      4.0702                 4.4233                 4.2229
 Frc consts  --      0.0265                 0.0524                 0.0896
 IR Inten    --      0.1841                 0.2094                 0.7737

                      7                      8                      9
                      A                      A                      A
 Frequencies --    229.2766               250.8154               276.7901
 Red. masses --      4.5366                 5.3805                 5.6710
 Frc consts  --      0.1405                 0.1994                 0.2560
 IR Inten    --      0.2499                 0.7028                 1.5345

                     10                     11                     12
                      A                      A                      A
 Frequencies --    317.4866               336.9707               351.9766
 Red. masses --      4.8797                 4.4115                 5.1269
 Frc consts  --      0.2898                 0.2951                 0.3742
 IR Inten    --      1.1680                 1.5778                 2.5246

                     13                     14                     15
                      A                      A                      A
 Frequencies --    409.0475               415.4616               459.5408
 Red. masses --      4.4308                 3.2968                 3.4659
 Frc consts  --      0.4368                 0.3353                 0.4312
 IR Inten    --      0.7406                 1.0622                 5.3722

                     16                     17                     18
                      A                      A                      A
 Frequencies --    477.6710               509.8739               545.9084
 Red. masses --      4.7831                 3.4336                 5.2381
 Frc consts  --      0.6430                 0.5259                 0.9197
 IR Inten    --      0.9697                 4.0405                 1.5968

                     19                     20                     21
                      A                      A                      A
 Frequencies --    571.9123               621.1501               654.4421
 Red. masses --      5.6237                 5.3199                 4.5480
 Frc consts  --      1.0838                 1.2093                 1.1477
 IR Inten    --      6.2694                 9.0550                 1.6398

                     22                     23                     24
                      A                      A                      A
 Frequencies --    663.6923               684.1539               692.6441
 Red. masses --      2.6774                 1.4408                 5.2946
 Frc consts  --      0.6949                 0.3973                 1.4966
 IR Inten    --     17.3098                43.1720                 1.3105

                     25                     26                     27
                      A                      A                      A
 Frequencies --    729.7939               757.5762               770.8349
 Red. masses --      5.7661                 2.3536                 1.7285
 Frc consts  --      1.8094                 0.7958                 0.6051
 IR Inten    --      8.2588                 8.6859                20.4003

                     28                     29                     30
                      A                      A                      A
 Frequencies --    802.2867               805.1642               817.6953
 Red. masses --      3.1579                 4.9245                 2.1401
 Frc consts  --      1.1976                 1.8810                 0.8431
 IR Inten    --      9.7372                 8.5310                41.7965

                     31                     32                     33
                      A                      A                      A
 Frequencies --    835.0498               875.6101               892.4395
 Red. masses --      1.4142                 2.4735                 1.7338
 Frc consts  --      0.5810                 1.1174                 0.8136
 IR Inten    --      8.3897                 5.3200                 7.0464

                     34                     35                     36
                      A                      A                      A
 Frequencies --    921.0496               954.5568               961.6834
 Red. masses --      1.2462                 1.3854                 2.2860
 Frc consts  --      0.6229                 0.7437                 1.2456
 IR Inten    --      0.7748                 2.3638                 2.8429

                     37                     38                     39
                      A                      A                      A
 Frequencies --    979.5064               987.9467              1000.7394
 Red. masses --      3.5780                 1.2766                 1.2734
 Frc consts  --      2.0226                 0.7341                 0.7514
 IR Inten    --      0.7574                 0.2793                 0.7498

                     40                     41                     42
                      A                      A                      A
 Frequencies --   1007.8883              1037.8003              1067.7014
 Red. masses --      1.9347                 3.6697                 4.1567
 Frc consts  --      1.1579                 2.3286                 2.7919
 IR Inten    --      4.0681                 1.2255                 7.1506

                     43                     44                     45
                      A                      A                      A
 Frequencies --   1083.9293              1135.5044              1155.7908
 Red. masses --      2.7941                 1.0747                 1.7507
 Frc consts  --      1.9341                 0.8164                 1.3779
 IR Inten    --      3.2958                 0.5835                 0.6437

                     46                     47                     48
                      A                      A                      A
 Frequencies --   1160.9270              1197.0826              1200.6501
 Red. masses --      1.8020                 1.0943                 1.2245
 Frc consts  --      1.4309                 0.9240                 1.0401
 IR Inten    --      1.6685                 0.1209                12.7728

                     49                     50                     51
                      A                      A                      A
 Frequencies --   1223.7019              1257.2374              1273.0454
 Red. masses --      2.1375                 1.2382                 1.4106
 Frc consts  --      1.8859                 1.1531                 1.3470
 IR Inten    --      0.4753                25.1297                 1.0818

                     52                     53                     54
                      A                      A                      A
 Frequencies --   1304.4707              1305.2375              1330.4609
 Red. masses --      1.3141                 1.4495                 1.2992
 Frc consts  --      1.3175                 1.4549                 1.3550
 IR Inten    --     10.8785                 2.8988                 2.5405

                     55                     56                     57
                      A                      A                      A
 Frequencies --   1344.0334              1357.7637              1404.8396
 Red. masses --      1.6562                 3.7229                 1.5514
 Frc consts  --      1.7627                 4.0437                 1.8039
 IR Inten    --      2.3992                 3.6846                13.6478

                     58                     59                     60
                      A                      A                      A
 Frequencies --   1465.7204              1492.8670              1509.0525
 Red. masses --      1.7519                 1.8659                 1.0996
 Frc consts  --      2.2175                 2.4501                 1.4753
 IR Inten    --      3.8977                 8.0946                 1.6513

                     61                     62                     63
                      A                      A                      A
 Frequencies --   1523.6775              1617.5027              1643.3083
 Red. masses --      2.6322                 5.5464                 6.3551
 Frc consts  --      3.6004                 8.5497                10.1114
 IR Inten    --     13.8951                 0.6227                 7.6249

                     64                     65                     66
                      A                      A                      A
 Frequencies --   1653.1600              1660.8036              1698.1818
 Red. masses --      7.5035                 6.3417                 6.3400
 Frc consts  --     12.0822                10.3060                10.7722
 IR Inten    --      3.4873                20.4849                 3.2135

                     67                     68                     69
                      A                      A                      A
 Frequencies --   3013.1078              3034.9688              3088.5128
 Red. masses --      1.0691                 1.0822                 1.0940
 Frc consts  --      5.7189                 5.8729                 6.1483
 IR Inten    --     19.5252                16.1820                21.8378

                     70                     71                     72
                      A                      A                      A
 Frequencies --   3145.2952              3166.7774              3184.7831
 Red. masses --      1.0838                 1.0921                 1.0864
 Frc consts  --      6.3172                 6.4529                 6.4923
 IR Inten    --      5.0820                23.1115                 4.1309

                     73                     74                     75
                      A                      A                      A
 Frequencies --   3195.2822              3208.1404              3208.5455
 Red. masses --      1.0887                 1.0930                 1.0872
 Frc consts  --      6.5493                 6.6278                 6.5941
 IR Inten    --     10.0667                20.9821                 5.0628

                     76                     77                     78
                      A                      A                      A
 Frequencies --   3212.4660              3217.4866              3239.3798
 Red. masses --      1.0894                 1.0968                 1.1002
 Frc consts  --      6.6238                 6.6899                 6.8019
 IR Inten    --     11.5195                19.9133                14.3053

 - Thermochemistry -
 -------------------
 Temperature   298.150 Kelvin.  Pressure   1.00000 Atm.
 Atom     1 has atomic number  6 and mass  12.00000

 Molecular mass:   244.03804 amu.
 Principal axes and moments of inertia in atomic units:
                           1         2         3
     Eigenvalues --  2061.457626985.800597793.11009
           X            0.99984   0.01787  -0.00215
           Y           -0.01777   0.99909   0.03890
           Z            0.00285  -0.03886   0.99924
 This molecule is an asymmetric top.
 Rotational symmetry number  1.
 Warning -- assumption of classical behavior for rotation
           may cause significant error
 Rotational temperatures (Kelvin)      0.04202     0.01240     0.01111
 Rotational constants (GHZ):           0.87547     0.25834     0.23158
 Zero-point vibrational energy     575350.2 (Joules/Mol)
                                  137.51200 (Kcal/Mol)
 Warning -- explicit consideration of  19 degrees of freedom as
           vibrations may cause significant error
 Vibrational temperatures:     49.29    54.20   136.18   151.14   204.07
          (Kelvin)            272.99   329.88   360.87   398.24   456.79
                              484.83   506.42   588.53   597.76   661.18
                              687.26   733.59   785.44   822.85   893.70
                              941.60   954.91   984.34   996.56  1050.01
                             1089.98  1109.06  1154.31  1158.45  1176.48
                             1201.45  1259.81  1284.02  1325.18  1373.39
                             1383.65  1409.29  1421.43  1439.84  1450.13
                             1493.16  1536.18  1559.53  1633.74  1662.93
                             1670.31  1722.33  1727.47  1760.63  1808.88
                             1831.63  1876.84  1877.95  1914.24  1933.76
                             1953.52  2021.25  2108.84  2147.90  2171.19
                             2192.23  2327.23  2364.35  2378.53  2389.53
                             2443.30  4335.19  4366.64  4443.68  4525.38
                             4556.29  4582.19  4597.30  4615.80  4616.38
                             4622.02  4629.25  4660.74

 Zero-point correction=                           0.219139 (Hartree/Particle)
 Thermal correction to Energy=                    0.232605
 Thermal correction to Enthalpy=                  0.233549
 Thermal correction to Gibbs Free Energy=         0.177806
 Sum of electronic and zero-point Energies=          -1336.889130
 Sum of electronic and thermal Energies=             -1336.875665
 Sum of electronic and thermal Enthalpies=           -1336.874721
 Sum of electronic and thermal Free Energies=        -1336.930463

                     E (Thermal)             CV                S
                      KCal/Mol        Cal/Mol-Kelvin    Cal/Mol-Kelvin
 Total                  145.962             53.680            117.320
 Electronic               0.000              0.000              0.000
 Translational            0.889              2.981             42.377
 Rotational               0.889              2.981             33.084
 Vibrational            144.184             47.718             41.859
 Vibration     1          0.594              1.983              5.566
 Vibration     2          0.594              1.982              5.378
 Vibration     3          0.603              1.953              3.562
 Vibration     4          0.605              1.945              3.358
 Vibration     5          0.615              1.911              2.779
 Vibration     6          0.633              1.854              2.230
 Vibration     7          0.652              1.796              1.885
 Vibration     8          0.663              1.761              1.725
 Vibration     9          0.678              1.716              1.553
 Vibration    10          0.704              1.640              1.323
 Vibration    11          0.718              1.602              1.226
 Vibration    12          0.729              1.571              1.157
 Vibration    13          0.773              1.451              0.930
 Vibration    14          0.779              1.437              0.908
 Vibration    15          0.817              1.340              0.767
 Vibration    16          0.834              1.300              0.716
 Vibration    17          0.865              1.228              0.634
 Vibration    18          0.901              1.149              0.553
 Vibration    19          0.928              1.092              0.501

 Optimization completed.
    -- Stationary point found.
 Normal termination of Gaussian 16 at Thu Dec 10 23:06:57 2020.

 ----------------------------------------------------------------------
 # B3LYP/6-311++G(d,p) empiricaldispersion=gd3bj scf=xqc pop=npa geom=c
 heck
 ----------------------------------------------------------------------

 --------------------------------------
 CID_17870196_JID_6467_Energie_neutraal
 --------------------------------------
 Structure from the checkpoint file:  "JID_6467.chk"
 Charge =  0 Multiplicity = 1

 SCF Done:  E(RB3LYP) =  -1337.29732466     A.U. after   16 cycles
 Normal termination of Gaussian 16 at Thu Dec 10 23:11:38 2020.

 ----------------------------------------------------------------------
 # B3LYP/6-311++G(d,p) empiricaldispersion=gd3bj scf=xqc pop=npa geom=c
 heck
 ----------------------------------------------------------------------

 ------------------------------------
 CID_17870196_JID_6467_Energie_kation
 ------------------------------------
 Structure from the checkpoint file:  "JID_6467.chk"
 Charge =  1 Multiplicity = 2

 SCF Done:  E(UB3LYP) =  -1337.02702029     A.U. after   24 cycles
 Normal termination of Gaussian 16 at Thu Dec 10 23:21:44 2020.
 Gaussian 16:  ES64L-G16RevA.03 25-Dec-2016

 ----------------------------------------------------------------------
 # B3LYP/6-311++G(d,p) empiricaldispersion=gd3bj scf=xqc pop=npa geom=c
 heck
 ----------------------------------------------------------------------

 -----------------------------------
 CID_17870196_JID_6467_Energie_anion
 -----------------------------------
 Structure from the checkpoint file:  "JID_6467.chk"
 Charge = -1 Multiplicity = 2

                         Standard orientation:
 ---------------------------------------------------------------------
 Center     Atomic      Atomic             Coordinates (Angstroms)
 Number     Number       Type             X           Y           Z
 ---------------------------------------------------------------------
      1          6           0        3.176967    1.143680    0.477299
      2          6           0        4.363378    0.311388    0.902776
      3          6           0        4.164694   -1.008332    0.830195
      4         16           0        2.592939   -1.493471    0.163730
      5          6           0        2.352778    0.260841   -0.469867
      6          6           0        0.892818    0.575284   -0.689226
      7          6           0        0.286534    1.600000   -0.060536
      8         16           0       -1.396788    2.088269   -0.345118
      9          6           0       -2.263586    0.585270    0.107146
     10          6           0       -3.235405    0.659875    1.108161
     11          6           0       -4.035970   -0.443563    1.400416
     12          6           0       -3.856803   -1.634171    0.695117
     13          6           0       -2.877391   -1.713921   -0.289523
     14          6           0       -2.051704   -0.617666   -0.597634
     15          6           0       -1.018716   -0.803221   -1.618958
     16          6           0        0.234941   -0.303888   -1.656271
     17          1           0        3.456243    2.078298   -0.022099
     18          1           0        2.591337    1.410998    1.370126
     19          1           0        5.263939    0.758653    1.311313
     20          1           0        4.853683   -1.781497    1.151464
     21          1           0        2.847113    0.256846   -1.450802
     22          1           0        0.821645    2.218317    0.651859
     23          1           0       -3.371362    1.595931    1.640253
     24          1           0       -4.801216   -0.368703    2.167469
     25          1           0       -4.478165   -2.498245    0.911232
     26          1           0       -2.730118   -2.644582   -0.831211
     27          1           0       -1.272634   -1.532398   -2.386821
     28          1           0        0.885901   -0.679854   -2.445148
 ---------------------------------------------------------------------

 SCF Done:  E(UB3LYP) =  -1337.30780105     A.U. after   27 cycles

 The electronic state is 2-A.
 Alpha  occ. eigenvalues --  -88.73316 -88.70130 -10.09543 -10.09489 -10.07505
 Alpha  occ. eigenvalues --  -10.07322 -10.05138 -10.03874 -10.03839 -10.03694
 Alpha  occ. eigenvalues --  -10.03527 -10.03390 -10.03331 -10.03128 -10.01481
 Alpha  occ. eigenvalues --  -10.01407  -7.81926  -7.78675  -5.78281  -5.77939
 Alpha  occ. eigenvalues --   -5.77343  -5.75052  -5.74699  -5.74100  -0.75190
 Alpha  occ. eigenvalues --   -0.72745  -0.68590  -0.64214  -0.63805  -0.61791
 Alpha  occ. eigenvalues --   -0.59860  -0.59239  -0.53509  -0.50227  -0.47176
 Alpha  occ. eigenvalues --   -0.46059  -0.44370  -0.41820  -0.39789  -0.38843
 Alpha  occ. eigenvalues --   -0.36145  -0.34216  -0.33203  -0.32316  -0.29817
 Alpha  occ. eigenvalues --   -0.29336  -0.29147  -0.27536  -0.26738  -0.26148
 Alpha  occ. eigenvalues --   -0.25199  -0.24379  -0.23249  -0.22175  -0.21715
 Alpha  occ. eigenvalues --   -0.20364  -0.19511  -0.18878  -0.16170  -0.13408
 Alpha  occ. eigenvalues --   -0.12200  -0.10252  -0.09944  -0.06813   0.04420
 Alpha virt. eigenvalues --    0.07103   0.08754   0.08885   0.09458   0.09708
 Alpha virt. eigenvalues --    0.10117   0.10545   0.11068   0.11539   0.11608
 Alpha virt. eigenvalues --    0.12210   0.12774   0.13095   0.13879   0.14347

  Beta  occ. eigenvalues --  -88.73307 -88.70137 -10.09534 -10.09475 -10.07502
  Beta  occ. eigenvalues --  -10.07321 -10.04908 -10.03907 -10.03894 -10.03636
  Beta  occ. eigenvalues --  -10.03447 -10.03297 -10.02950 -10.02907 -10.01264
  Beta  occ. eigenvalues --  -10.01170  -7.81915  -7.78682  -5.78275  -5.77927
  Beta  occ. eigenvalues --   -5.77336  -5.75057  -5.74720  -5.74100  -0.75130
  Beta  occ. eigenvalues --   -0.72436  -0.68206  -0.63956  -0.63368  -0.61729
  Beta  occ. eigenvalues --   -0.59569  -0.58907  -0.53345  -0.49702  -0.46919
  Beta  occ. eigenvalues --   -0.45895  -0.44306  -0.41475  -0.39615  -0.38677
  Beta  occ. eigenvalues --   -0.36070  -0.33960  -0.33039  -0.32071  -0.29652
  Beta  occ. eigenvalues --   -0.29245  -0.29003  -0.27370  -0.26632  -0.25970
  Beta  occ. eigenvalues --   -0.24978  -0.23788  -0.23000  -0.22083  -0.21542
  Beta  occ. eigenvalues --   -0.20009  -0.19250  -0.18523  -0.15193  -0.12770
  Beta  occ. eigenvalues --   -0.10939  -0.10157  -0.09196  -0.06064
  Beta virt. eigenvalues --    0.07056   0.08672   0.08831   0.09400   0.09649
  Beta virt. eigenvalues --    0.10081   0.10131   0.10522   0.11080   0.11758
  Beta virt. eigenvalues --    0.11933   0.12219   0.12919   0.13155   0.14280

 Mulliken charges and spin densities:
               1          2
     1  C   -0.787794  -0.046453
     2  C    0.163613   0.014613
     3  C   -0.428805  -0.026467
     4  S   -0.270420   0.002566
     5  C    0.029472   0.119645
     6  C    1.134456  -0.086427
     7  C   -0.159739   0.295766
     8  S   -0.634274   0.081559
     9  C    0.190569   0.091456
    10  C   -0.171874  -0.027581
    11  C   -0.143900   0.108760
    12  C   -0.475415   0.010885
    13  C   -0.268916   0.100847
    14  C    0.620685  -0.009929
    15  C   -0.610268   0.175630
    16  C   -0.893409   0.180126
    17  H    0.108091   0.021505
    18  H    0.129439  -0.008883
    19  H    0.150011   0.012999
    20  H    0.202639  -0.001475
    21  H    0.219441   0.000018
    22  H    0.210917  -0.012411
    23  H    0.122597   0.020656
    24  H    0.101410  -0.006946
    25  H    0.106878   0.003956
    26  H    0.107585   0.004722
    27  H    0.111086  -0.012469
    28  H    0.135923  -0.006668
 Sum of Mulliken charges =  -1.00000   1.00000

 Dipole moment (field-independent basis, Debye):
    X=              4.5588    Y=             -0.5693    Z=              1.2699  Tot=              4.7665
 Quadrupole moment (field-independent basis, Debye-Ang):
   XX=           -143.8353   YY=           -126.6482   ZZ=           -122.9981
   XY=              4.7084   XZ=              0.8304   YZ=              3.3170

 Summary of Natural Population Analysis:

                                       Natural Population
                Natural  -----------------------------------------------
    Atom  No    Charge         Core      Valence    Rydberg      Total
 -----------------------------------------------------------------------
      C    1   -0.20935      0.99960     2.20135    0.00840     3.20935
      C    2   -0.12263      0.99952     2.11245    0.01066     3.12263
      C    3   -0.17275      0.99948     2.16250    0.01078     3.17275
      S    4    0.11151      4.99958     2.86845    0.02045     7.88849
      C    5   -0.13491      0.99953     2.12473    0.01064     3.13491
      C    6   -0.04590      0.99942     2.03369    0.01278     3.04590
      C    7   -0.08893      0.99936     2.07906    0.01050     3.08893
      S    8    0.10356      4.99951     2.87429    0.02264     7.89644
      C    9   -0.03171      0.99936     2.01904    0.01332     3.03171
      C   10   -0.12592      0.99950     2.11596    0.01046     3.12592
      C   11   -0.07117      0.99957     2.06213    0.00947     3.07117
      C   12   -0.12043      0.99957     2.11161    0.00924     3.12043
      C   13   -0.07306      0.99953     2.06495    0.00858     3.07306
      C   14   -0.02747      0.99944     2.01837    0.00966     3.02747
      C   15   -0.04609      0.99953     2.03691    0.00965     3.04609
      C   16   -0.07134      0.99951     2.06204    0.00978     3.07134
      H   17    0.10309      0.00000     0.39507    0.00185     0.39691
      H   18    0.10459      0.00000     0.39365    0.00175     0.39541
      H   19    0.09600      0.00000     0.40279    0.00121     0.40400
      H   20    0.09972      0.00000     0.39905    0.00123     0.40028
      H   21    0.09772      0.00000     0.40001    0.00227     0.40228
      H   22    0.08699      0.00000     0.41170    0.00130     0.41301
      H   23    0.09812      0.00000     0.40031    0.00157     0.40188
      H   24    0.08792      0.00000     0.41045    0.00163     0.41208
      H   25    0.09046      0.00000     0.40842    0.00113     0.40954
      H   26    0.09124      0.00000     0.40723    0.00153     0.40876
      H   27    0.08522      0.00000     0.41307    0.00171     0.41478
      H   28    0.08553      0.00000     0.41251    0.00195     0.41447
 =======================================================================
   * Total *   -0.00000     23.99202    39.80182    0.20616    64.00000

 Normal termination of Gaussian 16 at Thu Dec 10 23:32:41 2020.
