 Gaussian 16, Revision A.03,

 -----------------------------------------------------------
 # opt freq B3LYP/6-31G(d) empiricaldispersion=gd3bj scf=xqc
 -----------------------------------------------------------

 ------------------------------
 CID_14069171_JID_3891_neutraal
 ------------------------------
 Symbolic Z-matrix:
 Charge =  0 Multiplicity = 1

 SCF Done:  E(RB3LYP) =  -1031.77183364     A.U. after   17 cycles
 SCF Done:  E(RB3LYP) =  -1031.78184448     A.U. after   16 cycles
 SCF Done:  E(RB3LYP) =  -1031.78443852     A.U. after   16 cycles
 SCF Done:  E(RB3LYP) =  -1031.78590345     A.U. after   14 cycles
 SCF Done:  E(RB3LYP) =  -1031.78645786     A.U. after   15 cycles
 SCF Done:  E(RB3LYP) =  -1031.78681809     A.U. after   13 cycles
 SCF Done:  E(RB3LYP) =  -1031.78690497     A.U. after   14 cycles
 SCF Done:  E(RB3LYP) =  -1031.78693633     A.U. after   13 cycles
 SCF Done:  E(RB3LYP) =  -1031.78697379     A.U. after   12 cycles
 SCF Done:  E(RB3LYP) =  -1031.78699334     A.U. after   12 cycles
 SCF Done:  E(RB3LYP) =  -1031.78822742     A.U. after   12 cycles
 SCF Done:  E(RB3LYP) =  -1031.78822849     A.U. after   10 cycles
 SCF Done:  E(RB3LYP) =  -1031.78822865     A.U. after    9 cycles
 SCF Done:  E(RB3LYP) =  -1031.78822870     A.U. after    8 cycles
 Optimization completed.
    -- Stationary point found.
 Normal termination of Gaussian 16 at Sun Dec 13 20:04:20 2020.

 --------------------------------------------------------------------
 #N Geom=AllCheck Guess=TCheck SCRF=Check GenChk RB3LYP/6-31G(d) Freq
 --------------------------------------------------------------------

 Structure from the checkpoint file:  "JID_3891.chk"
 ------------------------------
 CID_14069171_JID_3891_neutraal
 ------------------------------
 Charge =  0 Multiplicity = 1

 SCF Done:  E(RB3LYP) =  -1031.78822870     A.U. after    2 cycles

  Exact polarizability: 143.018   0.445  85.987  13.708  -6.664  78.995
 Approx polarizability: 264.926   3.066 153.515  62.515 -28.868 158.153

                      1                      2                      3
                      A                      A                      A
 Frequencies --     43.7270                57.0074                66.3012
 Red. masses --     10.3510                 9.4894                10.3652
 Frc consts  --      0.0117                 0.0182                 0.0268
 IR Inten    --      0.5245                 0.6031                 2.4831

                      4                      5                      6
                      A                      A                      A
 Frequencies --    122.6571               127.7641               142.1784
 Red. masses --      9.2821                10.7861                10.9971
 Frc consts  --      0.0823                 0.1037                 0.1310
 IR Inten    --      3.4526                 0.9385                 0.3267

                      7                      8                      9
                      A                      A                      A
 Frequencies --    242.4555               273.0238               317.7989
 Red. masses --      8.2332                 8.3602                 8.0144
 Frc consts  --      0.2852                 0.3672                 0.4769
 IR Inten    --      3.6600                 0.1450                 5.9336

                     10                     11                     12
                      A                      A                      A
 Frequencies --    354.4080               383.1859               411.5995
 Red. masses --      3.9124                 9.9125                 3.8942
 Frc consts  --      0.2895                 0.8575                 0.3887
 IR Inten    --      7.0905                 8.0719                 0.5362

                     13                     14                     15
                      A                      A                      A
 Frequencies --    461.9285               502.2815               525.3296
 Red. masses --      5.4156                 7.9392                13.1853
 Frc consts  --      0.6808                 1.1801                 2.1439
 IR Inten    --     16.9601                48.9618                 7.8658

                     16                     17                     18
                      A                      A                      A
 Frequencies --    570.0590               588.1298               593.7529
 Red. masses --     12.7041                 6.7329                 9.4078
 Frc consts  --      2.4324                 1.3721                 1.9541
 IR Inten    --     15.4142                 3.9205                19.5616

                     19                     20                     21
                      A                      A                      A
 Frequencies --    690.9423               723.6914               734.6363
 Red. masses --      6.0809                 7.5945                 5.0999
 Frc consts  --      1.7104                 2.3435                 1.6216
 IR Inten    --     22.3271                 1.5627                12.0115

                     22                     23                     24
                      A                      A                      A
 Frequencies --    801.1299               813.4573               853.4452
 Red. masses --      1.7281                 2.4583                 4.6652
 Frc consts  --      0.6535                 0.9584                 2.0020
 IR Inten    --     31.4246                15.0129                50.5049

                     25                     26                     27
                      A                      A                      A
 Frequencies --    935.5868               961.7417              1037.5779
 Red. masses --      3.8643                 2.3125                 3.1620
 Frc consts  --      1.9929                 1.2602                 2.0056
 IR Inten    --     22.3344                20.3959                16.4053

                     28                     29                     30
                      A                      A                      A
 Frequencies --   1079.6989              1128.0634              1163.4662
 Red. masses --      2.8837                 4.1659                 1.3318
 Frc consts  --      1.9807                 3.1234                 1.0622
 IR Inten    --     67.5391               123.1736                44.2903

                     31                     32                     33
                      A                      A                      A
 Frequencies --   1244.1498              1253.8613              1284.4173
 Red. masses --      1.8122                 1.5540                 4.9712
 Frc consts  --      1.6527                 1.4395                 4.8320
 IR Inten    --     12.0347                69.6144               115.5675

                     34                     35                     36
                      A                      A                      A
 Frequencies --   1322.1463              1330.7753              1384.4628
 Red. masses --      6.7121                 1.7968                 9.3159
 Frc consts  --      6.9130                 1.8749                10.5206
 IR Inten    --    157.2280                 6.7562               172.1793

                     37                     38                     39
                      A                      A                      A
 Frequencies --   1390.3969              1482.8315              1680.6620
 Red. masses --      1.3490                 1.0906                 8.5083
 Frc consts  --      1.5365                 1.4129                14.1597
 IR Inten    --     21.2522                10.0903               236.7039

                     40                     41                     42
                      A                      A                      A
 Frequencies --   2268.1405              2278.8265              3108.7682
 Red. masses --     13.9004                13.9834                 1.0831
 Frc consts  --     42.1326                42.7845                 6.1674
 IR Inten    --    303.5837               676.3711                 5.3002

                     43                     44                     45
                      A                      A                      A
 Frequencies --   3121.7105              3188.2478              3274.0698
 Red. masses --      1.0613                 1.1100                 1.0961
 Frc consts  --      6.0938                 6.6475                 6.9226
 IR Inten    --      1.0732                 0.1708                10.0604

 - Thermochemistry -
 -------------------
 Temperature   298.150 Kelvin.  Pressure   1.00000 Atm.
 Atom     1 has atomic number  6 and mass  12.00000

 Molecular mass:   200.01165 amu.
 Principal axes and moments of inertia in atomic units:
                           1         2         3
     Eigenvalues --  1460.751613139.559113870.04441
           X            1.00000   0.00043  -0.00206
           Y           -0.00041   0.99994   0.01092
           Z            0.00206  -0.01092   0.99994
 This molecule is an asymmetric top.
 Rotational symmetry number  1.
 Warning -- assumption of classical behavior for rotation
           may cause significant error
 Rotational temperatures (Kelvin)      0.05929     0.02759     0.02238
 Rotational constants (GHZ):           1.23549     0.57484     0.46634
 Zero-point vibrational energy     277058.1 (Joules/Mol)
                                   66.21847 (Kcal/Mol)
 Warning -- explicit consideration of  18 degrees of freedom as
           vibrations may cause significant error
 Vibrational temperatures:     62.91    82.02    95.39   176.48   183.82
          (Kelvin)            204.56   348.84   392.82   457.24   509.91
                              551.32   592.20   664.61   722.67   755.83
                              820.19   846.19   854.28   994.11  1041.23
                             1056.98  1152.65  1170.38  1227.92  1346.10
                             1383.73  1492.84  1553.45  1623.03  1673.97
                             1790.05  1804.03  1847.99  1902.27  1914.69
                             1991.93  2000.47  2133.46  2418.10  3263.35
                             3278.72  4472.82  4491.45  4587.18  4710.66

 Zero-point correction=                           0.105526 (Hartree/Particle)
 Thermal correction to Energy=                    0.117191
 Thermal correction to Enthalpy=                  0.118135
 Thermal correction to Gibbs Free Energy=         0.066302
 Sum of electronic and zero-point Energies=          -1031.682703
 Sum of electronic and thermal Energies=             -1031.671038
 Sum of electronic and thermal Enthalpies=           -1031.670094
 Sum of electronic and thermal Free Energies=        -1031.721927

                     E (Thermal)             CV                S
                      KCal/Mol        Cal/Mol-Kelvin    Cal/Mol-Kelvin
 Total                   73.538             41.642            109.091
 Electronic               0.000              0.000              0.000
 Translational            0.889              2.981             41.784
 Rotational               0.889              2.981             31.251
 Vibrational             71.761             35.680             36.055
 Vibration     1          0.595              1.980              5.083
 Vibration     2          0.596              1.975              4.558
 Vibration     3          0.598              1.970              4.260
 Vibration     4          0.610              1.930              3.058
 Vibration     5          0.611              1.925              2.979
 Vibration     6          0.616              1.911              2.774
 Vibration     7          0.659              1.775              1.785
 Vibration     8          0.676              1.723              1.577
 Vibration     9          0.704              1.640              1.321
 Vibration    10          0.730              1.566              1.147
 Vibration    11          0.752              1.506              1.027
 Vibration    12          0.776              1.445              0.921
 Vibration    13          0.820              1.334              0.761
 Vibration    14          0.858              1.245              0.652
 Vibration    15          0.880              1.194              0.598
 Vibration    16          0.926              1.096              0.504
 Vibration    17          0.945              1.057              0.471
 Vibration    18          0.951              1.045              0.461

 Optimization completed.
    -- Stationary point found.
 Normal termination of Gaussian 16 at Sun Dec 13 20:08:25 2020.

 ----------------------------------------------------------------------
 # B3LYP/6-311++G(d,p) empiricaldispersion=gd3bj scf=xqc pop=npa geom=c
 heck
 ----------------------------------------------------------------------

 --------------------------------------
 CID_14069171_JID_3891_Energie_neutraal
 --------------------------------------
 Structure from the checkpoint file:  "JID_3891.chk"
 Charge =  0 Multiplicity = 1

 SCF Done:  E(RB3LYP) =  -1031.99121616     A.U. after   17 cycles
 Normal termination of Gaussian 16 at Sun Dec 13 20:10:08 2020.

 ----------------------------------------------------------------------
 # B3LYP/6-311++G(d,p) empiricaldispersion=gd3bj scf=xqc pop=npa geom=c
 heck
 ----------------------------------------------------------------------

 ------------------------------------
 CID_14069171_JID_3891_Energie_kation
 ------------------------------------
 Structure from the checkpoint file:  "JID_3891.chk"
 Charge =  1 Multiplicity = 2

 SCF Done:  E(UB3LYP) =  -1031.64088650     A.U. after   33 cycles
 SCF Done:  E(UB3LYP) =  -1031.64251675     a.u. after    9 cycles
 Normal termination of Gaussian 16 at Sun Dec 13 20:43:09 2020.
 Gaussian 16:  ES64L-G16RevA.03 25-Dec-2016

 ----------------------------------------------------------------------
 # B3LYP/6-311++G(d,p) empiricaldispersion=gd3bj scf=xqc pop=npa geom=c
 heck
 ----------------------------------------------------------------------

 -----------------------------------
 CID_14069171_JID_3891_Energie_anion
 -----------------------------------
 Structure from the checkpoint file:  "JID_3891.chk"
 Charge = -1 Multiplicity = 2

                         Standard orientation:
 ---------------------------------------------------------------------
 Center     Atomic      Atomic             Coordinates (Angstroms)
 Number     Number       Type             X           Y           Z
 ---------------------------------------------------------------------
      1          6           0       -0.925291    0.037869    1.429611
      2          6           0        0.549214   -0.009058    0.992584
      3          6           0        0.616463   -0.823258   -0.299067
      4          6           0       -0.546347   -1.057850   -0.922319
      5         16           0       -1.925773   -0.351309   -0.058929
      6          8           0       -2.336692    0.896505   -0.716593
      7          8           0       -2.923473   -1.380436    0.255744
      8          7           0        1.834831   -1.241108   -0.832740
      9          7           0        2.878523   -0.942719   -0.218243
     10          7           0        3.916139   -0.759736    0.207514
     11          7           0        1.200029    1.310064    0.830313
     12          7           0        0.723312    2.034795   -0.065181
     13          7           0        0.397944    2.796691   -0.843704
     14          1           0       -1.225254    1.015452    1.808802
     15          1           0       -1.148298   -0.736731    2.165490
     16          1           0        1.146086   -0.492572    1.769987
     17          1           0       -0.698531   -1.565886   -1.865194
 ---------------------------------------------------------------------

 SCF Done:  E(UB3LYP) =  -1032.01433358     A.U. after   33 cycles
 SCF Done:  E(UB3LYP) =  -1032.01433358     a.u. after    1 cycles

 The electronic state is 2-A.
 Alpha  occ. eigenvalues --  -88.91147 -18.98249 -18.97872 -14.33995 -14.32714
 Alpha  occ. eigenvalues --  -14.24545 -14.23864 -14.23667 -14.22906 -10.12122
 Alpha  occ. eigenvalues --  -10.09523 -10.08367 -10.03604  -7.97561  -5.93816
 Alpha  occ. eigenvalues --   -5.93760  -5.93650  -1.00823  -1.00392  -0.97487
 Alpha  occ. eigenvalues --   -0.87126  -0.85861  -0.84560  -0.72844  -0.64114
 Alpha  occ. eigenvalues --   -0.60745  -0.53585  -0.46321  -0.44766  -0.41597
 Alpha  occ. eigenvalues --   -0.38819  -0.38008  -0.37763  -0.37054  -0.34922
 Alpha  occ. eigenvalues --   -0.34688  -0.32918  -0.31905  -0.31484  -0.30994
 Alpha  occ. eigenvalues --   -0.29914  -0.28532  -0.22465  -0.20542  -0.19427
 Alpha  occ. eigenvalues --   -0.18952  -0.18228  -0.17222  -0.16182  -0.13036
 Alpha  occ. eigenvalues --   -0.10839   0.04098
 Alpha virt. eigenvalues --    0.07823   0.09094   0.09250   0.11037   0.11564
 Alpha virt. eigenvalues --    0.12402   0.13078   0.14452   0.15143   0.15539
 Alpha virt. eigenvalues --    0.16138   0.16861   0.17632   0.18173   0.18471

  Beta  occ. eigenvalues --  -88.91148 -18.98198 -18.97817 -14.33828 -14.32289
  Beta  occ. eigenvalues --  -14.24249 -14.23874 -14.23416 -14.22900 -10.12073
  Beta  occ. eigenvalues --  -10.09526 -10.07990 -10.03257  -7.97561  -5.93811
  Beta  occ. eigenvalues --   -5.93755  -5.93660  -1.00432  -0.99727  -0.97380
  Beta  occ. eigenvalues --   -0.87001  -0.85605  -0.84350  -0.72486  -0.63653
  Beta  occ. eigenvalues --   -0.60364  -0.53163  -0.46087  -0.44393  -0.41159
  Beta  occ. eigenvalues --   -0.38456  -0.37528  -0.36736  -0.36147  -0.34710
  Beta  occ. eigenvalues --   -0.34398  -0.32551  -0.31078  -0.31018  -0.30828
  Beta  occ. eigenvalues --   -0.29584  -0.28165  -0.21184  -0.20242  -0.19099
  Beta  occ. eigenvalues --   -0.18720  -0.18056  -0.16863  -0.15994  -0.12895
  Beta  occ. eigenvalues --   -0.09086
  Beta virt. eigenvalues --    0.08573   0.09534   0.09928   0.11037   0.11133
  Beta virt. eigenvalues --    0.11613   0.12566   0.13343   0.14549   0.15519
  Beta virt. eigenvalues --    0.16087   0.16499   0.17085   0.17659   0.18294

 Mulliken charges and spin densities:
               1          2
     1  C   -1.195047  -0.000743
     2  C    0.645568  -0.033701
     3  C   -0.718947   0.221542
     4  C   -0.485060   0.274629
     5  S    0.496878   0.039607
     6  O   -0.204487   0.000419
     7  O   -0.166232   0.003410
     8  N   -0.107985  -0.082204
     9  N    0.321581   0.110102
    10  N   -0.303699   0.249845
    11  N   -0.386813  -0.016481
    12  N    0.784189   0.037333
    13  N   -0.518952   0.174177
    14  H    0.203389   0.005076
    15  H    0.216162  -0.003583
    16  H    0.210806   0.039537
    17  H    0.208649  -0.018964
 Sum of Mulliken charges =  -1.00000   1.00000

 Dipole moment (field-independent basis, Debye):
    X=              0.0451    Y=             -0.7142    Z=              2.8391  Tot=              2.9278
 Quadrupole moment (field-independent basis, Debye-Ang):
   XX=           -131.2837   YY=           -103.0978   ZZ=            -85.4208
   XY=             -1.3634   XZ=             -4.8555   YZ=              3.8979

 Summary of Natural Population Analysis:

                                       Natural Population
                Natural  -----------------------------------------------
    Atom  No    Charge         Core      Valence    Rydberg      Total
 -----------------------------------------------------------------------
      C    1   -0.29276      0.99958     2.28351    0.00968     3.29276
      C    2   -0.04019      0.99953     2.02324    0.01743     3.04019
      C    3    0.12446      0.99938     1.86199    0.01416     2.87554
      C    4   -0.18118      0.99935     2.16985    0.01198     3.18118
      S    5    1.01785      4.99928     1.88539    0.09748     6.98215
      O    6   -0.46597      0.99991     3.45972    0.00634     4.46597
      O    7   -0.47269      0.99991     3.46705    0.00574     4.47269
      N    8   -0.22163      0.99963     2.70706    0.01494     3.72163
      N    9    0.15525      0.99970     2.32862    0.01643     3.34475
      N   10    0.01868      0.99982     2.46861    0.01289     3.48132
      N   11   -0.20967      0.99972     2.69518    0.01478     3.70967
      N   12    0.12320      0.99970     2.36017    0.01693     3.37680
      N   13    0.00408      0.99982     2.48289    0.01321     3.49592
      H   14    0.11373      0.00000     0.38489    0.00138     0.38627
      H   15    0.11344      0.00000     0.38547    0.00109     0.38656
      H   16    0.10436      0.00000     0.39368    0.00196     0.39564
      H   17    0.10905      0.00000     0.38987    0.00108     0.39095
 =======================================================================
   * Total *    0.00000     16.99532    33.74719    0.25749    51.00000

 Normal termination of Gaussian 16 at Sun Dec 13 20:47:17 2020.
