 Gaussian 16, Revision A.03,

 -----------------------------------------------------------
 # opt freq B3LYP/6-31G(d) empiricaldispersion=gd3bj scf=xqc
 -----------------------------------------------------------

 -----------------------------
 CID_19366498_JID_554_neutraal
 -----------------------------
 Symbolic Z-matrix:
 Charge =  0 Multiplicity = 1

 SCF Done:  E(RB3LYP) =  -769.263578726     A.U. after   13 cycles
 SCF Done:  E(RB3LYP) =  -769.266672828     A.U. after   11 cycles
 SCF Done:  E(RB3LYP) =  -769.265522462     A.U. after   11 cycles
 SCF Done:  E(RB3LYP) =  -769.266819589     A.U. after   10 cycles
 SCF Done:  E(RB3LYP) =  -769.267138799     A.U. after   10 cycles
 SCF Done:  E(RB3LYP) =  -769.267168638     A.U. after   10 cycles
 SCF Done:  E(RB3LYP) =  -769.267184007     A.U. after    9 cycles
 SCF Done:  E(RB3LYP) =  -769.267191835     A.U. after    8 cycles
 SCF Done:  E(RB3LYP) =  -769.267201667     A.U. after    9 cycles
 SCF Done:  E(RB3LYP) =  -769.267211396     A.U. after   10 cycles
 SCF Done:  E(RB3LYP) =  -769.271507056     A.U. after    7 cycles
 SCF Done:  E(RB3LYP) =  -769.271507736     A.U. after    7 cycles
 SCF Done:  E(RB3LYP) =  -769.271508588     A.U. after    7 cycles
 SCF Done:  E(RB3LYP) =  -769.271509527     A.U. after    8 cycles
 SCF Done:  E(RB3LYP) =  -769.271510204     A.U. after    7 cycles
 SCF Done:  E(RB3LYP) =  -769.271510271     A.U. after    6 cycles
 Optimization completed.
    -- Stationary point found.
 Normal termination of Gaussian 16 at Tue Dec  8 13:33:04 2020.

 --------------------------------------------------------------------
 #N Geom=AllCheck Guess=TCheck SCRF=Check GenChk RB3LYP/6-31G(d) Freq
 --------------------------------------------------------------------

 Structure from the checkpoint file:  "JID_554.chk"
 -----------------------------
 CID_19366498_JID_554_neutraal
 -----------------------------
 Charge =  0 Multiplicity = 1

 SCF Done:  E(RB3LYP) =  -769.271510271     A.U. after    1 cycles

  Exact polarizability: 115.283   0.306 113.260   0.776  -2.423  96.236
 Approx polarizability: 151.940   2.699 158.177   2.021  -4.741 137.678

                      1                      2                      3
                      A                      A                      A
 Frequencies --     29.6415                57.3569                89.9218
 Red. masses --      3.7845                 3.1239                 3.1206
 Frc consts  --      0.0020                 0.0061                 0.0149
 IR Inten    --      0.7262                 0.3052                 0.2682

                      4                      5                      6
                      A                      A                      A
 Frequencies --     97.0564               123.2361               169.1968
 Red. masses --      2.1298                 1.7854                 2.4606
 Frc consts  --      0.0118                 0.0160                 0.0415
 IR Inten    --      0.2361                 0.3872                 0.1025

                      7                      8                      9
                      A                      A                      A
 Frequencies --    184.0400               214.5174               221.1184
 Red. masses --      1.6954                 1.7960                 1.2949
 Frc consts  --      0.0338                 0.0487                 0.0373
 IR Inten    --      1.5437                 0.2521                 0.1814

                     10                     11                     12
                      A                      A                      A
 Frequencies --    256.5175               269.5970               307.2229
 Red. masses --      1.3141                 2.2604                 1.5690
 Frc consts  --      0.0509                 0.0968                 0.0873
 IR Inten    --      0.1272                 0.5751                 8.0595

                     13                     14                     15
                      A                      A                      A
 Frequencies --    315.6899               347.1309               351.0025
 Red. masses --      1.5291                 1.6906                 2.7601
 Frc consts  --      0.0898                 0.1200                 0.2004
 IR Inten    --     10.2133                 8.2045                 0.6100

                     16                     17                     18
                      A                      A                      A
 Frequencies --    398.1046               476.5663               537.8834
 Red. masses --      1.9690                 2.7139                 2.9873
 Frc consts  --      0.1839                 0.3632                 0.5092
 IR Inten    --      0.7994                 1.8372                 8.1402

                     19                     20                     21
                      A                      A                      A
 Frequencies --    611.9943               657.0253               752.4167
 Red. masses --      3.3530                 3.2986                 1.7182
 Frc consts  --      0.7399                 0.8390                 0.5731
 IR Inten    --      1.7351                10.5600                 0.7433

                     22                     23                     24
                      A                      A                      A
 Frequencies --    774.8527               809.0359               811.6137
 Red. masses --      1.4587                 1.4970                 1.1972
 Frc consts  --      0.5160                 0.5773                 0.4646
 IR Inten    --      5.0976                 7.9198                 2.9840

                     25                     26                     27
                      A                      A                      A
 Frequencies --    820.8258               892.5051               948.6663
 Red. masses --      1.2117                 1.6955                 1.8616
 Frc consts  --      0.4810                 0.7957                 0.9871
 IR Inten    --      3.7615                 1.4463                 1.9722

                     28                     29                     30
                      A                      A                      A
 Frequencies --    960.1757              1000.2242              1035.1957
 Red. masses --      1.7271                 1.8546                 2.1645
 Frc consts  --      0.9381                 1.0932                 1.3666
 IR Inten    --      0.6292                 2.0265                10.0455

                     31                     32                     33
                      A                      A                      A
 Frequencies --   1064.8974              1077.6094              1100.1858
 Red. masses --      2.4202                 1.9532                 2.1804
 Frc consts  --      1.6171                 1.3364                 1.5549
 IR Inten    --     10.9514                30.5971                14.0165

                     34                     35                     36
                      A                      A                      A
 Frequencies --   1110.6709              1123.1750              1132.0096
 Red. masses --      1.7328                 1.8492                 1.7120
 Frc consts  --      1.2594                 1.3744                 1.2926
 IR Inten    --      3.1286                10.9547                18.3402

                     37                     38                     39
                      A                      A                      A
 Frequencies --   1167.9707              1224.3224              1247.0804
 Red. masses --      1.9449                 2.3992                 1.9397
 Frc consts  --      1.5632                 2.1189                 1.7774
 IR Inten    --      5.8563                25.0236                20.6639

                     40                     41                     42
                      A                      A                      A
 Frequencies --   1268.5091              1295.9078              1337.3853
 Red. masses --      1.2801                 1.3111                 1.2888
 Frc consts  --      1.2136                 1.2973                 1.3581
 IR Inten    --     11.8079                 1.8090                 7.2701

                     43                     44                     45
                      A                      A                      A
 Frequencies --   1341.8784              1350.3080              1364.9812
 Red. masses --      1.1649                 1.1967                 1.2764
 Frc consts  --      1.2358                 1.2856                 1.4012
 IR Inten    --      4.5700                36.6820                 6.0185

                     46                     47                     48
                      A                      A                      A
 Frequencies --   1392.8438              1417.8916              1425.9222
 Red. masses --      1.3543                 1.3018                 1.2568
 Frc consts  --      1.5480                 1.5420                 1.5056
 IR Inten    --      9.6017                 9.6044                 2.0153

                     49                     50                     51
                      A                      A                      A
 Frequencies --   1438.4906              1441.8363              1444.0770
 Red. masses --      1.3271                 1.2325                 1.3303
 Frc consts  --      1.6179                 1.5096                 1.6345
 IR Inten    --     10.6486                 1.9052                15.8971

                     52                     53                     54
                      A                      A                      A
 Frequencies --   1447.3737              1487.0381              1513.1214
 Red. masses --      1.3103                 1.0902                 1.0535
 Frc consts  --      1.6172                 1.4204                 1.4211
 IR Inten    --     16.7287                10.0088                 1.5946

                     55                     56                     57
                      A                      A                      A
 Frequencies --   1514.0646              1521.4869              1525.6532
 Red. masses --      1.0691                 1.0477                 1.0440
 Frc consts  --      1.4439                 1.4289                 1.4318
 IR Inten    --      0.7342                 4.1197                 1.7432

                     58                     59                     60
                      A                      A                      A
 Frequencies --   1530.0779              1531.6801              1538.7474
 Red. masses --      1.0429                 1.0541                 1.0513
 Frc consts  --      1.4385                 1.4571                 1.4666
 IR Inten    --      1.1546                 4.8589                 4.9854

                     61                     62                     63
                      A                      A                      A
 Frequencies --   1541.3513              1544.5701              2685.3084
 Red. masses --      1.0818                 1.0827                 1.0382
 Frc consts  --      1.5143                 1.5218                 4.4109
 IR Inten    --      4.4508                 7.0164                11.0684

                     64                     65                     66
                      A                      A                      A
 Frequencies --   2937.9346              2953.0205              3029.5523
 Red. masses --      1.0743                 1.0746                 1.0817
 Frc consts  --      5.4634                 5.5213                 5.8495
 IR Inten    --     48.6119                86.7754                13.1807

                     67                     68                     69
                      A                      A                      A
 Frequencies --   3045.2940              3048.3683              3049.2759
 Red. masses --      1.0375                 1.0396                 1.0592
 Frc consts  --      5.6690                 5.6919                 5.8026
 IR Inten    --     29.1941                25.8972                15.2646

                     70                     71                     72
                      A                      A                      A
 Frequencies --   3050.6239              3088.2769              3092.0299
 Red. masses --      1.0372                 1.0656                 1.0888
 Frc consts  --      5.6869                 5.9882                 6.1331
 IR Inten    --     28.8315                18.3967                 9.2968

                     73                     74                     75
                      A                      A                      A
 Frequencies --   3092.9144              3111.7847              3113.6734
 Red. masses --      1.0915                 1.0992                 1.1009
 Frc consts  --      6.1517                 6.2713                 6.2887
 IR Inten    --      7.8381                23.9835                34.1007

                     76                     77                     78
                      A                      A                      A
 Frequencies --   3117.0502              3118.2821              3119.3718
 Red. masses --      1.0999                 1.1013                 1.1018
 Frc consts  --      6.2965                 6.3091                 6.3166
 IR Inten    --     29.5465                69.1092                40.6719

                     79                     80                     81
                      A                      A                      A
 Frequencies --   3129.0388              3141.1891              3142.2970
 Red. masses --      1.1029                 1.1036                 1.0928
 Frc consts  --      6.3622                 6.4161                 6.3576
 IR Inten    --     34.2634                 4.0116                46.1900

 - Thermochemistry -
 -------------------
 Temperature   298.150 Kelvin.  Pressure   1.00000 Atm.
 Atom     1 has atomic number  6 and mass  12.00000

 Molecular mass:   161.12382 amu.
 Principal axes and moments of inertia in atomic units:
                           1         2         3
     Eigenvalues --  1661.533432223.253832818.61012
           X            0.99408  -0.10718  -0.01757
           Y            0.10653   0.99371  -0.03450
           Z            0.02116   0.03243   0.99925
 This molecule is an asymmetric top.
 Rotational symmetry number  1.
 Warning -- assumption of classical behavior for rotation
           may cause significant error
 Rotational temperatures (Kelvin)      0.05213     0.03896     0.03073
 Rotational constants (GHZ):           1.08619     0.81176     0.64029
 Zero-point vibrational energy     694125.6 (Joules/Mol)
                                  165.90000 (Kcal/Mol)
 Warning -- explicit consideration of  19 degrees of freedom as
           vibrations may cause significant error
 Vibrational temperatures:     42.65    82.52   129.38   139.64   177.31
          (Kelvin)            243.44   264.79   308.64   318.14   369.07
                              387.89   442.03   454.21   499.44   505.01
                              572.78   685.67   773.89   880.52   945.31
                             1082.56  1114.84  1164.02  1167.73  1180.99
                             1284.12  1364.92  1381.48  1439.10  1489.42
                             1532.15  1550.44  1582.92  1598.01  1616.00
                             1628.71  1680.45  1761.53  1794.27  1825.10
                             1864.52  1924.20  1930.66  1942.79  1963.90
                             2003.99  2040.03  2051.58  2069.67  2074.48
                             2077.70  2082.45  2139.52  2177.04  2178.40
                             2189.08  2195.07  2201.44  2203.75  2213.91
                             2217.66  2222.29  3863.56  4227.03  4248.74
                             4358.85  4381.50  4385.92  4387.23  4389.17
                             4443.34  4448.74  4450.01  4477.16  4479.88
                             4484.74  4486.51  4488.08  4501.99  4519.47
                             4521.06

 Zero-point correction=                           0.264378 (Hartree/Particle)
 Thermal correction to Energy=                    0.277831
 Thermal correction to Enthalpy=                  0.278775
 Thermal correction to Gibbs Free Energy=         0.224124
 Sum of electronic and zero-point Energies=           -769.007132
 Sum of electronic and thermal Energies=              -768.993679
 Sum of electronic and thermal Enthalpies=            -768.992735
 Sum of electronic and thermal Free Energies=         -769.047386

                     E (Thermal)             CV                S
                      KCal/Mol        Cal/Mol-Kelvin    Cal/Mol-Kelvin
 Total                  174.342             48.774            115.023
 Electronic               0.000              0.000              0.000
 Translational            0.889              2.981             41.140
 Rotational               0.889              2.981             30.722
 Vibrational            172.564             42.813             43.162
 Vibration     1          0.593              1.984              5.853
 Vibration     2          0.596              1.975              4.546
 Vibration     3          0.602              1.956              3.662
 Vibration     4          0.603              1.951              3.513
 Vibration     5          0.610              1.930              3.049
 Vibration     6          0.625              1.880              2.444
 Vibration     7          0.631              1.862              2.287
 Vibration     8          0.644              1.819              2.005
 Vibration     9          0.648              1.809              1.950
 Vibration    10          0.666              1.752              1.685
 Vibration    11          0.674              1.729              1.599
 Vibration    12          0.697              1.660              1.377
 Vibration    13          0.703              1.644              1.332
 Vibration    14          0.725              1.581              1.179
 Vibration    15          0.728              1.573              1.162
 Vibration    16          0.764              1.474              0.970
 Vibration    17          0.833              1.302              0.719
 Vibration    18          0.893              1.166              0.570
 Vibration    19          0.971              1.006              0.429

 Optimization completed.
    -- Stationary point found.
 Normal termination of Gaussian 16 at Tue Dec  8 13:42:19 2020.

 ----------------------------------------------------------------------
 # B3LYP/6-311++G(d,p) empiricaldispersion=gd3bj scf=xqc pop=npa geom=c
 heck
 ----------------------------------------------------------------------

 -------------------------------------
 CID_19366498_JID_554_Energie_neutraal
 -------------------------------------
 Structure from the checkpoint file:  "JID_554.chk"
 Charge =  0 Multiplicity = 1

 SCF Done:  E(RB3LYP) =  -769.407726643     A.U. after   13 cycles
 Normal termination of Gaussian 16 at Tue Dec  8 13:47:24 2020.

 ----------------------------------------------------------------------
 # B3LYP/6-311++G(d,p) empiricaldispersion=gd3bj scf=xqc pop=npa geom=c
 heck
 ----------------------------------------------------------------------

 -----------------------------------
 CID_19366498_JID_554_Energie_kation
 -----------------------------------
 Structure from the checkpoint file:  "JID_554.chk"
 Charge =  1 Multiplicity = 2

 SCF Done:  E(UB3LYP) =  -769.125321787     A.U. after   20 cycles
 Normal termination of Gaussian 16 at Tue Dec  8 13:56:14 2020.
 Gaussian 16:  ES64L-G16RevA.03 25-Dec-2016

 ----------------------------------------------------------------------
 # B3LYP/6-311++G(d,p) empiricaldispersion=gd3bj scf=xqc pop=npa geom=c
 heck
 ----------------------------------------------------------------------

 ----------------------------------
 CID_19366498_JID_554_Energie_anion
 ----------------------------------
 Structure from the checkpoint file:  "JID_554.chk"
 Charge = -1 Multiplicity = 2

                         Standard orientation:
 ---------------------------------------------------------------------
 Center     Atomic      Atomic             Coordinates (Angstroms)
 Number     Number       Type             X           Y           Z
 ---------------------------------------------------------------------
      1          6           0        2.323654   -2.056957   -0.842494
      2          6           0        1.155345   -1.100506   -1.100711
      3          6           0        0.385733   -0.712416    0.176079
      4          6           0        1.215079    0.097899    1.185994
      5         16           0        1.755342    1.777356    0.657179
      6          7           0       -0.928274   -0.078906   -0.050598
      7          6           0       -2.034598   -1.033826    0.046075
      8          6           0       -2.385463   -1.381764    1.492207
      9          6           0       -1.040841    0.791217   -1.227435
     10          6           0       -2.038407    1.926936   -0.998983
     11          1           0        3.111159   -1.586871   -0.243431
     12          1           0        2.780677   -2.376369   -1.785334
     13          1           0        1.992186   -2.957706   -0.310881
     14          1           0        1.529598   -0.201313   -1.600985
     15          1           0        0.446760   -1.575883   -1.790960
     16          1           0        0.176316   -1.653266    0.703117
     17          1           0        0.644746    0.202759    2.111732
     18          1           0        2.145232   -0.426321    1.424377
     19          1           0        0.528996    2.338936    0.694400
     20          1           0       -2.912565   -0.581435   -0.424996
     21          1           0       -1.822795   -1.957342   -0.526384
     22          1           0       -2.657968   -0.474351    2.040704
     23          1           0       -3.226913   -2.083363    1.528743
     24          1           0       -1.543321   -1.848831    2.015235
     25          1           0       -0.061929    1.227746   -1.430152
     26          1           0       -1.325445    0.223382   -2.132092
     27          1           0       -1.729349    2.538843   -0.144260
     28          1           0       -2.099415    2.569157   -1.885159
     29          1           0       -3.046533    1.553373   -0.788753
 ---------------------------------------------------------------------

 SCF Done:  E(UB3LYP) =  -769.390827045     A.U. after   27 cycles

 The electronic state is 2-A.
 Alpha  occ. eigenvalues --  -88.73993 -14.19604 -10.09965 -10.09588 -10.08871
 Alpha  occ. eigenvalues --  -10.08692 -10.06260 -10.05842 -10.05673 -10.05293
 Alpha  occ. eigenvalues --   -7.82689  -5.79052  -5.78715  -5.78083  -0.82068
 Alpha  occ. eigenvalues --   -0.70413  -0.66104  -0.65805  -0.62408  -0.57962
 Alpha  occ. eigenvalues --   -0.53272  -0.51845  -0.49796  -0.44246  -0.38547
 Alpha  occ. eigenvalues --   -0.38344  -0.35979  -0.35275  -0.34447  -0.32644
 Alpha  occ. eigenvalues --   -0.30706  -0.29756  -0.28858  -0.28493  -0.27482
 Alpha  occ. eigenvalues --   -0.26257  -0.26097  -0.25318  -0.25033  -0.24049
 Alpha  occ. eigenvalues --   -0.23624  -0.22721  -0.20953  -0.14110  -0.10999
 Alpha  occ. eigenvalues --    0.04721
 Alpha virt. eigenvalues --    0.06684   0.07288   0.07783   0.09301   0.09410
 Alpha virt. eigenvalues --    0.09653   0.09873   0.10132   0.11513   0.12253
 Alpha virt. eigenvalues --    0.12516   0.12659   0.13146   0.13520   0.13897

  Beta  occ. eigenvalues --  -88.73985 -14.19573 -10.09956 -10.09571 -10.08865
  Beta  occ. eigenvalues --  -10.08670 -10.06247 -10.05814 -10.05631 -10.05261
  Beta  occ. eigenvalues --   -7.82680  -5.79040  -5.78708  -5.78076  -0.82023
  Beta  occ. eigenvalues --   -0.70380  -0.66071  -0.65768  -0.62357  -0.57907
  Beta  occ. eigenvalues --   -0.53196  -0.51776  -0.49716  -0.44187  -0.38506
  Beta  occ. eigenvalues --   -0.38310  -0.35939  -0.35231  -0.34416  -0.32612
  Beta  occ. eigenvalues --   -0.30661  -0.29709  -0.28812  -0.28446  -0.27433
  Beta  occ. eigenvalues --   -0.26207  -0.26047  -0.25273  -0.24981  -0.24017
  Beta  occ. eigenvalues --   -0.23592  -0.22687  -0.20921  -0.14079  -0.10847
  Beta virt. eigenvalues --    0.06889   0.07555   0.07952   0.08342   0.09633
  Beta virt. eigenvalues --    0.09848   0.10208   0.10315   0.10572   0.11910
  Beta virt. eigenvalues --    0.12606   0.12781   0.13101   0.13439   0.13831

 Mulliken charges and spin densities:
               1          2
     1  C    1.463792  -2.238375
     2  C   -1.337477   1.173005
     3  C    0.175654  -0.075100
     4  C    0.297858  -1.034868
     5  S    0.124562  -0.134809
     6  N    0.214442   0.106505
     7  C   -0.736692   0.477020
     8  C    1.291568  -1.677862
     9  C   -1.118209   0.951898
    10  C    0.991900  -1.505653
    11  H   -0.169580   0.301451
    12  H   -0.233394   0.369704
    13  H   -0.699148   0.845135
    14  H   -0.014327   0.146405
    15  H   -0.020280   0.171129
    16  H    0.628984  -0.459035
    17  H    0.129481   0.105330
    18  H   -0.204989   0.385085
    19  H   -0.006469   0.015067
    20  H   -0.404578   0.548554
    21  H   -0.049376   0.159311
    22  H   -0.000179   0.128315
    23  H   -0.334605   0.469355
    24  H   -0.594954   0.724123
    25  H    0.157041  -0.015202
    26  H   -0.106980   0.237311
    27  H   -0.163550   0.290007
    28  H   -0.146508   0.272397
    29  H   -0.133989   0.263795
 Sum of Mulliken charges =  -1.00000   1.00000

 Dipole moment (field-independent basis, Debye):
    X=              1.0555    Y=              3.9683    Z=             -0.6815  Tot=              4.1624
 Quadrupole moment (field-independent basis, Debye-Ang):
   XX=           -134.3809   YY=           -128.4582   ZZ=           -109.6469
   XY=              4.5403   XZ=              1.8043   YZ=              0.9881

 Summary of Natural Population Analysis:

                                       Natural Population
                Natural  -----------------------------------------------
    Atom  No    Charge         Core      Valence    Rydberg      Total
 -----------------------------------------------------------------------
      C    1   -0.28445      0.99967     2.27943    0.00535     3.28445
      C    2   -0.20288      0.99961     2.19433    0.00894     3.20288
      C    3   -0.00832      0.99955     1.99351    0.01526     3.00832
      C    4   -0.23940      0.99953     2.22934    0.01052     3.23940
      S    5   -0.03574      4.99966     3.02144    0.01463     8.03574
      N    6   -0.29120      0.99969     2.77524    0.01627     3.79120
      C    7   -0.08168      0.99961     2.07104    0.01103     3.08168
      C    8   -0.28704      0.99966     2.28186    0.00552     3.28704
      C    9   -0.09034      0.99961     2.07953    0.01120     3.09034
      C   10   -0.28586      0.99966     2.28085    0.00536     3.28586
      H   11    0.09511      0.00000     0.40361    0.00128     0.40489
      H   12    0.09980      0.00000     0.39920    0.00100     0.40020
      H   13    0.09911      0.00000     0.39902    0.00187     0.40089
      H   14    0.10014      0.00000     0.39834    0.00152     0.39986
      H   15    0.09976      0.00000     0.39870    0.00154     0.40024
      H   16    0.10042      0.00000     0.39661    0.00297     0.39958
      H   17    0.10659      0.00000     0.39175    0.00165     0.39341
      H   18    0.10455      0.00000     0.39436    0.00109     0.39545
      H   19    0.06239      0.00000     0.43455    0.00306     0.43761
      H   20    0.09445      0.00000     0.40366    0.00189     0.40555
      H   21    0.08103      0.00000     0.41726    0.00171     0.41897
      H   22    0.09849      0.00000     0.39991    0.00160     0.40151
      H   23    0.09822      0.00000     0.40061    0.00117     0.40178
      H   24    0.09623      0.00000     0.40229    0.00147     0.40377
      H   25    0.10042      0.00000     0.39776    0.00182     0.39958
      H   26    0.08051      0.00000     0.41810    0.00139     0.41949
      H   27    0.09645      0.00000     0.40200    0.00155     0.40355
      H   28    0.09551      0.00000     0.40358    0.00091     0.40449
      H   29    0.09770      0.00000     0.40085    0.00145     0.40230
 =======================================================================
   * Total *    0.00000     13.99625    30.86873    0.13503    45.00000

 Normal termination of Gaussian 16 at Tue Dec  8 14:05:28 2020.
