 Gaussian 16, Revision A.03,

 -----------------------------------------------------------
 # opt freq B3LYP/6-31G(d) empiricaldispersion=gd3bj scf=xqc
 -----------------------------------------------------------

 ------------------------------
 CID_139381326_JID_597_neutraal
 ------------------------------
 Symbolic Z-matrix:
 Charge =  0 Multiplicity = 1

 SCF Done:  E(RB3LYP) =  -801.518723774     A.U. after   14 cycles
 SCF Done:  E(RB3LYP) =  -801.525727463     A.U. after   13 cycles
 SCF Done:  E(RB3LYP) =  -801.527823804     A.U. after   13 cycles
 SCF Done:  E(RB3LYP) =  -801.528884596     A.U. after   13 cycles
 SCF Done:  E(RB3LYP) =  -801.529599524     A.U. after   13 cycles
 SCF Done:  E(RB3LYP) =  -801.530917765     A.U. after   14 cycles
 SCF Done:  E(RB3LYP) =  -801.531127759     A.U. after   13 cycles
 SCF Done:  E(RB3LYP) =  -801.530581381     A.U. after   13 cycles
 SCF Done:  E(RB3LYP) =  -801.531427950     A.U. after   14 cycles
 SCF Done:  E(RB3LYP) =  -801.531343196     A.U. after   12 cycles
 SCF Done:  E(RB3LYP) =  -801.531502289     A.U. after   12 cycles
 SCF Done:  E(RB3LYP) =  -801.531504790     A.U. after    9 cycles
 SCF Done:  E(RB3LYP) =  -801.531503089     A.U. after    9 cycles
 SCF Done:  E(RB3LYP) =  -801.531505223     A.U. after   10 cycles
 Optimization completed.
    -- Stationary point found.
 Normal termination of Gaussian 16 at Tue Dec  8 12:14:16 2020.

 --------------------------------------------------------------------
 #N Geom=AllCheck Guess=TCheck SCRF=Check GenChk RB3LYP/6-31G(d) Freq
 --------------------------------------------------------------------

 Structure from the checkpoint file:  "JID_597.chk"
 ------------------------------
 CID_139381326_JID_597_neutraal
 ------------------------------
 Charge =  0 Multiplicity = 1

 SCF Done:  E(RB3LYP) =  -801.531505223     A.U. after    1 cycles

  Exact polarizability: 136.710  -0.793  88.070   0.320   5.059  73.067
 Approx polarizability: 183.629   2.106 143.716   8.614  19.283 116.211

                      1                      2                      3
                      A                      A                      A
 Frequencies --     58.7242                77.7723               151.9050
 Red. masses --      3.4816                 3.8489                 1.0845
 Frc consts  --      0.0071                 0.0137                 0.0147
 IR Inten    --      3.4678                 1.9930                 0.3562

                      4                      5                      6
                      A                      A                      A
 Frequencies --    154.9215               208.6764               216.0852
 Red. masses --      3.2261                 2.3706                 1.1734
 Frc consts  --      0.0456                 0.0608                 0.0323
 IR Inten    --      0.6693                 2.0110                 0.2756

                      7                      8                      9
                      A                      A                      A
 Frequencies --    254.1291               286.7064               299.8115
 Red. masses --      1.1583                 3.6562                 3.1486
 Frc consts  --      0.0441                 0.1771                 0.1667
 IR Inten    --      0.3612                 0.4619                 0.5785

                     10                     11                     12
                      A                      A                      A
 Frequencies --    330.2258               371.2288               415.9129
 Red. masses --      3.2788                 2.9804                 2.5902
 Frc consts  --      0.2107                 0.2420                 0.2640
 IR Inten    --      3.7303                 1.3432                 3.1036

                     13                     14                     15
                      A                      A                      A
 Frequencies --    445.2716               457.3076               590.1898
 Red. masses --      3.6451                 4.2012                 8.1470
 Frc consts  --      0.4258                 0.5177                 1.6720
 IR Inten    --      9.0624                 0.2762                 1.6329

                     16                     17                     18
                      A                      A                      A
 Frequencies --    640.7522               671.3001               702.7082
 Red. masses --      5.1798                 6.4418                 6.1845
 Frc consts  --      1.2530                 1.7104                 1.7993
 IR Inten    --      1.7018                 2.2939                 0.9053

                     19                     20                     21
                      A                      A                      A
 Frequencies --    757.2998               849.8215               883.4014
 Red. masses --      5.2656                 1.6232                 1.3283
 Frc consts  --      1.7792                 0.6907                 0.6108
 IR Inten    --     12.5101                10.2158                 1.4176

                     22                     23                     24
                      A                      A                      A
 Frequencies --    885.1202               941.2914               949.2058
 Red. masses --      2.7632                 2.7035                 1.5087
 Frc consts  --      1.2755                 1.4113                 0.8009
 IR Inten    --     13.2534                13.5125                 3.5394

                     25                     26                     27
                      A                      A                      A
 Frequencies --    973.9916               991.7709              1007.8258
 Red. masses --      2.0731                 1.1914                 1.3087
 Frc consts  --      1.1587                 0.6905                 0.7832
 IR Inten    --      3.6677                11.1143                17.3242

                     28                     29                     30
                      A                      A                      A
 Frequencies --   1034.3652              1114.3911              1186.4540
 Red. masses --      1.3274                 7.0620                 3.1880
 Frc consts  --      0.8367                 5.1672                 2.6441
 IR Inten    --      0.1225                71.3327               124.2513

                     31                     32                     33
                      A                      A                      A
 Frequencies --   1209.5965              1251.5662              1277.6614
 Red. masses --      3.1471                 3.4942                 2.3720
 Frc consts  --      2.7129                 3.2248                 2.2814
 IR Inten    --     61.4801                12.7953                53.2274

                     34                     35                     36
                      A                      A                      A
 Frequencies --   1331.8222              1376.6077              1399.4133
 Red. masses --      1.4125                 1.1584                 1.4278
 Frc consts  --      1.4761                 1.2934                 1.6474
 IR Inten    --      0.5746                 2.4855                 1.8761

                     37                     38                     39
                      A                      A                      A
 Frequencies --   1423.4411              1443.6928              1495.5608
 Red. masses --      1.2838                 1.2481                 1.0534
 Frc consts  --      1.5326                 1.5327                 1.3882
 IR Inten    --     14.3980                 8.2588                 8.7154

                     40                     41                     42
                      A                      A                      A
 Frequencies --   1505.2694              1513.6309              1517.7105
 Red. masses --      1.0507                 1.0462                 1.0540
 Frc consts  --      1.4027                 1.4123                 1.4304
 IR Inten    --      2.3991                 0.7700                 9.9825

                     43                     44                     45
                      A                      A                      A
 Frequencies --   1522.8241              1536.1185              1634.1572
 Red. masses --      1.0600                 1.0556                 6.4686
 Frc consts  --      1.4482                 1.4676                10.1777
 IR Inten    --      1.6520                11.7293                44.2441

                     46                     47                     48
                      A                      A                      A
 Frequencies --   1691.0278              3058.7378              3064.7221
 Red. masses --      9.7242                 1.0346                 1.0351
 Frc consts  --     16.3835                 5.7031                 5.7280
 IR Inten    --      7.4252                11.0701                16.0892

                     49                     50                     51
                      A                      A                      A
 Frequencies --   3070.0366              3129.3949              3134.0527
 Red. masses --      1.0292                 1.1031                 1.0910
 Frc consts  --      5.7155                 6.3648                 6.3139
 IR Inten    --     28.8698                 5.9502                14.2226

                     52                     53                     54
                      A                      A                      A
 Frequencies --   3138.5922              3143.7718              3144.9872
 Red. masses --      1.1016                 1.1037                 1.1026
 Frc consts  --      6.3934                 6.4271                 6.4253
 IR Inten    --     29.1759                18.1739                16.6422

                     55                     56                     57
                      A                      A                      A
 Frequencies --   3157.3792              3171.9591              3236.6415
 Red. masses --      1.1068                 1.1063                 1.0943
 Frc consts  --      6.5010                 6.5579                 6.7545
 IR Inten    --     11.2083                 4.4738                 5.7841

 - Thermochemistry -
 -------------------
 Temperature   298.150 Kelvin.  Pressure   1.00000 Atm.
 Atom     1 has atomic number  6 and mass  12.00000

 Molecular mass:   157.05614 amu.
 Principal axes and moments of inertia in atomic units:
                           1         2         3
     Eigenvalues --   633.871682756.474732878.81910
           X            0.99983   0.00959  -0.01585
           Y           -0.01090   0.99632  -0.08507
           Z            0.01497   0.08523   0.99625
 This molecule is an asymmetric top.
 Rotational symmetry number  1.
 Warning -- assumption of classical behavior for rotation
           may cause significant error
 Rotational temperatures (Kelvin)      0.13664     0.03142     0.03009
 Rotational constants (GHZ):           2.84717     0.65473     0.62690
 Zero-point vibrational energy     451524.2 (Joules/Mol)
                                  107.91686 (Kcal/Mol)
 Warning -- explicit consideration of  15 degrees of freedom as
           vibrations may cause significant error
 Vibrational temperatures:     84.49   111.90   218.56   222.90   300.24
          (Kelvin)            310.90   365.64   412.51   431.36   475.12
                              534.12   598.41   640.65   657.96   849.15
                              921.90   965.85  1011.04  1089.59  1222.70
                             1271.02  1273.49  1354.31  1365.70  1401.36
                             1426.94  1450.04  1488.22  1603.36  1707.04
                             1740.34  1800.72  1838.27  1916.20  1980.63
                             2013.44  2048.01  2077.15  2151.78  2165.75
                             2177.78  2183.65  2191.00  2210.13  2351.19
                             2433.01  4400.84  4409.45  4417.10  4502.50
                             4509.20  4515.73  4523.19  4524.94  4542.76
                             4563.74  4656.81

 Zero-point correction=                           0.171976 (Hartree/Particle)
 Thermal correction to Energy=                    0.182846
 Thermal correction to Enthalpy=                  0.183790
 Thermal correction to Gibbs Free Energy=         0.135591
 Sum of electronic and zero-point Energies=           -801.359529
 Sum of electronic and thermal Energies=              -801.348659
 Sum of electronic and thermal Enthalpies=            -801.347715
 Sum of electronic and thermal Free Energies=         -801.395914

                     E (Thermal)             CV                S
                      KCal/Mol        Cal/Mol-Kelvin    Cal/Mol-Kelvin
 Total                  114.738             40.269            101.443
 Electronic               0.000              0.000              0.000
 Translational            0.889              2.981             41.064
 Rotational               0.889              2.981             29.999
 Vibrational            112.960             34.307             30.380
 Vibration     1          0.596              1.974              4.500
 Vibration     2          0.599              1.964              3.946
 Vibration     3          0.619              1.901              2.648
 Vibration     4          0.620              1.897              2.611
 Vibration     5          0.642              1.827              2.055
 Vibration     6          0.645              1.817              1.992
 Vibration     7          0.665              1.756              1.702
 Vibration     8          0.684              1.698              1.493
 Vibration     9          0.692              1.674              1.418
 Vibration    10          0.713              1.615              1.259
 Vibration    11          0.743              1.531              1.075
 Vibration    12          0.779              1.436              0.906
 Vibration    13          0.805              1.371              0.810
 Vibration    14          0.815              1.345              0.774
 Vibration    15          0.948              1.053              0.467

 Optimization completed.
    -- Stationary point found.
 Normal termination of Gaussian 16 at Tue Dec  8 12:18:34 2020.

 ----------------------------------------------------------------------
 # B3LYP/6-311++G(d,p) empiricaldispersion=gd3bj scf=xqc pop=npa geom=c
 heck
 ----------------------------------------------------------------------

 --------------------------------------
 CID_139381326_JID_597_Energie_neutraal
 --------------------------------------
 Structure from the checkpoint file:  "JID_597.chk"
 Charge =  0 Multiplicity = 1

 SCF Done:  E(RB3LYP) =  -801.670801878     A.U. after   14 cycles
 Normal termination of Gaussian 16 at Tue Dec  8 12:22:13 2020.

 ----------------------------------------------------------------------
 # B3LYP/6-311++G(d,p) empiricaldispersion=gd3bj scf=xqc pop=npa geom=c
 heck
 ----------------------------------------------------------------------

 ------------------------------------
 CID_139381326_JID_597_Energie_kation
 ------------------------------------
 Structure from the checkpoint file:  "JID_597.chk"
 Charge =  1 Multiplicity = 2

 SCF Done:  E(UB3LYP) =  -801.386520122     A.U. after   21 cycles
 Normal termination of Gaussian 16 at Tue Dec  8 12:26:10 2020.
 Gaussian 16:  ES64L-G16RevA.03 25-Dec-2016

 ----------------------------------------------------------------------
 # B3LYP/6-311++G(d,p) empiricaldispersion=gd3bj scf=xqc pop=npa geom=c
 heck
 ----------------------------------------------------------------------

 -----------------------------------
 CID_139381326_JID_597_Energie_anion
 -----------------------------------
 Structure from the checkpoint file:  "JID_597.chk"
 Charge = -1 Multiplicity = 2

                         Standard orientation:
 ---------------------------------------------------------------------
 Center     Atomic      Atomic             Coordinates (Angstroms)
 Number     Number       Type             X           Y           Z
 ---------------------------------------------------------------------
      1          6           0       -2.189194   -0.756412    1.282062
      2          6           0       -1.912508    0.086010    0.031713
      3          6           0       -0.954163    1.220434    0.361640
      4          7           0        0.315878    1.073109    0.383598
      5          6           0        0.815953   -0.170946   -0.037209
      6          6           0        0.045363   -0.989451   -0.784848
      7          8           0       -1.277348   -0.759893   -0.973327
      8         16           0        2.491459   -0.587078    0.361238
      9          6           0        3.360335    0.844746   -0.383102
     10          6           0       -3.196365    0.593381   -0.611890
     11          1           0       -2.688552   -0.147861    2.043464
     12          1           0       -1.256241   -1.139451    1.704822
     13          1           0       -2.836392   -1.602166    1.026895
     14          1           0       -1.371798    2.202441    0.593133
     15          1           0        0.415643   -1.846468   -1.335855
     16          1           0        3.350612    0.785258   -1.474420
     17          1           0        2.876625    1.765887   -0.052458
     18          1           0        4.391660    0.820796   -0.022373
     19          1           0       -3.838108   -0.248652   -0.887314
     20          1           0       -3.743167    1.232753    0.088889
     21          1           0       -2.972524    1.171532   -1.513345
 ---------------------------------------------------------------------

 SCF Done:  E(UB3LYP) =  -801.660958685     A.U. after   33 cycles
 SCF Done:  E(UB3LYP) =  -801.661555145     a.u. after    9 cycles

 The electronic state is 2-A.
 Alpha  occ. eigenvalues --  -88.71179 -19.00605 -14.14273 -10.09971 -10.06957
 Alpha  occ. eigenvalues --  -10.06776 -10.05912 -10.04067 -10.03226 -10.02609
 Alpha  occ. eigenvalues --   -7.79751  -5.76165  -5.75773  -5.75131  -0.92575
 Alpha  occ. eigenvalues --   -0.77185  -0.67941  -0.65234  -0.58563  -0.56660
 Alpha  occ. eigenvalues --   -0.51624  -0.49180  -0.46706  -0.37819  -0.35747
 Alpha  occ. eigenvalues --   -0.34406  -0.31762  -0.30816  -0.30633  -0.29514
 Alpha  occ. eigenvalues --   -0.27652  -0.27021  -0.25556  -0.24548  -0.23128
 Alpha  occ. eigenvalues --   -0.21848  -0.21427  -0.19207  -0.18645  -0.11413
 Alpha  occ. eigenvalues --   -0.09915  -0.06695   0.06062
 Alpha virt. eigenvalues --    0.08380   0.08610   0.10022   0.10623   0.11214
 Alpha virt. eigenvalues --    0.11938   0.12434   0.12978   0.13838   0.14352
 Alpha virt. eigenvalues --    0.14374   0.15468   0.16109   0.16891   0.17559

  Beta  occ. eigenvalues --  -88.71177 -19.00440 -14.14005 -10.09985 -10.06967
  Beta  occ. eigenvalues --  -10.06489 -10.05925 -10.04049 -10.02806 -10.02553
  Beta  occ. eigenvalues --   -7.79750  -5.76162  -5.75773  -5.75126  -0.92238
  Beta  occ. eigenvalues --   -0.76584  -0.67714  -0.65185  -0.58357  -0.56563
  Beta  occ. eigenvalues --   -0.51379  -0.48398  -0.46562  -0.37596  -0.35549
  Beta  occ. eigenvalues --   -0.34096  -0.31475  -0.30663  -0.30575  -0.29336
  Beta  occ. eigenvalues --   -0.27415  -0.26924  -0.25407  -0.24282  -0.22986
  Beta  occ. eigenvalues --   -0.21568  -0.20974  -0.19045  -0.17102  -0.10977
  Beta  occ. eigenvalues --   -0.09643  -0.05611
  Beta virt. eigenvalues --    0.08514   0.08774   0.10282   0.10651   0.11168
  Beta virt. eigenvalues --    0.11992   0.12445   0.12597   0.13064   0.14161
  Beta virt. eigenvalues --    0.14297   0.14497   0.15557   0.16368   0.17072

 Mulliken charges and spin densities:
               1          2
     1  C    1.067325  -1.633586
     2  C   -0.826703   0.832909
     3  C   -0.062825   0.197812
     4  N   -0.011096   0.098872
     5  C    0.055228  -0.212574
     6  C   -0.164113   0.440261
     7  O   -0.031661   0.028053
     8  S   -0.366582  -0.013242
     9  C   -0.574074  -0.000829
    10  C   -0.086059  -0.286861
    11  H   -0.274172   0.406088
    12  H   -0.068142   0.233847
    13  H   -0.426161   0.573937
    14  H    0.054342   0.072235
    15  H    0.092183   0.051885
    16  H    0.137120  -0.000212
    17  H    0.181994  -0.001131
    18  H    0.104880   0.006949
    19  H    0.106337   0.033454
    20  H   -0.048765   0.172523
    21  H    0.140945  -0.000391
 Sum of Mulliken charges =  -1.00000   1.00000

 Dipole moment (field-independent basis, Debye):
    X=              2.9989    Y=              1.5385    Z=             -3.3084  Tot=              4.7229
 Quadrupole moment (field-independent basis, Debye-Ang):
   XX=           -102.8019   YY=            -90.8708   ZZ=            -88.6061
   XY=             -2.5365   XZ=              5.4056   YZ=              0.2082

 Summary of Natural Population Analysis:

                                       Natural Population
                Natural  -----------------------------------------------
    Atom  No    Charge         Core      Valence    Rydberg      Total
 -----------------------------------------------------------------------
      C    1   -0.29458      0.99960     2.28812    0.00686     3.29458
      C    2    0.10320      0.99952     1.88209    0.01519     2.89680
      C    3    0.11714      0.99957     1.86427    0.01902     2.88286
      N    4   -0.21878      0.99965     2.70557    0.01356     3.71878
      C    5   -0.07904      0.99940     2.06008    0.01956     3.07904
      C    6    0.12379      0.99935     1.86060    0.01626     2.87621
      O    7   -0.27085      0.99987     3.26032    0.01066     4.27085
      S    8    0.09238      4.99955     2.88350    0.02456     7.90762
      C    9   -0.35356      0.99962     2.34866    0.00528     3.35356
      C   10   -0.28509      0.99961     2.27806    0.00742     3.28509
      H   11    0.10052      0.00000     0.39831    0.00116     0.39948
      H   12    0.10687      0.00000     0.39141    0.00172     0.39313
      H   13    0.09889      0.00000     0.39847    0.00264     0.40111
      H   14    0.07496      0.00000     0.42373    0.00131     0.42504
      H   15    0.08487      0.00000     0.41382    0.00132     0.41513
      H   16    0.09428      0.00000     0.40430    0.00142     0.40572
      H   17    0.11203      0.00000     0.38657    0.00140     0.38797
      H   18    0.09472      0.00000     0.40442    0.00086     0.40528
      H   19    0.09849      0.00000     0.40041    0.00110     0.40151
      H   20    0.09919      0.00000     0.39997    0.00085     0.40081
      H   21    0.10057      0.00000     0.39851    0.00092     0.39943
 =======================================================================
   * Total *   -0.00000     13.99575    27.85117    0.15308    42.00000

 Normal termination of Gaussian 16 at Tue Dec  8 13:17:20 2020.
