 Gaussian 16, Revision A.03,

 -----------------------------------------------------------
 # opt freq B3LYP/6-31G(d) empiricaldispersion=gd3bj scf=xqc
 -----------------------------------------------------------

 ------------------------------
 CID_10631100_JID_3565_neutraal
 ------------------------------
 Symbolic Z-matrix:
 Charge =  0 Multiplicity = 1

 SCF Done:  E(RB3LYP) =  -576.860907284     A.U. after   14 cycles
 SCF Done:  E(RB3LYP) =  -576.863711766     A.U. after   11 cycles
 SCF Done:  E(RB3LYP) =  -576.863904662     A.U. after   11 cycles
 SCF Done:  E(RB3LYP) =  -576.863919725     A.U. after    9 cycles
 SCF Done:  E(RB3LYP) =  -576.863923847     A.U. after    8 cycles
 SCF Done:  E(RB3LYP) =  -576.863927988     A.U. after    8 cycles
 SCF Done:  E(RB3LYP) =  -576.863954976     A.U. after   10 cycles
 SCF Done:  E(RB3LYP) =  -576.863854163     A.U. after   12 cycles
 SCF Done:  E(RB3LYP) =  -576.864035464     A.U. after   10 cycles
 SCF Done:  E(RB3LYP) =  -576.864047332     A.U. after   12 cycles
 SCF Done:  E(RB3LYP) =  -576.864808310     A.U. after   11 cycles
 SCF Done:  E(RB3LYP) =  -576.864822481     A.U. after    9 cycles
 SCF Done:  E(RB3LYP) =  -576.864823334     A.U. after    8 cycles
 SCF Done:  E(RB3LYP) =  -576.864823477     A.U. after    7 cycles
 SCF Done:  E(RB3LYP) =  -576.864823555     A.U. after    7 cycles
 Optimization completed.
    -- Stationary point found.
 Normal termination of Gaussian 16 at Wed Dec  9 23:41:54 2020.

 --------------------------------------------------------------------
 #N Geom=AllCheck Guess=TCheck SCRF=Check GenChk RB3LYP/6-31G(d) Freq
 --------------------------------------------------------------------

 Structure from the checkpoint file:  "JID_3565.chk"
 ------------------------------
 CID_10631100_JID_3565_neutraal
 ------------------------------
 Charge =  0 Multiplicity = 1

 SCF Done:  E(RB3LYP) =  -576.864823555     A.U. after    1 cycles

  Exact polarizability: 208.224  -8.154 115.263   1.190  -1.015  59.740
 Approx polarizability: 291.461 -18.589 199.407   1.803   0.681  90.050

                      1                      2                      3
                      A                      A                      A
 Frequencies --     59.6803                91.0838               115.2652
 Red. masses --      3.4325                 2.9294                 2.8175
 Frc consts  --      0.0072                 0.0143                 0.0221
 IR Inten    --      3.0124                 2.3510                 1.2753

                      4                      5                      6
                      A                      A                      A
 Frequencies --    171.4746               194.4858               207.7976
 Red. masses --      1.8574                 2.3641                 1.5583
 Frc consts  --      0.0322                 0.0527                 0.0396
 IR Inten    --      1.1349                 0.8268                 0.3475

                      7                      8                      9
                      A                      A                      A
 Frequencies --    249.7982               265.9956               290.3482
 Red. masses --      4.3537                 1.3416                 2.8744
 Frc consts  --      0.1601                 0.0559                 0.1428
 IR Inten    --      1.8789                 0.9751                 3.4770

                     10                     11                     12
                      A                      A                      A
 Frequencies --    341.0533               367.5067               413.6410
 Red. masses --      4.9451                 3.5074                 3.8486
 Frc consts  --      0.3389                 0.2791                 0.3880
 IR Inten    --      0.3466                 0.5716                 1.8472

                     13                     14                     15
                      A                      A                      A
 Frequencies --    456.6387               469.9441               520.1830
 Red. masses --      2.9960                 3.1649                 4.3042
 Frc consts  --      0.3681                 0.4118                 0.6862
 IR Inten    --      0.7122                 2.9017                 3.8165

                     16                     17                     18
                      A                      A                      A
 Frequencies --    532.0384               583.9009               639.8781
 Red. masses --      5.7906                 6.0221                 3.9869
 Frc consts  --      0.9657                 1.2097                 0.9618
 IR Inten    --      3.9645                13.1856                 4.1764

                     19                     20                     21
                      A                      A                      A
 Frequencies --    652.4409               727.6790               747.6391
 Red. masses --      4.7024                 3.9792                 6.6677
 Frc consts  --      1.1794                 1.2415                 2.1959
 IR Inten    --      6.2573                 3.3736                 5.5215

                     22                     23                     24
                      A                      A                      A
 Frequencies --    798.6471               839.4055               863.3833
 Red. masses --      1.4267                 3.6398                 1.4430
 Frc consts  --      0.5361                 1.5110                 0.6338
 IR Inten    --     19.0811                 1.4548                31.1366

                     25                     26                     27
                      A                      A                      A
 Frequencies --    879.3351               905.5986               928.2277
 Red. masses --      1.5595                 2.5462                 1.3717
 Frc consts  --      0.7104                 1.2303                 0.6963
 IR Inten    --      3.1722                 8.0809                 5.4861

                     28                     29                     30
                      A                      A                      A
 Frequencies --    945.9547              1004.9888              1042.1745
 Red. masses --      4.0618                 1.5791                 1.8369
 Frc consts  --      2.1415                 0.9397                 1.1755
 IR Inten    --      1.1331                19.2938                13.0519

                     31                     32                     33
                      A                      A                      A
 Frequencies --   1073.4478              1081.8517              1098.7984
 Red. masses --      2.1644                 4.7931                 1.7020
 Frc consts  --      1.4694                 3.3052                 1.2107
 IR Inten    --     16.9550                14.2683                 0.1949

                     34                     35                     36
                      A                      A                      A
 Frequencies --   1154.8821              1186.5463              1195.1611
 Red. masses --      1.9212                 1.2709                 1.5308
 Frc consts  --      1.5097                 1.0542                 1.2883
 IR Inten    --     67.0125                 0.7795                 0.3192

                     37                     38                     39
                      A                      A                      A
 Frequencies --   1205.9561              1231.4248              1251.4295
 Red. masses --      2.0658                 1.6798                 1.8608
 Frc consts  --      1.7701                 1.5008                 1.7169
 IR Inten    --    225.9336               114.3236                 1.5022

                     40                     41                     42
                      A                      A                      A
 Frequencies --   1284.4086              1303.1480              1319.5183
 Red. masses --      1.1611                 2.1292                 3.2927
 Frc consts  --      1.1286                 2.1304                 3.3778
 IR Inten    --      1.1276                12.7722               107.0804

                     43                     44                     45
                      A                      A                      A
 Frequencies --   1362.1984              1397.4353              1431.1172
 Red. masses --      3.3952                 2.7626                 1.7136
 Frc consts  --      3.7119                 3.1786                 2.0678
 IR Inten    --     56.6111                59.2277                 1.2483

                     46                     47                     48
                      A                      A                      A
 Frequencies --   1443.6297              1490.3955              1502.3835
 Red. masses --      1.2786                 2.1410                 1.4502
 Frc consts  --      1.5700                 2.8020                 1.9286
 IR Inten    --      1.8649                21.1859                20.2843

                     49                     50                     51
                      A                      A                      A
 Frequencies --   1505.9273              1520.4020              1521.0199
 Red. masses --      1.0457                 1.0480                 1.0866
 Frc consts  --      1.3972                 1.4273                 1.4812
 IR Inten    --      7.9206                 5.2553                 4.7208

                     52                     53                     54
                      A                      A                      A
 Frequencies --   1531.9565              1537.0861              1555.0528
 Red. masses --      1.1371                 1.0952                 2.8237
 Frc consts  --      1.5723                 1.5246                 4.0231
 IR Inten    --     27.4144                37.9074                78.8757

                     55                     56                     57
                      A                      A                      A
 Frequencies --   1625.0038              1680.8574              1739.6469
 Red. masses --      6.5398                 6.7256                 6.9032
 Frc consts  --     10.1748                11.1954                12.3090
 IR Inten    --     56.0266               208.4071                 3.8195

                     58                     59                     60
                      A                      A                      A
 Frequencies --   2959.1686              3020.7569              3025.6907
 Red. masses --      1.0738                 1.0400                 1.0347
 Frc consts  --      5.5399                 5.5914                 5.5811
 IR Inten    --     95.5431                73.0920                61.3421

                     61                     62                     63
                      A                      A                      A
 Frequencies --   3062.9265              3084.0666              3089.7849
 Red. masses --      1.0990                 1.1066                 1.0891
 Frc consts  --      6.0749                 6.2013                 6.1257
 IR Inten    --     25.1405                44.8003                45.6119

                     64                     65                     66
                      A                      A                      A
 Frequencies --   3125.5835              3158.2698              3172.3065
 Red. masses --      1.0984                 1.0998                 1.0908
 Frc consts  --      6.3223                 6.4633                 6.4676
 IR Inten    --     18.6399                30.0194                17.8784

                     67                     68                     69
                      A                      A                      A
 Frequencies --   3182.3339              3232.9617              3235.8783
 Red. masses --      1.0894                 1.0915                 1.0911
 Frc consts  --      6.5001                 6.7214                 6.7311
 IR Inten    --     20.6207                 1.4062                13.1866

 - Thermochemistry -
 -------------------
 Temperature   298.150 Kelvin.  Pressure   1.00000 Atm.
 Atom     1 has atomic number  6 and mass  12.00000

 Molecular mass:   176.08373 amu.
 Principal axes and moments of inertia in atomic units:
                           1         2         3
     Eigenvalues --   708.047204268.749374924.81181
           X            0.99999  -0.00447   0.00055
           Y            0.00448   0.99996  -0.00770
           Z           -0.00052   0.00771   0.99997
 This molecule is an asymmetric top.
 Rotational symmetry number  1.
 Warning -- assumption of classical behavior for rotation
           may cause significant error
 Rotational temperatures (Kelvin)      0.12233     0.02029     0.01759
 Rotational constants (GHZ):           2.54890     0.42278     0.36646
 Zero-point vibrational energy     543622.6 (Joules/Mol)
                                  129.92892 (Kcal/Mol)
 Warning -- explicit consideration of  17 degrees of freedom as
           vibrations may cause significant error
 Vibrational temperatures:     85.87   131.05   165.84   246.71   279.82
          (Kelvin)            298.97   359.40   382.71   417.75   490.70
                              528.76   595.14   657.00   676.14   748.43
                              765.48   840.10   920.64   938.72  1046.97
                             1075.69  1149.08  1207.72  1242.22  1265.17
                             1302.95  1335.51  1361.02  1445.95  1499.46
                             1544.45  1556.54  1580.93  1661.62  1707.18
                             1719.57  1735.10  1771.75  1800.53  1847.98
                             1874.94  1898.49  1959.90  2010.60  2059.06
                             2077.06  2144.35  2161.59  2166.69  2187.52
                             2188.41  2204.14  2211.52  2237.37  2338.02
                             2418.38  2502.96  4257.58  4346.20  4353.29
                             4406.87  4437.28  4445.51  4497.02  4544.05
                             4564.24  4578.67  4651.51  4655.71

 Zero-point correction=                           0.207055 (Hartree/Particle)
 Thermal correction to Energy=                    0.218599
 Thermal correction to Enthalpy=                  0.219543
 Thermal correction to Gibbs Free Energy=         0.169711
 Sum of electronic and zero-point Energies=           -576.657769
 Sum of electronic and thermal Energies=              -576.646225
 Sum of electronic and thermal Enthalpies=            -576.645280
 Sum of electronic and thermal Free Energies=         -576.695113

                     E (Thermal)             CV                S
                      KCal/Mol        Cal/Mol-Kelvin    Cal/Mol-Kelvin
 Total                  137.173             44.702            104.882
 Electronic               0.000              0.000              0.000
 Translational            0.889              2.981             41.405
 Rotational               0.889              2.981             31.077
 Vibrational            135.395             38.740             32.400
 Vibration     1          0.597              1.974              4.468
 Vibration     2          0.602              1.956              3.637
 Vibration     3          0.608              1.937              3.178
 Vibration     4          0.626              1.878              2.419
 Vibration     5          0.635              1.848              2.185
 Vibration     6          0.641              1.829              2.063
 Vibration     7          0.663              1.763              1.732
 Vibration     8          0.672              1.735              1.622
 Vibration     9          0.686              1.692              1.472
 Vibration    10          0.721              1.593              1.207
 Vibration    11          0.740              1.539              1.090
 Vibration    12          0.777              1.441              0.914
 Vibration    13          0.815              1.346              0.776
 Vibration    14          0.827              1.317              0.738
 Vibration    15          0.875              1.205              0.610
 Vibration    16          0.887              1.179              0.583
 Vibration    17          0.941              1.066              0.478

 Optimization completed.
    -- Stationary point found.
 Normal termination of Gaussian 16 at Wed Dec  9 23:47:30 2020.

 ----------------------------------------------------------------------
 # B3LYP/6-311++G(d,p) empiricaldispersion=gd3bj scf=xqc pop=npa geom=c
 heck
 ----------------------------------------------------------------------

 --------------------------------------
 CID_10631100_JID_3565_Energie_neutraal
 --------------------------------------
 Structure from the checkpoint file:  "JID_3565.chk"
 Charge =  0 Multiplicity = 1

 SCF Done:  E(RB3LYP) =  -577.019949223     A.U. after   15 cycles
 Normal termination of Gaussian 16 at Wed Dec  9 23:50:01 2020.

 ----------------------------------------------------------------------
 # B3LYP/6-311++G(d,p) empiricaldispersion=gd3bj scf=xqc pop=npa geom=c
 heck
 ----------------------------------------------------------------------

 ------------------------------------
 CID_10631100_JID_3565_Energie_kation
 ------------------------------------
 Structure from the checkpoint file:  "JID_3565.chk"
 Charge =  1 Multiplicity = 2

 SCF Done:  E(UB3LYP) =  -576.755688109     A.U. after   20 cycles
 Normal termination of Gaussian 16 at Wed Dec  9 23:54:49 2020.
 Gaussian 16:  ES64L-G16RevA.03 25-Dec-2016

 ----------------------------------------------------------------------
 # B3LYP/6-311++G(d,p) empiricaldispersion=gd3bj scf=xqc pop=npa geom=c
 heck
 ----------------------------------------------------------------------

 -----------------------------------
 CID_10631100_JID_3565_Energie_anion
 -----------------------------------
 Structure from the checkpoint file:  "JID_3565.chk"
 Charge = -1 Multiplicity = 2

                         Standard orientation:
 ---------------------------------------------------------------------
 Center     Atomic      Atomic             Coordinates (Angstroms)
 Number     Number       Type             X           Y           Z
 ---------------------------------------------------------------------
      1          6           0        4.366355    0.526021   -0.025815
      2          6           0        2.901259    0.214063    0.019037
      3          6           0        1.921993    1.123988   -0.096321
      4          6           0        0.523386    0.725296   -0.029340
      5          6           0        0.223425   -0.654153   -0.082882
      6          6           0       -1.086256   -1.108024   -0.082812
      7          6           0       -2.139134   -0.184666   -0.016400
      8          6           0       -1.871952    1.188384    0.048479
      9          6           0       -0.544845    1.620919    0.035348
     10          8           0       -3.390469   -0.728635   -0.014641
     11          6           0       -4.496658    0.153839    0.062656
     12          8           0        1.219105   -1.581100   -0.209344
     13          6           0        2.514928   -1.221001    0.285131
     14          1           0        4.862002    0.001186   -0.854542
     15          1           0        4.873087    0.203784    0.895638
     16          1           0        4.540781    1.599278   -0.148074
     17          1           0        2.153205    2.175853   -0.252436
     18          1           0       -1.299374   -2.169380   -0.134324
     19          1           0       -2.672532    1.915380    0.101339
     20          1           0       -0.333102    2.686850    0.071443
     21          1           0       -4.477913    0.742992    0.989011
     22          1           0       -4.527707    0.836998   -0.796342
     23          1           0       -5.386033   -0.478571    0.053955
     24          1           0        2.556430   -1.431420    1.369201
     25          1           0        3.207058   -1.913066   -0.205478
 ---------------------------------------------------------------------

 SCF Done:  E(UB3LYP) =  -577.005330086     A.U. after   33 cycles
 SCF Done:  E(UB3LYP) =  -577.005330085     a.u. after    1 cycles

 The electronic state is 2-A.
 Alpha  occ. eigenvalues --  -19.05762 -19.05557 -10.13785 -10.13672 -10.13494
 Alpha  occ. eigenvalues --  -10.12404 -10.08319 -10.07893 -10.07751 -10.07332
 Alpha  occ. eigenvalues --  -10.07259 -10.07024 -10.06918  -0.97435  -0.97246
 Alpha  occ. eigenvalues --   -0.75957  -0.72583  -0.67095  -0.65810  -0.61940
 Alpha  occ. eigenvalues --   -0.59277  -0.57105  -0.51722  -0.50412  -0.44747
 Alpha  occ. eigenvalues --   -0.43506  -0.40930  -0.39227  -0.38839  -0.37342
 Alpha  occ. eigenvalues --   -0.36807  -0.34300  -0.32418  -0.31996  -0.31899
 Alpha  occ. eigenvalues --   -0.31304  -0.30406  -0.29197  -0.28278  -0.26526
 Alpha  occ. eigenvalues --   -0.25367  -0.24027  -0.23115  -0.21080  -0.17628
 Alpha  occ. eigenvalues --   -0.13808  -0.10284   0.04318
 Alpha virt. eigenvalues --    0.05578   0.06619   0.07465   0.08127   0.08648
 Alpha virt. eigenvalues --    0.08902   0.09229   0.09814   0.10328   0.10682
 Alpha virt. eigenvalues --    0.11675   0.12317   0.13227   0.13405   0.13799

  Beta  occ. eigenvalues --  -19.05750 -19.05555 -10.13765 -10.13669 -10.13475
  Beta  occ. eigenvalues --  -10.12355 -10.08285 -10.07862 -10.07748 -10.07290
  Beta  occ. eigenvalues --  -10.07238 -10.07019 -10.06915  -0.97411  -0.97233
  Beta  occ. eigenvalues --   -0.75928  -0.72521  -0.67049  -0.65773  -0.61874
  Beta  occ. eigenvalues --   -0.59217  -0.57051  -0.51686  -0.50346  -0.44697
  Beta  occ. eigenvalues --   -0.43450  -0.40889  -0.39195  -0.38798  -0.37296
  Beta  occ. eigenvalues --   -0.36757  -0.34264  -0.32369  -0.31934  -0.31851
  Beta  occ. eigenvalues --   -0.31257  -0.30373  -0.29147  -0.28236  -0.26480
  Beta  occ. eigenvalues --   -0.25322  -0.23976  -0.23061  -0.21039  -0.17537
  Beta  occ. eigenvalues --   -0.13747  -0.10180
  Beta virt. eigenvalues --    0.06545   0.06875   0.06933   0.08055   0.08697
  Beta virt. eigenvalues --    0.08790   0.09389   0.09603   0.10573   0.10613
  Beta virt. eigenvalues --    0.11245   0.11876   0.12720   0.13403   0.13481

 Mulliken charges and spin densities:
               1          2
     1  C    2.594177  -3.089310
     2  C   -1.835052   2.553251
     3  C    0.885794  -1.093663
     4  C    2.510569  -0.609022
     5  C   -1.260517  -0.428867
     6  C   -1.231751   0.652350
     7  C   -0.660712   0.057509
     8  C   -0.039314   0.053352
     9  C    0.481709  -0.333255
    10  O   -0.216983   0.058950
    11  C    0.925932  -1.265160
    12  O   -0.123062   0.027265
    13  C   -0.298894  -0.249826
    14  H   -0.065057   0.212598
    15  H   -0.419784   0.573303
    16  H   -0.606812   0.766967
    17  H   -0.027611   0.161128
    18  H    0.125328   0.063810
    19  H   -0.193218   0.380764
    20  H   -0.392178   0.526584
    21  H   -0.305030   0.460118
    22  H   -0.211041   0.360421
    23  H   -0.593813   0.768453
    24  H   -0.039566   0.216499
    25  H   -0.003113   0.175779
 Sum of Mulliken charges =  -1.00000   1.00000

 Dipole moment (field-independent basis, Debye):
    X=              0.7606    Y=             -2.6400    Z=             -1.1219  Tot=              2.9677
 Quadrupole moment (field-independent basis, Debye-Ang):
   XX=           -189.2601   YY=           -110.6809   ZZ=           -104.1554
   XY=             -2.9840   XZ=             -3.5532   YZ=             -1.1555

 Summary of Natural Population Analysis:

                                       Natural Population
                Natural  -----------------------------------------------
    Atom  No    Charge         Core      Valence    Rydberg      Total
 -----------------------------------------------------------------------
      C    1   -0.29612      0.99963     2.29027    0.00623     3.29612
      C    2   -0.01185      0.99951     2.00280    0.00953     3.01185
      C    3   -0.09990      0.99944     2.08989    0.01056     3.09990
      C    4   -0.07665      0.99947     2.06793    0.00925     3.07665
      C    5    0.17793      0.99935     1.81027    0.01245     2.82207
      C    6   -0.14374      0.99948     2.13498    0.00928     3.14374
      C    7    0.17060      0.99940     1.81616    0.01384     2.82940
      C    8   -0.15845      0.99952     2.15005    0.00888     3.15845
      C    9   -0.07187      0.99955     2.06287    0.00945     3.07187
      O   10   -0.27288      0.99986     3.26309    0.00993     4.27288
      C   11   -0.10069      0.99960     2.09188    0.00921     3.10069
      O   12   -0.27607      0.99986     3.26749    0.00873     4.27607
      C   13   -0.01436      0.99951     2.00245    0.01240     3.01436
      H   14    0.10157      0.00000     0.39723    0.00120     0.39843
      H   15    0.10585      0.00000     0.39115    0.00300     0.39415
      H   16    0.10645      0.00000     0.39199    0.00155     0.39355
      H   17    0.10063      0.00000     0.39780    0.00157     0.39937
      H   18    0.10930      0.00000     0.38907    0.00164     0.39070
      H   19    0.10749      0.00000     0.39103    0.00148     0.39251
      H   20    0.09934      0.00000     0.39912    0.00154     0.40066
      H   21    0.08656      0.00000     0.41130    0.00214     0.41344
      H   22    0.08467      0.00000     0.41361    0.00172     0.41533
      H   23    0.09428      0.00000     0.40421    0.00151     0.40572
      H   24    0.08521      0.00000     0.41313    0.00166     0.41479
      H   25    0.09271      0.00000     0.40582    0.00148     0.40729
 =======================================================================
   * Total *    0.00000     12.99418    33.85559    0.15023    47.00000

 Normal termination of Gaussian 16 at Thu Dec 10 00:02:35 2020.
