 Gaussian 16, Revision A.03,

 -----------------------------------------------------------
 # opt freq B3LYP/6-31G(d) empiricaldispersion=gd3bj scf=xqc
 -----------------------------------------------------------

 -------------------------------
 CID_129805514_JID_2775_neutraal
 -------------------------------
 Symbolic Z-matrix:
 Charge =  0 Multiplicity = 1

 SCF Done:  E(RB3LYP) =  -537.469614787     A.U. after   15 cycles
 SCF Done:  E(RB3LYP) =  -537.490272201     A.U. after   13 cycles
 SCF Done:  E(RB3LYP) =  -537.490137639     A.U. after   14 cycles
 SCF Done:  E(RB3LYP) =  -537.490378981     A.U. after   13 cycles
 SCF Done:  E(RB3LYP) =  -537.492150235     A.U. after   13 cycles
 SCF Done:  E(RB3LYP) =  -537.491577818     A.U. after   12 cycles
 SCF Done:  E(RB3LYP) =  -537.492400248     A.U. after   11 cycles
 SCF Done:  E(RB3LYP) =  -537.492423612     A.U. after   11 cycles
 SCF Done:  E(RB3LYP) =  -537.492428063     A.U. after   10 cycles
 SCF Done:  E(RB3LYP) =  -537.492430496     A.U. after    9 cycles
 SCF Done:  E(RB3LYP) =  -537.492439270     A.U. after   11 cycles
 SCF Done:  E(RB3LYP) =  -537.492439821     A.U. after   10 cycles
 SCF Done:  E(RB3LYP) =  -537.492440304     A.U. after    9 cycles
 SCF Done:  E(RB3LYP) =  -537.492440856     A.U. after    9 cycles
 SCF Done:  E(RB3LYP) =  -537.492440860     A.U. after    6 cycles
 Optimization completed.
    -- Stationary point found.
 Normal termination of Gaussian 16 at Wed Dec  9 18:10:20 2020.

 --------------------------------------------------------------------
 #N Geom=AllCheck Guess=TCheck SCRF=Check GenChk RB3LYP/6-31G(d) Freq
 --------------------------------------------------------------------

 Structure from the checkpoint file:  "JID_2775.chk"
 -------------------------------
 CID_129805514_JID_2775_neutraal
 -------------------------------
 Charge =  0 Multiplicity = 1

 SCF Done:  E(RB3LYP) =  -537.492440860     A.U. after    1 cycles

  Exact polarizability: 135.744  -3.917  83.166  -0.826  -4.717  96.443
 Approx polarizability: 188.033  -7.537 128.044  -3.859  -9.866 162.110

                      1                      2                      3
                      A                      A                      A
 Frequencies --     20.1324                31.5767                55.8458
 Red. masses --      1.0133                 3.8422                 4.1447
 Frc consts  --      0.0002                 0.0023                 0.0076
 IR Inten    --      0.0022                 0.2477                 0.4632

                      4                      5                      6
                      A                      A                      A
 Frequencies --    117.6952               161.4450               220.5951
 Red. masses --      4.8513                 4.1388                 5.1562
 Frc consts  --      0.0396                 0.0636                 0.1478
 IR Inten    --      2.1767                 1.9026                 0.0906

                      7                      8                      9
                      A                      A                      A
 Frequencies --    276.3766               304.5804               330.7706
 Red. masses --      3.9024                 3.7173                 2.1888
 Frc consts  --      0.1756                 0.2032                 0.1411
 IR Inten    --      5.8104                 4.1156                18.1573

                     10                     11                     12
                      A                      A                      A
 Frequencies --    352.3706               377.9710               409.3816
 Red. masses --      1.9208                 1.7821                 2.8149
 Frc consts  --      0.1405                 0.1500                 0.2780
 IR Inten    --     31.3298                96.3195                32.2008

                     13                     14                     15
                      A                      A                      A
 Frequencies --    418.2421               438.5359               489.5659
 Red. masses --      2.9625                 5.1243                 3.1053
 Frc consts  --      0.3053                 0.5806                 0.4385
 IR Inten    --      3.7675                 0.8753                52.0957

                     16                     17                     18
                      A                      A                      A
 Frequencies --    539.5450               597.7810               635.5568
 Red. masses --      3.3223                 9.9399                 6.3974
 Frc consts  --      0.5698                 2.0927                 1.5225
 IR Inten    --     20.0962                 1.5583                 0.0905

                     19                     20                     21
                      A                      A                      A
 Frequencies --    642.4340               703.1215               716.7196
 Red. masses --      5.5324                 5.0836                 1.8060
 Frc consts  --      1.3453                 1.4808                 0.5466
 IR Inten    --     47.4794                 7.7941                44.2858

                     22                     23                     24
                      A                      A                      A
 Frequencies --    781.0340               866.2114               878.4799
 Red. masses --      2.0326                 1.2457                 3.0175
 Frc consts  --      0.7305                 0.5507                 1.3720
 IR Inten    --     28.3002                 0.2582                43.4108

                     25                     26                     27
                      A                      A                      A
 Frequencies --    941.8077               976.7719               998.3615
 Red. masses --      1.4335                 1.3418                 1.2503
 Frc consts  --      0.7492                 0.7543                 0.7343
 IR Inten    --      5.3205                 0.1537                 2.4334

                     28                     29                     30
                      A                      A                      A
 Frequencies --   1021.8037              1029.5045              1061.7457
 Red. masses --      6.4453                 6.3110                 2.1129
 Frc consts  --      3.9648                 3.9410                 1.4034
 IR Inten    --     30.2039               109.3896                 7.3566

                     31                     32                     33
                      A                      A                      A
 Frequencies --   1064.4021              1069.9411              1072.3334
 Red. masses --      3.2651                 1.4048                 1.6253
 Frc consts  --      2.1795                 0.9475                 1.1011
 IR Inten    --    112.8951                 0.4414                14.6170

                     34                     35                     36
                      A                      A                      A
 Frequencies --   1125.9957              1159.9630              1193.5631
 Red. masses --      1.8406                 3.1015                 1.1016
 Frc consts  --      1.3749                 2.4588                 0.9247
 IR Inten    --     17.6825               119.1604                 0.3571

                     37                     38                     39
                      A                      A                      A
 Frequencies --   1196.7169              1214.7947              1341.8110
 Red. masses --      1.8562                 1.3311                 1.7811
 Frc consts  --      1.5662                 1.1574                 1.8894
 IR Inten    --     75.1138                12.1908                 0.9994

                     40                     41                     42
                      A                      A                      A
 Frequencies --   1360.9421              1366.9630              1431.8911
 Red. masses --      1.3752                 3.8515                 1.8611
 Frc consts  --      1.5007                 4.2403                 2.2483
 IR Inten    --      2.8409                 0.7268               184.4347

                     43                     44                     45
                      A                      A                      A
 Frequencies --   1442.4967              1498.6590              1506.3014
 Red. masses --      1.2356                 2.2377                 1.0401
 Frc consts  --      1.5148                 2.9611                 1.3904
 IR Inten    --      3.3870                15.9422                 6.7598

                     46                     47                     48
                      A                      A                      A
 Frequencies --   1507.0685              1544.5118              1648.4852
 Red. masses --      1.0402                 2.2554                 5.8571
 Frc consts  --      1.3919                 3.1700                 9.3778
 IR Inten    --      6.5651                 3.8280                 0.0680

                     49                     50                     51
                      A                      A                      A
 Frequencies --   1666.0684              2377.4048              3042.1982
 Red. masses --      5.6078                11.9019                 1.0345
 Frc consts  --      9.1713                39.6345                 5.6409
 IR Inten    --      0.2895                32.5784                29.5345

                     52                     53                     54
                      A                      A                      A
 Frequencies --   3104.3968              3105.6378              3182.9436
 Red. masses --      1.1015                 1.1017                 1.0852
 Frc consts  --      6.2545                 6.2604                 6.4778
 IR Inten    --     10.1265                10.1021                 0.0558

                     55                     56                     57
                      A                      A                      A
 Frequencies --   3193.6164              3206.0723              3218.4040
 Red. masses --      1.0896                 1.0944                 1.0938
 Frc consts  --      6.5475                 6.6281                 6.6753
 IR Inten    --     18.7640                30.9019                 9.0299

                     58                     59                     60
                      A                      A                      A
 Frequencies --   3236.2699              3705.7866              3731.6047
 Red. masses --      1.0922                 1.0649                 1.0656
 Frc consts  --      6.7400                 8.6166                 8.7422
 IR Inten    --      3.7142                18.5964                23.5838

 - Thermochemistry -
 -------------------
 Temperature   298.150 Kelvin.  Pressure   1.00000 Atm.
 Atom     1 has atomic number  6 and mass  12.00000

 Molecular mass:   162.06808 amu.
 Principal axes and moments of inertia in atomic units:
                           1         2         3
     Eigenvalues --  1256.039113059.205133351.35046
           X            0.99981   0.01930   0.00396
           Y           -0.01928   0.99980  -0.00561
           Z           -0.00407   0.00553   0.99998
 This molecule is an asymmetric top.
 Rotational symmetry number  1.
 Warning -- assumption of classical behavior for rotation
           may cause significant error
 Rotational temperatures (Kelvin)      0.06896     0.02831     0.02584
 Rotational constants (GHZ):           1.43685     0.58994     0.53851
 Zero-point vibrational energy     460043.1 (Joules/Mol)
                                  109.95295 (Kcal/Mol)
 Warning -- explicit consideration of  17 degrees of freedom as
           vibrations may cause significant error
 Vibrational temperatures:     28.97    45.43    80.35   169.34   232.28
          (Kelvin)            317.39   397.64   438.22   475.91   506.98
                              543.82   589.01   601.76   630.96   704.38
                              776.28   860.07   914.42   924.32  1011.63
                             1031.20  1123.73  1246.29  1263.94  1355.05
                             1405.36  1436.42  1470.15  1481.23  1527.62
                             1531.44  1539.41  1542.85  1620.06  1668.93
                             1717.27  1721.81  1747.82  1930.57  1958.09
                             1966.75  2060.17  2075.43  2156.24  2167.23
                             2168.34  2222.21  2371.80  2397.10  3420.56
                             4377.04  4466.53  4468.32  4579.55  4594.90
                             4612.82  4630.57  4656.27  5331.80  5368.95

 Zero-point correction=                           0.175221 (Hartree/Particle)
 Thermal correction to Energy=                    0.187057
 Thermal correction to Enthalpy=                  0.188002
 Thermal correction to Gibbs Free Energy=         0.135509
 Sum of electronic and zero-point Energies=           -537.317220
 Sum of electronic and thermal Energies=              -537.305383
 Sum of electronic and thermal Enthalpies=            -537.304439
 Sum of electronic and thermal Free Energies=         -537.356932

                     E (Thermal)             CV                S
                      KCal/Mol        Cal/Mol-Kelvin    Cal/Mol-Kelvin
 Total                  117.380             43.841            110.480
 Electronic               0.000              0.000              0.000
 Translational            0.889              2.981             41.157
 Rotational               0.889              2.981             30.933
 Vibrational            115.603             37.880             38.390
 Vibration     1          0.593              1.986              6.621
 Vibration     2          0.594              1.983              5.728
 Vibration     3          0.596              1.975              4.599
 Vibration     4          0.608              1.935              3.138
 Vibration     5          0.622              1.890              2.533
 Vibration     6          0.647              1.810              1.954
 Vibration     7          0.678              1.717              1.556
 Vibration     8          0.695              1.665              1.392
 Vibration     9          0.713              1.614              1.256
 Vibration    10          0.729              1.570              1.156
 Vibration    11          0.748              1.517              1.047
 Vibration    12          0.774              1.450              0.929
 Vibration    13          0.781              1.431              0.898
 Vibration    14          0.799              1.386              0.831
 Vibration    15          0.845              1.273              0.685
 Vibration    16          0.895              1.163              0.566
 Vibration    17          0.956              1.037              0.453

 Optimization completed.
    -- Stationary point found.
 Normal termination of Gaussian 16 at Wed Dec  9 18:15:33 2020.

 ----------------------------------------------------------------------
 # B3LYP/6-311++G(d,p) empiricaldispersion=gd3bj scf=xqc pop=npa geom=c
 heck
 ----------------------------------------------------------------------

 ---------------------------------------
 CID_129805514_JID_2775_Energie_neutraal
 ---------------------------------------
 Structure from the checkpoint file:  "JID_2775.chk"
 Charge =  0 Multiplicity = 1

 SCF Done:  E(RB3LYP) =  -537.658766440     A.U. after   14 cycles
 Normal termination of Gaussian 16 at Wed Dec  9 18:18:03 2020.

 ----------------------------------------------------------------------
 # B3LYP/6-311++G(d,p) empiricaldispersion=gd3bj scf=xqc pop=npa geom=c
 heck
 ----------------------------------------------------------------------

 -------------------------------------
 CID_129805514_JID_2775_Energie_kation
 -------------------------------------
 Structure from the checkpoint file:  "JID_2775.chk"
 Charge =  1 Multiplicity = 2

 SCF Done:  E(UB3LYP) =  -537.341688900     A.U. after   27 cycles
 Normal termination of Gaussian 16 at Wed Dec  9 18:22:00 2020.
 Gaussian 16:  ES64L-G16RevA.03 25-Dec-2016

 ----------------------------------------------------------------------
 # B3LYP/6-311++G(d,p) empiricaldispersion=gd3bj scf=xqc pop=npa geom=c
 heck
 ----------------------------------------------------------------------

 ------------------------------------
 CID_129805514_JID_2775_Energie_anion
 ------------------------------------
 Structure from the checkpoint file:  "JID_2775.chk"
 Charge = -1 Multiplicity = 2

                         Standard orientation:
 ---------------------------------------------------------------------
 Center     Atomic      Atomic             Coordinates (Angstroms)
 Number     Number       Type             X           Y           Z
 ---------------------------------------------------------------------
      1          6           0       -3.706379   -1.872274   -0.190306
      2          6           0       -2.657208   -0.864939   -0.080292
      3          6           0       -1.785974   -0.034351    0.023154
      4          6           0       -0.706240    0.965995    0.085620
      5          6           0        0.663957    0.294068    0.017294
      6          6           0        1.345850    0.167386   -1.195605
      7          6           0        2.586164   -0.469472   -1.234441
      8          6           0        3.147655   -0.988574   -0.066870
      9          6           0        2.462940   -0.869017    1.143721
     10          6           0        1.223990   -0.231392    1.185890
     11          8           0       -0.785451    1.863885   -1.009441
     12          8           0       -0.883533    1.666360    1.307556
     13          1           0       -4.463322   -1.742119    0.592118
     14          1           0       -3.293515   -2.883283   -0.091984
     15          1           0       -4.213752   -1.812104   -1.160503
     16          1           0        0.903931    0.575270   -2.096977
     17          1           0        3.115244   -0.558975   -2.179230
     18          1           0        4.113731   -1.484629   -0.100084
     19          1           0        2.893334   -1.272385    2.056151
     20          1           0        0.682888   -0.133422    2.121342
     21          1           0       -1.698213    2.196608   -1.015987
     22          1           0       -0.136980    2.288502    1.361260
 ---------------------------------------------------------------------

 SCF Done:  E(UB3LYP) =  -537.644951003     A.U. after   33 cycles
 SCF Done:  E(UB3LYP) =  -537.644951003     a.u. after    1 cycles

 The electronic state is 2-A.
 Alpha  occ. eigenvalues --  -19.03055 -19.03022 -10.19969 -10.08388 -10.07806
 Alpha  occ. eigenvalues --  -10.07266 -10.07247 -10.07041 -10.07026 -10.06873
 Alpha  occ. eigenvalues --  -10.06667 -10.05458  -0.97299  -0.90114  -0.75565
 Alpha  occ. eigenvalues --   -0.68328  -0.66240  -0.64457  -0.61611  -0.56321
 Alpha  occ. eigenvalues --   -0.50839  -0.49705  -0.45788  -0.41893  -0.40742
 Alpha  occ. eigenvalues --   -0.36990  -0.35609  -0.34571  -0.33953  -0.32532
 Alpha  occ. eigenvalues --   -0.32480  -0.32257  -0.31352  -0.27031  -0.26722
 Alpha  occ. eigenvalues --   -0.24560  -0.23826  -0.22492  -0.19382  -0.17040
 Alpha  occ. eigenvalues --   -0.15961  -0.15313  -0.14329   0.04590
 Alpha virt. eigenvalues --    0.06497   0.07227   0.07984   0.08205   0.08722
 Alpha virt. eigenvalues --    0.09018   0.09589   0.10412   0.10860   0.11943
 Alpha virt. eigenvalues --    0.12762   0.13714   0.14423   0.15033   0.15259

  Beta  occ. eigenvalues --  -19.03019 -19.02989 -10.19964 -10.08332 -10.07763
  Beta  occ. eigenvalues --  -10.07265 -10.07237 -10.07005 -10.06970 -10.06845
  Beta  occ. eigenvalues --  -10.06637 -10.05461  -0.97225  -0.90031  -0.75486
  Beta  occ. eigenvalues --   -0.68250  -0.66133  -0.64391  -0.61539  -0.56228
  Beta  occ. eigenvalues --   -0.50793  -0.49600  -0.45721  -0.41832  -0.40685
  Beta  occ. eigenvalues --   -0.36916  -0.35518  -0.34518  -0.33911  -0.32457
  Beta  occ. eigenvalues --   -0.32409  -0.32225  -0.31307  -0.26984  -0.26544
  Beta  occ. eigenvalues --   -0.24518  -0.23785  -0.22440  -0.19323  -0.16884
  Beta  occ. eigenvalues --   -0.15917  -0.15183  -0.14094
  Beta virt. eigenvalues --    0.06756   0.07411   0.07928   0.08353   0.08636
  Beta virt. eigenvalues --    0.08907   0.09645   0.09996   0.11088   0.11488
  Beta virt. eigenvalues --    0.12194   0.13063   0.13890   0.14541   0.15013

 Mulliken charges and spin densities:
               1          2
     1  C    2.883892  -3.416968
     2  C   -1.622978   1.335501
     3  C   -0.185037   0.219402
     4  C    1.539420  -1.087461
     5  C   -0.347594   1.196630
     6  C   -0.731594   0.607938
     7  C   -0.069407  -0.250059
     8  C    0.948266  -1.399752
     9  C    0.124778  -0.398520
    10  C   -1.245441   0.472992
    11  O   -0.193622  -0.034810
    12  O   -0.153351  -0.023522
    13  H   -0.362527   0.525428
    14  H   -0.197300   0.358286
    15  H   -0.480918   0.644033
    16  H    0.028643   0.164110
    17  H   -0.200115   0.363071
    18  H   -0.291989   0.423103
    19  H   -0.375178   0.543792
    20  H    0.041206   0.132800
    21  H   -0.109759   0.375280
    22  H    0.000605   0.248726
 Sum of Mulliken charges =  -1.00000   1.00000

 Dipole moment (field-independent basis, Debye):
    X=              3.7004    Y=              1.9917    Z=              0.4467  Tot=              4.2261
 Quadrupole moment (field-independent basis, Debye-Ang):
   XX=           -141.1391   YY=           -103.6311   ZZ=            -98.7121
   XY=             -3.9519   XZ=             -3.0965   YZ=              0.2197

 Summary of Natural Population Analysis:

                                       Natural Population
                Natural  -----------------------------------------------
    Atom  No    Charge         Core      Valence    Rydberg      Total
 -----------------------------------------------------------------------
      C    1   -0.31936      0.99961     2.31430    0.00546     3.31936
      C    2    0.02590      0.99926     1.96775    0.00710     2.97410
      C    3   -0.04034      0.99919     2.03038    0.01077     3.04034
      C    4    0.24544      0.99947     1.73450    0.02059     2.75456
      C    5   -0.02497      0.99946     2.01305    0.01246     3.02497
      C    6   -0.08771      0.99950     2.07897    0.00924     3.08771
      C    7   -0.10391      0.99956     2.09430    0.01005     3.10391
      C    8   -0.09256      0.99956     2.08276    0.01023     3.09256
      C    9   -0.10263      0.99956     2.09282    0.01025     3.10263
      C   10   -0.09361      0.99950     2.08477    0.00934     3.09361
      O   11   -0.36515      0.99989     3.35905    0.00621     4.36515
      O   12   -0.36309      0.99989     3.35675    0.00645     4.36309
      H   13    0.11359      0.00000     0.38387    0.00254     0.38641
      H   14    0.11151      0.00000     0.38701    0.00147     0.38849
      H   15    0.11438      0.00000     0.38269    0.00293     0.38562
      H   16    0.11110      0.00000     0.38752    0.00139     0.38890
      H   17    0.09821      0.00000     0.40087    0.00093     0.40179
      H   18    0.09820      0.00000     0.40063    0.00116     0.40180
      H   19    0.09900      0.00000     0.39993    0.00107     0.40100
      H   20    0.10838      0.00000     0.39021    0.00141     0.39162
      H   21    0.23677      0.00000     0.25833    0.00489     0.26323
      H   22    0.23086      0.00000     0.26587    0.00327     0.26914
 =======================================================================
   * Total *    0.00000     11.99446    30.86634    0.13920    43.00000

 Normal termination of Gaussian 16 at Wed Dec  9 18:28:08 2020.
