 Gaussian 16, Revision A.03,

 -----------------------------------------------------------
 # opt freq B3LYP/6-31G(d) empiricaldispersion=gd3bj scf=xqc
 -----------------------------------------------------------

 -------------------------------
 CID_117155781_JID_4837_neutraal
 -------------------------------
 Symbolic Z-matrix:
 Charge =  0 Multiplicity = 1

 SCF Done:  E(RB3LYP) =  -614.802852011     A.U. after   14 cycles
 SCF Done:  E(RB3LYP) =  -614.806236623     A.U. after   11 cycles
 SCF Done:  E(RB3LYP) =  -614.806729476     A.U. after   11 cycles
 SCF Done:  E(RB3LYP) =  -614.806997737     A.U. after   12 cycles
 SCF Done:  E(RB3LYP) =  -614.807138028     A.U. after   12 cycles
 SCF Done:  E(RB3LYP) =  -614.807285022     A.U. after   11 cycles
 SCF Done:  E(RB3LYP) =  -614.807356193     A.U. after   11 cycles
 SCF Done:  E(RB3LYP) =  -614.807373882     A.U. after    9 cycles
 SCF Done:  E(RB3LYP) =  -614.807399327     A.U. after   11 cycles
 SCF Done:  E(RB3LYP) =  -614.807410519     A.U. after   10 cycles
 SCF Done:  E(RB3LYP) =  -614.807415764     A.U. after   10 cycles
 SCF Done:  E(RB3LYP) =  -614.807416079     A.U. after    8 cycles
 Optimization completed.
    -- Stationary point found.
 Normal termination of Gaussian 16 at Thu Dec 10 10:46:25 2020.

 --------------------------------------------------------------------
 #N Geom=AllCheck Guess=TCheck SCRF=Check GenChk RB3LYP/6-31G(d) Freq
 --------------------------------------------------------------------

 Structure from the checkpoint file:  "JID_4837.chk"
 -------------------------------
 CID_117155781_JID_4837_neutraal
 -------------------------------
 Charge =  0 Multiplicity = 1

 SCF Done:  E(RB3LYP) =  -614.807416079     A.U. after    1 cycles

  Exact polarizability: 163.221   4.100 122.876   5.134  -4.107  97.116
 Approx polarizability: 197.403  -1.386 191.264  11.014 -12.731 152.283

                      1                      2                      3
                      A                      A                      A
 Frequencies --     23.4655                56.0168                64.5399
 Red. masses --      2.9659                 3.4358                 3.2902
 Frc consts  --      0.0010                 0.0064                 0.0081
 IR Inten    --      0.1070                 0.6694                 0.4039

                      4                      5                      6
                      A                      A                      A
 Frequencies --    102.6064               120.4838               210.9938
 Red. masses --      3.7911                 4.5767                 2.2197
 Frc consts  --      0.0235                 0.0391                 0.0582
 IR Inten    --      2.3016                 1.4037                 0.5072

                      7                      8                      9
                      A                      A                      A
 Frequencies --    215.7674               232.7521               255.4512
 Red. masses --      2.4073                 1.2099                 1.3389
 Frc consts  --      0.0660                 0.0386                 0.0515
 IR Inten    --      1.1068                 0.6829                 2.7001

                     10                     11                     12
                      A                      A                      A
 Frequencies --    275.7894               297.0846               302.1329
 Red. masses --      2.1250                 1.9118                 1.6059
 Frc consts  --      0.0952                 0.0994                 0.0864
 IR Inten    --      7.8319                20.7051                48.8862

                     13                     14                     15
                      A                      A                      A
 Frequencies --    335.1437               388.0548               417.0220
 Red. masses --      2.1203                 2.4146                 2.2959
 Frc consts  --      0.1403                 0.2142                 0.2352
 IR Inten    --     45.7588                 0.2508                 8.3479

                     16                     17                     18
                      A                      A                      A
 Frequencies --    426.5019               428.4536               454.0863
 Red. masses --      2.1588                 3.3973                 3.2954
 Frc consts  --      0.2314                 0.3674                 0.4003
 IR Inten    --      4.4497                11.6762                 2.5226

                     19                     20                     21
                      A                      A                      A
 Frequencies --    527.1600               580.2124               648.9248
 Red. masses --      3.4704                 3.6336                 3.0340
 Frc consts  --      0.5682                 0.7207                 0.7528
 IR Inten    --      2.2921                15.1842                 5.1011

                     22                     23                     24
                      A                      A                      A
 Frequencies --    686.2305               701.5287               728.8299
 Red. masses --      4.1845                 2.1259                 1.8431
 Frc consts  --      1.1610                 0.6164                 0.5768
 IR Inten    --      2.5118                 7.7089                 8.0514

                     25                     26                     27
                      A                      A                      A
 Frequencies --    746.0855               809.4752               833.0932
 Red. masses --      3.2506                 4.1580                 2.7984
 Frc consts  --      1.0661                 1.6052                 1.1443
 IR Inten    --     17.1516                 4.8941                 1.1236

                     28                     29                     30
                      A                      A                      A
 Frequencies --    857.7994               892.0406               899.0294
 Red. masses --      1.9301                 1.9010                 1.5755
 Frc consts  --      0.8368                 0.8913                 0.7503
 IR Inten    --     10.8074                 4.6348                 7.2411

                     31                     32                     33
                      A                      A                      A
 Frequencies --    940.4997               944.9841               961.3402
 Red. masses --      2.4101                 1.2132                 2.0371
 Frc consts  --      1.2561                 0.6383                 1.1092
 IR Inten    --     11.4083                 2.5066                 5.0819

                     34                     35                     36
                      A                      A                      A
 Frequencies --    979.9900               984.4653              1025.1048
 Red. masses --      1.5270                 2.1215                 2.7272
 Frc consts  --      0.8640                 1.2114                 1.6885
 IR Inten    --      0.4137                20.3787                21.9023

                     37                     38                     39
                      A                      A                      A
 Frequencies --   1029.3765              1096.5355              1106.7310
 Red. masses --      3.7981                 1.7966                 2.0144
 Frc consts  --      2.3712                 1.2728                 1.4537
 IR Inten    --      9.9907                 2.0353               102.5985

                     40                     41                     42
                      A                      A                      A
 Frequencies --   1109.7322              1151.4078              1166.1292
 Red. masses --      1.5216                 2.0894                 1.5814
 Frc consts  --      1.1040                 1.6321                 1.2670
 IR Inten    --      2.8529                 1.4376                19.4345

                     43                     44                     45
                      A                      A                      A
 Frequencies --   1188.9960              1194.8436              1207.2557
 Red. masses --      1.4357                 1.5629                 1.7076
 Frc consts  --      1.1958                 1.3146                 1.4663
 IR Inten    --     56.0611                 0.7902                 6.4143

                     46                     47                     48
                      A                      A                      A
 Frequencies --   1223.3111              1256.8937              1288.2117
 Red. masses --      2.6393                 1.7069                 1.2969
 Frc consts  --      2.3271                 1.5887                 1.2680
 IR Inten    --      6.7595                13.0205                14.2817

                     49                     50                     51
                      A                      A                      A
 Frequencies --   1308.0835              1321.1246              1333.6984
 Red. masses --      1.4980                 1.4972                 1.4930
 Frc consts  --      1.5102                 1.5396                 1.5647
 IR Inten    --      5.2443                23.3729                14.3221

                     52                     53                     54
                      A                      A                      A
 Frequencies --   1347.1225              1366.8343              1382.9374
 Red. masses --      2.5830                 1.6490                 1.4960
 Frc consts  --      2.7618                 1.8151                 1.6857
 IR Inten    --     24.3812                18.9073                14.8000

                     55                     56                     57
                      A                      A                      A
 Frequencies --   1387.4881              1393.6592              1403.7211
 Red. masses --      1.4056                 1.5547                 1.5739
 Frc consts  --      1.5943                 1.7792                 1.8273
 IR Inten    --     12.2873                 3.3914                 0.5543

                     58                     59                     60
                      A                      A                      A
 Frequencies --   1417.0846              1430.9212              1446.1193
 Red. masses --      2.4587                 1.2970                 1.3898
 Frc consts  --      2.9090                 1.5646                 1.7125
 IR Inten    --     69.2818                 5.3928               110.5789

                     61                     62                     63
                      A                      A                      A
 Frequencies --   1450.7723              1473.1662              1503.0437
 Red. masses --      1.2383                 2.1849                 1.1013
 Frc consts  --      1.5356                 2.7937                 1.4659
 IR Inten    --      2.5046                15.2803                 2.0507

                     64                     65                     66
                      A                      A                      A
 Frequencies --   1506.2820              1517.1549              1517.4990
 Red. masses --      1.1112                 1.0974                 1.0455
 Frc consts  --      1.4854                 1.4882                 1.4185
 IR Inten    --      2.1755                 8.0742                 1.3356

                     67                     68                     69
                      A                      A                      A
 Frequencies --   1524.0907              1529.6016              1533.8867
 Red. masses --      1.0565                 1.1170                 1.0513
 Frc consts  --      1.4459                 1.5398                 1.4574
 IR Inten    --      2.6780                 2.2760                 5.7687

                     70                     71                     72
                      A                      A                      A
 Frequencies --   1538.8424              1573.6278              1611.5162
 Red. masses --      1.0549                 7.6247                 6.2253
 Frc consts  --      1.4719                11.1244                 9.5254
 IR Inten    --      9.4332                24.8609                17.5785

                     73                     74                     75
                      A                      A                      A
 Frequencies --   3015.6539              3022.1492              3033.5135
 Red. masses --      1.0828                 1.0733                 1.0444
 Frc consts  --      5.8016                 5.7758                 5.6626
 IR Inten    --     11.9924                15.8683                 6.9655

                     76                     77                     78
                      A                      A                      A
 Frequencies --   3035.2957              3036.7644              3043.5794
 Red. masses --      1.0688                 1.0477                 1.0418
 Frc consts  --      5.8015                 5.6928                 5.6858
 IR Inten    --     30.9764                54.5804                48.5683

                     79                     80                     81
                      A                      A                      A
 Frequencies --   3054.1778              3077.1889              3096.5530
 Red. masses --      1.0657                 1.1039                 1.1018
 Frc consts  --      5.8570                 6.1586                 6.2247
 IR Inten    --     24.8641                15.5307                 9.1584

                     82                     83                     84
                      A                      A                      A
 Frequencies --   3099.8038              3102.8630              3104.9624
 Red. masses --      1.0940                 1.1014                 1.0882
 Frc consts  --      6.1937                 6.2478                 6.1814
 IR Inten    --     42.1828                59.8245                40.5118

                     85                     86                     87
                      A                      A                      A
 Frequencies --   3107.7273              3107.7743              3117.9738
 Red. masses --      1.1008                 1.0926                 1.0981
 Frc consts  --      6.2641                 6.2175                 6.2900
 IR Inten    --     47.4362                27.8885                25.6544

                     88                     89                     90
                      A                      A                      A
 Frequencies --   3143.2654              3284.6902              3728.0632
 Red. masses --      1.0984                 1.0977                 1.0655
 Frc consts  --      6.3942                 6.9781                 8.7250
 IR Inten    --     18.6009                 1.1697                10.9018

 - Thermochemistry -
 -------------------
 Temperature   298.150 Kelvin.  Pressure   1.00000 Atm.
 Atom     1 has atomic number  6 and mass  12.00000

 Molecular mass:   194.14191 amu.
 Principal axes and moments of inertia in atomic units:
                           1         2         3
     Eigenvalues --  1095.979605223.054145895.24332
           X            0.99995   0.00971  -0.00041
           Y           -0.00971   0.99994   0.00431
           Z            0.00045  -0.00430   0.99999
 This molecule is an asymmetric top.
 Rotational symmetry number  1.
 Warning -- assumption of classical behavior for rotation
           may cause significant error
 Rotational temperatures (Kelvin)      0.07903     0.01658     0.01469
 Rotational constants (GHZ):           1.64669     0.34553     0.30614
 Zero-point vibrational energy     744094.2 (Joules/Mol)
                                  177.84279 (Kcal/Mol)
 Warning -- explicit consideration of  20 degrees of freedom as
           vibrations may cause significant error
 Vibrational temperatures:     33.76    80.60    92.86   147.63   173.35
          (Kelvin)            303.57   310.44   334.88   367.54   396.80
                              427.44   434.70   482.20   558.32   600.00
                              613.64   616.45   653.33   758.47   834.80
                              933.66   987.33  1009.34  1048.62  1073.45
                             1164.65  1198.64  1234.18  1283.45  1293.50
                             1353.17  1359.62  1383.15  1409.99  1416.43
                             1474.90  1481.04  1577.67  1592.34  1596.66
                             1656.62  1677.80  1710.70  1719.11  1736.97
                             1760.07  1808.39  1853.45  1882.04  1900.80
                             1918.89  1938.21  1966.57  1989.74  1996.29
                             2005.16  2019.64  2038.87  2058.78  2080.64
                             2087.34  2119.56  2162.54  2167.20  2182.85
                             2183.34  2192.83  2200.76  2206.92  2214.05
                             2264.10  2318.61  4338.85  4348.20  4364.55
                             4367.11  4369.23  4379.03  4394.28  4427.39
                             4455.25  4459.93  4464.33  4467.35  4471.33
                             4471.39  4486.07  4522.46  4725.94  5363.85

 Zero-point correction=                           0.283411 (Hartree/Particle)
 Thermal correction to Energy=                    0.297264
 Thermal correction to Enthalpy=                  0.298208
 Thermal correction to Gibbs Free Energy=         0.242155
 Sum of electronic and zero-point Energies=           -614.524006
 Sum of electronic and thermal Energies=              -614.510152
 Sum of electronic and thermal Enthalpies=            -614.509208
 Sum of electronic and thermal Free Energies=         -614.565261

                     E (Thermal)             CV                S
                      KCal/Mol        Cal/Mol-Kelvin    Cal/Mol-Kelvin
 Total                  186.536             53.383            117.974
 Electronic               0.000              0.000              0.000
 Translational            0.889              2.981             41.696
 Rotational               0.889              2.981             31.890
 Vibrational            184.759             47.421             44.388
 Vibration     1          0.593              1.985              6.317
 Vibration     2          0.596              1.975              4.593
 Vibration     3          0.597              1.971              4.313
 Vibration     4          0.605              1.947              3.404
 Vibration     5          0.609              1.932              3.093
 Vibration     6          0.643              1.824              2.035
 Vibration     7          0.645              1.817              1.994
 Vibration     8          0.654              1.791              1.858
 Vibration     9          0.666              1.754              1.693
 Vibration    10          0.677              1.718              1.560
 Vibration    11          0.691              1.679              1.433
 Vibration    12          0.694              1.670              1.405
 Vibration    13          0.716              1.605              1.235
 Vibration    14          0.756              1.496              1.008
 Vibration    15          0.780              1.433              0.902
 Vibration    16          0.788              1.413              0.870
 Vibration    17          0.790              1.408              0.864
 Vibration    18          0.813              1.352              0.784
 Vibration    19          0.882              1.190              0.594
 Vibration    20          0.937              1.074              0.485

 Optimization completed.
    -- Stationary point found.
 Normal termination of Gaussian 16 at Thu Dec 10 10:56:02 2020.

 ----------------------------------------------------------------------
 # B3LYP/6-311++G(d,p) empiricaldispersion=gd3bj scf=xqc pop=npa geom=c
 heck
 ----------------------------------------------------------------------

 ---------------------------------------
 CID_117155781_JID_4837_Energie_neutraal
 ---------------------------------------
 Structure from the checkpoint file:  "JID_4837.chk"
 Charge =  0 Multiplicity = 1

 SCF Done:  E(RB3LYP) =  -614.981840722     A.U. after   14 cycles
 Normal termination of Gaussian 16 at Thu Dec 10 11:00:33 2020.

 ----------------------------------------------------------------------
 # B3LYP/6-311++G(d,p) empiricaldispersion=gd3bj scf=xqc pop=npa geom=c
 heck
 ----------------------------------------------------------------------

 -------------------------------------
 CID_117155781_JID_4837_Energie_kation
 -------------------------------------
 Structure from the checkpoint file:  "JID_4837.chk"
 Charge =  1 Multiplicity = 2

 SCF Done:  E(UB3LYP) =  -614.691974607     A.U. after   20 cycles
 Normal termination of Gaussian 16 at Thu Dec 10 11:09:45 2020.
 Gaussian 16:  ES64L-G16RevA.03 25-Dec-2016

 ----------------------------------------------------------------------
 # B3LYP/6-311++G(d,p) empiricaldispersion=gd3bj scf=xqc pop=npa geom=c
 heck
 ----------------------------------------------------------------------

 ------------------------------------
 CID_117155781_JID_4837_Energie_anion
 ------------------------------------
 Structure from the checkpoint file:  "JID_4837.chk"
 Charge = -1 Multiplicity = 2

                         Standard orientation:
 ---------------------------------------------------------------------
 Center     Atomic      Atomic             Coordinates (Angstroms)
 Number     Number       Type             X           Y           Z
 ---------------------------------------------------------------------
      1          6           0       -3.365416    1.408115    0.571001
      2          6           0       -3.386204   -0.114591    0.399389
      3          6           0       -4.808370   -0.614304    0.120188
      4          6           0       -2.425943   -0.582281   -0.720104
      5          6           0       -0.977464   -0.333155   -0.435123
      6          6           0       -0.052049   -1.205761    0.081861
      7          7           0        1.128283   -0.487216    0.201526
      8          6           0        2.428938   -1.021485    0.581964
      9          6           0        3.398694    0.136962    0.845930
     10          6           0        3.325150    1.207844   -0.249416
     11          6           0        1.926613    1.841620   -0.269585
     12          6           0        0.867744    0.783830   -0.264198
     13          7           0       -0.386333    0.905325   -0.646407
     14          8           0        2.906201   -1.936160   -0.387904
     15          1           0       -3.738278    1.900791   -0.336296
     16          1           0       -2.352245    1.777848    0.748355
     17          1           0       -4.005856    1.714687    1.406767
     18          1           0       -3.037455   -0.572435    1.336898
     19          1           0       -5.185776   -0.202048   -0.824624
     20          1           0       -4.843699   -1.707890    0.045039
     21          1           0       -5.498728   -0.307710    0.914676
     22          1           0       -2.575771   -1.657170   -0.884084
     23          1           0       -2.699274   -0.074956   -1.654825
     24          1           0       -0.103339   -2.250542    0.348672
     25          1           0        2.305412   -1.626331    1.484246
     26          1           0        4.402680   -0.290054    0.925739
     27          1           0        3.153710    0.592135    1.814523
     28          1           0        4.088980    1.973907   -0.082059
     29          1           0        3.546243    0.757582   -1.227581
     30          1           0        1.809298    2.483845    0.615797
     31          1           0        1.782275    2.485936   -1.142102
     32          1           0        2.918398   -1.475845   -1.243191
 ---------------------------------------------------------------------

 SCF Done:  E(UB3LYP) =  -614.968714140     A.U. after   32 cycles

 The electronic state is 2-A.
 Alpha  occ. eigenvalues --  -19.03438 -14.26403 -14.18720 -10.17045 -10.12703
 Alpha  occ. eigenvalues --  -10.09137 -10.08839 -10.08217 -10.07868 -10.07547
 Alpha  occ. eigenvalues --  -10.07427 -10.07362 -10.07125 -10.05871  -0.95366
 Alpha  occ. eigenvalues --   -0.90695  -0.78277  -0.72070  -0.71451  -0.65574
 Alpha  occ. eigenvalues --   -0.63382  -0.59728  -0.59121  -0.55274  -0.51432
 Alpha  occ. eigenvalues --   -0.49025  -0.46113  -0.45794  -0.43300  -0.38940
 Alpha  occ. eigenvalues --   -0.37744  -0.37223  -0.36166  -0.35164  -0.34247
 Alpha  occ. eigenvalues --   -0.33591  -0.32780  -0.31712  -0.29749  -0.29329
 Alpha  occ. eigenvalues --   -0.28365  -0.27659  -0.27334  -0.25676  -0.24994
 Alpha  occ. eigenvalues --   -0.24473  -0.24022  -0.23701  -0.23350  -0.20076
 Alpha  occ. eigenvalues --   -0.17055  -0.16971  -0.12106   0.04423
 Alpha virt. eigenvalues --    0.05846   0.07150   0.07471   0.08247   0.08580
 Alpha virt. eigenvalues --    0.08752   0.09692   0.09777   0.10687   0.10842
 Alpha virt. eigenvalues --    0.11338   0.11889   0.11923   0.12367   0.13070

  Beta  occ. eigenvalues --  -19.03399 -14.26395 -14.18714 -10.17032 -10.12704
  Beta  occ. eigenvalues --  -10.09129 -10.08837 -10.08212 -10.07845 -10.07517
  Beta  occ. eigenvalues --  -10.07421 -10.07311 -10.07109 -10.05863  -0.95304
  Beta  occ. eigenvalues --   -0.90666  -0.78257  -0.72042  -0.71420  -0.65536
  Beta  occ. eigenvalues --   -0.63337  -0.59694  -0.59098  -0.55220  -0.51349
  Beta  occ. eigenvalues --   -0.48999  -0.46075  -0.45747  -0.43248  -0.38892
  Beta  occ. eigenvalues --   -0.37686  -0.37193  -0.36133  -0.35136  -0.34209
  Beta  occ. eigenvalues --   -0.33556  -0.32733  -0.31683  -0.29723  -0.29310
  Beta  occ. eigenvalues --   -0.28343  -0.27629  -0.27297  -0.25632  -0.24931
  Beta  occ. eigenvalues --   -0.24433  -0.23979  -0.23679  -0.23330  -0.20028
  Beta  occ. eigenvalues --   -0.17036  -0.16949  -0.12090
  Beta virt. eigenvalues --    0.06088   0.07159   0.07805   0.07972   0.08768
  Beta virt. eigenvalues --    0.08853   0.09129   0.10002   0.10425   0.10826
  Beta virt. eigenvalues --    0.11101   0.11474   0.12031   0.12243   0.12510

 Mulliken charges and spin densities:
               1          2
     1  C   -0.297429  -0.363085
     2  C   -0.244742   0.623564
     3  C    0.090351  -0.731484
     4  C   -0.386439  -0.062405
     5  C    1.266339  -0.548040
     6  C   -1.144015   0.683926
     7  N   -0.066414   0.213207
     8  C    1.734891  -2.102589
     9  C   -0.674037   0.252453
    10  C    0.317070  -0.558660
    11  C    0.577294  -1.065468
    12  C    0.061293  -0.376502
    13  N   -0.100900   0.083818
    14  O   -0.247106   0.078656
    15  H    0.094974   0.030869
    16  H    0.111689   0.072651
    17  H    0.025655   0.088607
    18  H   -0.006476   0.170072
    19  H    0.046098   0.080799
    20  H   -0.078023   0.199925
    21  H   -0.073948   0.208697
    22  H    0.138565  -0.006103
    23  H    0.094464   0.083689
    24  H   -0.246616   0.400208
    25  H   -0.047174   0.258189
    26  H   -0.253620   0.464484
    27  H   -0.254060   0.410396
    28  H   -1.121333   1.339288
    29  H   -0.108785   0.235656
    30  H   -0.077167   0.250021
    31  H   -0.040836   0.225628
    32  H   -0.089566   0.359534
 Sum of Mulliken charges =  -1.00000   1.00000

 Dipole moment (field-independent basis, Debye):
    X=             -6.2329    Y=             -1.8887    Z=             -0.3195  Tot=              6.5206
 Quadrupole moment (field-independent basis, Debye-Ang):
   XX=           -180.7176   YY=           -129.4131   ZZ=           -116.0565
   XY=             -9.5807   XZ=              1.7304   YZ=             -1.3394

 Summary of Natural Population Analysis:

                                       Natural Population
                Natural  -----------------------------------------------
    Atom  No    Charge         Core      Valence    Rydberg      Total
 -----------------------------------------------------------------------
      C    1   -0.28702      0.99965     2.28223    0.00514     3.28702
      C    2   -0.11091      0.99961     2.10071    0.01059     3.11091
      C    3   -0.28243      0.99965     2.27799    0.00479     3.28243
      C    4   -0.19956      0.99958     2.19116    0.00883     3.19956
      C    5    0.05583      0.99953     1.93044    0.01419     2.94417
      C    6   -0.03174      0.99947     2.02237    0.00989     3.03174
      N    7   -0.22213      0.99960     2.71229    0.01023     3.72213
      C    8    0.16238      0.99958     1.82137    0.01667     2.83762
      C    9   -0.20430      0.99961     2.19524    0.00945     3.20430
      C   10   -0.19060      0.99963     2.18090    0.01006     3.19060
      C   11   -0.20970      0.99959     2.19995    0.01016     3.20970
      C   12    0.20636      0.99959     1.77774    0.01630     2.79364
      N   13   -0.26676      0.99967     2.75777    0.00932     3.76676
      O   14   -0.36632      0.99990     3.36020    0.00623     4.36632
      H   15    0.09373      0.00000     0.40531    0.00096     0.40627
      H   16    0.11235      0.00000     0.38657    0.00109     0.38765
      H   17    0.09336      0.00000     0.40574    0.00090     0.40664
      H   18    0.09175      0.00000     0.40613    0.00212     0.40825
      H   19    0.09416      0.00000     0.40480    0.00104     0.40584
      H   20    0.09713      0.00000     0.40182    0.00105     0.40287
      H   21    0.09753      0.00000     0.40141    0.00106     0.40247
      H   22    0.10064      0.00000     0.39825    0.00111     0.39936
      H   23    0.10205      0.00000     0.39661    0.00134     0.39795
      H   24    0.10485      0.00000     0.39416    0.00099     0.39515
      H   25    0.09084      0.00000     0.40767    0.00149     0.40916
      H   26    0.11096      0.00000     0.38727    0.00177     0.38904
      H   27    0.10249      0.00000     0.39550    0.00202     0.39751
      H   28    0.10958      0.00000     0.38589    0.00454     0.39042
      H   29    0.09442      0.00000     0.40309    0.00249     0.40558
      H   30    0.10683      0.00000     0.39173    0.00144     0.39317
      H   31    0.11262      0.00000     0.38604    0.00133     0.38738
      H   32    0.23158      0.00000     0.26421    0.00421     0.26842
 =======================================================================
   * Total *   -0.00000     13.99468    38.83254    0.17278    53.00000

 Normal termination of Gaussian 16 at Thu Dec 10 11:24:07 2020.
