 Gaussian 16, Revision A.03,

 -----------------------------------------------------------
 # opt freq B3LYP/6-31G(d) empiricaldispersion=gd3bj scf=xqc
 -----------------------------------------------------------

 --------------------------------
 CID_104046643_JID_10919_neutraal
 --------------------------------
 Symbolic Z-matrix:
 Charge =  0 Multiplicity = 1

 SCF Done:  E(RB3LYP) =  -829.824117929     A.U. after   14 cycles
 SCF Done:  E(RB3LYP) =  -829.827407876     A.U. after   12 cycles
 SCF Done:  E(RB3LYP) =  -829.828196919     A.U. after   12 cycles
 SCF Done:  E(RB3LYP) =  -829.828334604     A.U. after   12 cycles
 SCF Done:  E(RB3LYP) =  -829.828535594     A.U. after   11 cycles
 SCF Done:  E(RB3LYP) =  -829.828567540     A.U. after   11 cycles
 SCF Done:  E(RB3LYP) =  -829.828587654     A.U. after   10 cycles
 SCF Done:  E(RB3LYP) =  -829.828592380     A.U. after    9 cycles
 SCF Done:  E(RB3LYP) =  -829.828595010     A.U. after    9 cycles
 SCF Done:  E(RB3LYP) =  -829.828595834     A.U. after    7 cycles
 SCF Done:  E(RB3LYP) =  -829.828621063     A.U. after    8 cycles
 SCF Done:  E(RB3LYP) =  -829.828621139     A.U. after    8 cycles
 SCF Done:  E(RB3LYP) =  -829.828621199     A.U. after    8 cycles
 SCF Done:  E(RB3LYP) =  -829.828621238     A.U. after    8 cycles
 SCF Done:  E(RB3LYP) =  -829.828621239     A.U. after    6 cycles
 Optimization completed on the basis of negligible forces.
    -- Stationary point found.
 Normal termination of Gaussian 16 at Mon Dec 14 14:07:18 2020.

 --------------------------------------------------------------------
 #N Geom=AllCheck Guess=TCheck SCRF=Check GenChk RB3LYP/6-31G(d) Freq
 --------------------------------------------------------------------

 Structure from the checkpoint file:  "JID_10919.chk"
 --------------------------------
 CID_104046643_JID_10919_neutraal
 --------------------------------
 Charge =  0 Multiplicity = 1

 SCF Done:  E(RB3LYP) =  -829.828621239     A.U. after    1 cycles

  Exact polarizability: 268.355  13.353 198.478  -4.145  -2.663 133.074
 Approx polarizability: 353.221  27.774 324.648  -9.132  -4.721 203.803

                      1                      2                      3
                      A                      A                      A
 Frequencies --     11.0149                21.5981                26.8582
 Red. masses --      1.0799                 3.4571                 4.7307
 Frc consts  --      0.0001                 0.0010                 0.0020
 IR Inten    --      0.2118                 0.0818                 0.4169

                      4                      5                      6
                      A                      A                      A
 Frequencies --     43.5624                47.9096                60.1413
 Red. masses --      3.9071                 4.7458                 4.0642
 Frc consts  --      0.0044                 0.0064                 0.0087
 IR Inten    --      0.0940                 0.0094                 0.5142

                      7                      8                      9
                      A                      A                      A
 Frequencies --     86.4550               122.1555               145.7868
 Red. masses --      4.0940                 3.0563                 3.8880
 Frc consts  --      0.0180                 0.0269                 0.0487
 IR Inten    --      0.5901                 0.4385                 1.3926

                     10                     11                     12
                      A                      A                      A
 Frequencies --    174.7816               181.0734               216.8417
 Red. masses --      3.3402                 3.1677                 3.0040
 Frc consts  --      0.0601                 0.0612                 0.0832
 IR Inten    --      0.9503                 4.1490                 0.9300

                     13                     14                     15
                      A                      A                      A
 Frequencies --    221.4836               235.6609               237.3842
 Red. masses --      3.4759                 1.6914                 1.9403
 Frc consts  --      0.1005                 0.0553                 0.0644
 IR Inten    --      0.4913                 0.3986                 0.6855

                     16                     17                     18
                      A                      A                      A
 Frequencies --    246.9797               311.2873               328.1806
 Red. masses --      2.3084                 3.2077                 2.7886
 Frc consts  --      0.0830                 0.1831                 0.1770
 IR Inten    --      2.7553                 1.9358                 1.1329

                     19                     20                     21
                      A                      A                      A
 Frequencies --    342.4196               378.6158               396.3529
 Red. masses --      2.6611                 2.7034                 1.2461
 Frc consts  --      0.1838                 0.2283                 0.1153
 IR Inten    --      0.0433                 1.5880                65.9842

                     22                     23                     24
                      A                      A                      A
 Frequencies --    420.5210               431.8317               461.8734
 Red. masses --      2.3942                 1.5102                 2.4546
 Frc consts  --      0.2494                 0.1659                 0.3085
 IR Inten    --     12.3818               134.6402                13.5484

                     25                     26                     27
                      A                      A                      A
 Frequencies --    465.2238               496.1830               531.8891
 Red. masses --      3.1145                 3.3357                 4.9768
 Frc consts  --      0.3972                 0.4839                 0.8296
 IR Inten    --      3.4608                 1.8175                 0.6044

                     28                     29                     30
                      A                      A                      A
 Frequencies --    548.6932               557.4457               577.5642
 Red. masses --      4.4504                 3.7029                 3.0091
 Frc consts  --      0.7894                 0.6780                 0.5914
 IR Inten    --      0.6989                 0.4194                15.4437

                     31                     32                     33
                      A                      A                      A
 Frequencies --    599.3793               651.7657               667.7528
 Red. masses --      3.6885                 3.7226                 4.7231
 Frc consts  --      0.7807                 0.9317                 1.2408
 IR Inten    --      1.0650                 0.8263                 5.1670

                     34                     35                     36
                      A                      A                      A
 Frequencies --    716.4219               724.1029               740.0402
 Red. masses --      2.1109                 2.1771                 4.0170
 Frc consts  --      0.6383                 0.6725                 1.2962
 IR Inten    --      5.8399                11.2391                 1.0309

                     37                     38                     39
                      A                      A                      A
 Frequencies --    766.8270               789.1009               802.0014
 Red. masses --      1.7269                 1.8025                 1.6307
 Frc consts  --      0.5983                 0.6613                 0.6180
 IR Inten    --     11.0711                13.4733                21.5527

                     40                     41                     42
                      A                      A                      A
 Frequencies --    810.8801               860.2638               868.1418
 Red. masses --      1.8685                 2.1338                 1.4777
 Frc consts  --      0.7239                 0.9304                 0.6562
 IR Inten    --     10.8248                 6.4726                 9.7662

                     43                     44                     45
                      A                      A                      A
 Frequencies --    871.0295               891.3085               907.0827
 Red. masses --      1.7332                 2.3824                 1.2977
 Frc consts  --      0.7747                 1.1151                 0.6291
 IR Inten    --      9.4023                 0.0739                 1.4061

                     46                     47                     48
                      A                      A                      A
 Frequencies --    923.0086               931.3437               963.8018
 Red. masses --      1.4225                 2.5781                 1.2559
 Frc consts  --      0.7140                 1.3176                 0.6874
 IR Inten    --      4.0586                12.0571                 0.3302

                     49                     50                     51
                      A                      A                      A
 Frequencies --    971.8068               978.1646               985.1754
 Red. masses --      1.9726                 1.2900                 2.3166
 Frc consts  --      1.0976                 0.7272                 1.3247
 IR Inten    --      9.5675                 0.0904                 4.5163

                     52                     53                     54
                      A                      A                      A
 Frequencies --   1012.6364              1019.8686              1026.8648
 Red. masses --      5.1236                 3.3775                 1.8807
 Frc consts  --      3.0955                 2.0698                 1.1684
 IR Inten    --      8.1512                 1.6146                 0.9161

                     55                     56                     57
                      A                      A                      A
 Frequencies --   1040.2164              1076.2718              1078.2589
 Red. masses --      1.7507                 1.5229                 1.8528
 Frc consts  --      1.1161                 1.0394                 1.2692
 IR Inten    --     22.5517                 4.0584                 0.8052

                     58                     59                     60
                      A                      A                      A
 Frequencies --   1085.6906              1095.5167              1107.9915
 Red. masses --      1.8711                 2.9263                 1.9420
 Frc consts  --      1.2994                 2.0692                 1.4046
 IR Inten    --      9.3035                50.8468                 3.8287

                     61                     62                     63
                      A                      A                      A
 Frequencies --   1130.7429              1135.7606              1159.7735
 Red. masses --      1.8415                 1.8121                 2.2621
 Frc consts  --      1.3872                 1.3772                 1.7927
 IR Inten    --     15.9236                13.8245                26.6027

                     64                     65                     66
                      A                      A                      A
 Frequencies --   1198.5357              1202.2607              1206.2733
 Red. masses --      1.5781                 1.3847                 1.3076
 Frc consts  --      1.3356                 1.1792                 1.1211
 IR Inten    --      0.2274                16.8741                 9.2364

                     67                     68                     69
                      A                      A                      A
 Frequencies --   1209.2738              1212.9074              1219.5085
 Red. masses --      1.1525                 1.1424                 1.4508
 Frc consts  --      0.9930                 0.9902                 1.2712
 IR Inten    --      1.0497                 5.5064                18.0932

                     70                     71                     72
                      A                      A                      A
 Frequencies --   1278.4122              1301.1589              1308.6503
 Red. masses --      2.4118                 1.8509                 1.3217
 Frc consts  --      2.3224                 1.8462                 1.3336
 IR Inten    --      0.1202                15.4277                 1.2815

                     73                     74                     75
                      A                      A                      A
 Frequencies --   1328.4815              1357.7839              1364.7571
 Red. masses --      2.3963                 1.5332                 1.9111
 Frc consts  --      2.4918                 1.6653                 2.0973
 IR Inten    --      9.5850                43.7074                 5.9831

                     76                     77                     78
                      A                      A                      A
 Frequencies --   1371.2982              1379.4493              1384.6626
 Red. masses --      2.1098                 1.8736                 1.3554
 Frc consts  --      2.3375                 2.1006                 1.5311
 IR Inten    --     11.3799                90.0554                 4.9575

                     79                     80                     81
                      A                      A                      A
 Frequencies --   1396.6275              1400.0505              1423.0815
 Red. masses --      1.8686                 1.5628                 1.1871
 Frc consts  --      2.1475                 1.8048                 1.4164
 IR Inten    --     35.0536                 0.6489                26.1954

                     82                     83                     84
                      A                      A                      A
 Frequencies --   1435.0633              1437.3394              1443.4530
 Red. masses --      1.2287                 1.2865                 1.2500
 Frc consts  --      1.4909                 1.5659                 1.5345
 IR Inten    --     21.2819                25.6980                 0.2543

                     85                     86                     87
                      A                      A                      A
 Frequencies --   1461.8743              1483.3425              1506.8967
 Red. masses --      1.9213                 2.0852                 1.0875
 Frc consts  --      2.4191                 2.7032                 1.4550
 IR Inten    --     16.8071                 2.4561                 1.3916

                     88                     89                     90
                      A                      A                      A
 Frequencies --   1515.5981              1518.1869              1523.8861
 Red. masses --      1.0445                 1.1118                 1.1624
 Frc consts  --      1.4136                 1.5098                 1.5904
 IR Inten    --      5.1954                 6.6660                11.6578

                     91                     92                     93
                      A                      A                      A
 Frequencies --   1527.0846              1527.9407              1533.8603
 Red. masses --      1.3303                 1.0616                 1.0938
 Frc consts  --      1.8278                 1.4602                 1.5162
 IR Inten    --      6.3937                 6.0238                 2.3319

                     94                     95                     96
                      A                      A                      A
 Frequencies --   1544.2459              1547.2828              1559.0987
 Red. masses --      1.9969                 2.1316                 1.8493
 Frc consts  --      2.8056                 3.0068                 2.6486
 IR Inten    --    169.4565                53.6382                35.1299

                     97                     98                     99
                      A                      A                      A
 Frequencies --   1645.3993              1652.8486              1667.7698
 Red. masses --      4.9974                 5.5340                 5.7699
 Frc consts  --      7.9715                 8.9075                 9.4556
 IR Inten    --     44.2772                 3.6142               204.4026

                    100                    101                    102
                      A                      A                      A
 Frequencies --   1670.6047              2998.6738              3029.2314
 Red. masses --      5.6419                 1.0836                 1.0657
 Frc consts  --      9.2773                 5.7409                 5.7616
 IR Inten    --     27.4002                28.4338                31.2427

                    103                    104                    105
                      A                      A                      A
 Frequencies --   3038.8735              3045.7945              3051.4122
 Red. masses --      1.0626                 1.0374                 1.0635
 Frc consts  --      5.7814                 5.6703                 5.8343
 IR Inten    --     26.0876                30.0232                33.2199

                    106                    107                    108
                      A                      A                      A
 Frequencies --   3062.3401              3079.2492              3095.9092
 Red. masses --      1.0350                 1.0995                 1.1003
 Frc consts  --      5.7187                 6.1422                 6.2135
 IR Inten    --     18.5301                24.4667                61.3734

                    109                    110                    111
                      A                      A                      A
 Frequencies --   3098.3932              3100.7076              3128.5006
 Red. masses --      1.1008                 1.1018                 1.1011
 Frc consts  --      6.2265                 6.2412                 6.3498
 IR Inten    --     18.2612                54.9889                15.3932

                    112                    113                    114
                      A                      A                      A
 Frequencies --   3134.9396              3141.7767              3145.7951
 Red. masses --      1.1025                 1.1027                 1.0888
 Frc consts  --      6.3838                 6.4131                 6.3482
 IR Inten    --     29.0448                31.9022                19.8107

                    115                    116                    117
                      A                      A                      A
 Frequencies --   3177.1441              3179.7083              3180.4621
 Red. masses --      1.0864                 1.0895                 1.0862
 Frc consts  --      6.4610                 6.4898                 6.4735
 IR Inten    --      3.0573                12.9550                 7.8679

                    118                    119                    120
                      A                      A                      A
 Frequencies --   3186.3921              3198.2950              3204.2014
 Red. masses --      1.0902                 1.0937                 1.0963
 Frc consts  --      6.5216                 6.5915                 6.6317
 IR Inten    --     21.8353                27.8151                25.8471

                    121                    122                    123
                      A                      A                      A
 Frequencies --   3229.2737              3591.1069              3734.5587
 Red. masses --      1.0912                 1.0761                 1.0659
 Frc consts  --      6.7043                 8.1760                 8.7588
 IR Inten    --     15.0026                21.0407                52.2219

 - Thermochemistry -
 -------------------
 Temperature   298.150 Kelvin.  Pressure   1.00000 Atm.
 Atom     1 has atomic number  6 and mass  12.00000

 Molecular mass:   269.17796 amu.
 Principal axes and moments of inertia in atomic units:
                           1         2         3
     Eigenvalues --  2844.78342********************
           X            0.99999   0.00357   0.00277
           Y           -0.00353   0.99988  -0.01497
           Z           -0.00283   0.01496   0.99988
 This molecule is an asymmetric top.
 Rotational symmetry number  1.
 Warning -- assumption of classical behavior for rotation
           may cause significant error
 Rotational temperatures (Kelvin)      0.03045     0.00682     0.00613
 Rotational constants (GHZ):           0.63440     0.14206     0.12770
 Zero-point vibrational energy     982699.0 (Joules/Mol)
                                  234.87070 (Kcal/Mol)
 Warning -- explicit consideration of  31 degrees of freedom as
           vibrations may cause significant error
 Vibrational temperatures:     15.85    31.07    38.64    62.68    68.93
          (Kelvin)             86.53   124.39   175.75   209.75   251.47
                              260.52   311.99   318.67   339.06   341.54
                              355.35   447.87   472.18   492.67   544.74
                              570.26   605.04   621.31   664.53   669.35
                              713.90   765.27   789.45   802.04   830.99
                              862.37   937.75   960.75  1030.77  1041.82
                             1064.75  1103.29  1135.34  1153.90  1166.68
                             1237.73  1249.06  1253.22  1282.39  1305.09
                             1328.00  1340.00  1386.70  1398.21  1407.36
                             1417.45  1456.96  1467.36  1477.43  1496.64
                             1548.52  1551.37  1562.07  1576.20  1594.15
                             1626.89  1634.11  1668.66  1724.43  1729.79
                             1735.56  1739.88  1745.10  1754.60  1839.35
                             1872.08  1882.86  1911.39  1953.55  1963.58
                             1972.99  1984.72  1992.22  2009.44  2014.36
                             2047.50  2064.74  2068.01  2076.81  2103.31
                             2134.20  2168.09  2180.61  2184.33  2192.53
                             2197.13  2198.37  2206.88  2221.83  2226.19
                             2243.20  2367.36  2378.08  2399.55  2403.63
                             4314.42  4358.39  4372.26  4382.22  4390.30
                             4406.02  4430.35  4454.32  4457.90  4461.23
                             4501.21  4510.48  4520.32  4526.10  4571.20
                             4574.89  4575.98  4584.51  4601.63  4610.13
                             4646.20  5166.80  5373.20

 Zero-point correction=                           0.374290 (Hartree/Particle)
 Thermal correction to Energy=                    0.394262
 Thermal correction to Enthalpy=                  0.395206
 Thermal correction to Gibbs Free Energy=         0.322347
 Sum of electronic and zero-point Energies=           -829.454331
 Sum of electronic and thermal Energies=              -829.434360
 Sum of electronic and thermal Enthalpies=            -829.433415
 Sum of electronic and thermal Free Energies=         -829.506274

                     E (Thermal)             CV                S
                      KCal/Mol        Cal/Mol-Kelvin    Cal/Mol-Kelvin
 Total                  247.403             76.070            153.344
 Electronic               0.000              0.000              0.000
 Translational            0.889              2.981             42.670
 Rotational               0.889              2.981             34.590
 Vibrational            245.625             70.108             76.085
 Vibration     1          0.593              1.987              7.819
 Vibration     2          0.593              1.985              6.482
 Vibration     3          0.593              1.984              6.049
 Vibration     4          0.595              1.980              5.090
 Vibration     5          0.595              1.978              4.902
 Vibration     6          0.597              1.973              4.453
 Vibration     7          0.601              1.959              3.739
 Vibration     8          0.610              1.931              3.066
 Vibration     9          0.617              1.907              2.727
 Vibration    10          0.627              1.873              2.383
 Vibration    11          0.630              1.865              2.317
 Vibration    12          0.646              1.815              1.985
 Vibration    13          0.648              1.808              1.947
 Vibration    14          0.655              1.786              1.835
 Vibration    15          0.656              1.783              1.822
 Vibration    16          0.661              1.768              1.752
 Vibration    17          0.700              1.652              1.355
 Vibration    18          0.711              1.619              1.269
 Vibration    19          0.722              1.591              1.201
 Vibration    20          0.749              1.516              1.045
 Vibration    21          0.763              1.478              0.976
 Vibration    22          0.783              1.426              0.890
 Vibration    23          0.793              1.401              0.853
 Vibration    24          0.820              1.335              0.761
 Vibration    25          0.823              1.327              0.751
 Vibration    26          0.852              1.258              0.668
 Vibration    27          0.887              1.179              0.583
 Vibration    28          0.904              1.143              0.547
 Vibration    29          0.913              1.123              0.529
 Vibration    30          0.934              1.080              0.490
 Vibration    31          0.957              1.033              0.451

 Optimization completed on the basis of negligible forces.
    -- Stationary point found.
 Normal termination of Gaussian 16 at Mon Dec 14 14:27:33 2020.

 ----------------------------------------------------------------------
 # B3LYP/6-311++G(d,p) empiricaldispersion=gd3bj scf=xqc pop=npa geom=c
 heck
 ----------------------------------------------------------------------

 ----------------------------------------
 CID_104046643_JID_10919_Energie_neutraal
 ----------------------------------------
 Structure from the checkpoint file:  "JID_10919.chk"
 Charge =  0 Multiplicity = 1

 SCF Done:  E(RB3LYP) =  -830.060016077     A.U. after   14 cycles
 Normal termination of Gaussian 16 at Mon Dec 14 14:36:00 2020.

 ----------------------------------------------------------------------
 # B3LYP/6-311++G(d,p) empiricaldispersion=gd3bj scf=xqc pop=npa geom=c
 heck
 ----------------------------------------------------------------------

 --------------------------------------
 CID_104046643_JID_10919_Energie_kation
 --------------------------------------
 Structure from the checkpoint file:  "JID_10919.chk"
 Charge =  1 Multiplicity = 2

 SCF Done:  E(UB3LYP) =  -829.791553773     A.U. after   24 cycles
 Normal termination of Gaussian 16 at Mon Dec 14 14:55:12 2020.
 Gaussian 16:  ES64L-G16RevA.03 25-Dec-2016

 ----------------------------------------------------------------------
 # B3LYP/6-311++G(d,p) empiricaldispersion=gd3bj scf=xqc pop=npa geom=c
 heck
 ----------------------------------------------------------------------

 -------------------------------------
 CID_104046643_JID_10919_Energie_anion
 -------------------------------------
 Structure from the checkpoint file:  "JID_10919.chk"
 Charge = -1 Multiplicity = 2

                         Standard orientation:
 ---------------------------------------------------------------------
 Center     Atomic      Atomic             Coordinates (Angstroms)
 Number     Number       Type             X           Y           Z
 ---------------------------------------------------------------------
      1          6           0        4.730722    2.756683    0.317470
      2          6           0        4.377436    1.336127   -0.051342
      3          6           0        3.187227    0.752508    0.389001
      4          6           0        2.843593   -0.563518    0.048685
      5          6           0        3.718149   -1.305313   -0.746488
      6          6           0        4.915914   -0.739912   -1.188450
      7          6           0        5.241769    0.569375   -0.845760
      8          6           0        1.547197   -1.169561    0.550381
      9          6           0        1.588819   -1.380672    2.073673
     10          7           0        0.431296   -0.295717    0.175006
     11          6           0       -0.860796   -0.771464   -0.010644
     12          6           0       -1.276586   -2.048978    0.400639
     13          6           0       -2.597206   -2.449931    0.193446
     14          6           0       -3.524753   -1.608719   -0.412765
     15          6           0       -3.130679   -0.328142   -0.830082
     16          6           0       -1.811108    0.071461   -0.625052
     17          6           0       -4.128438    0.630579   -1.441973
     18          6           0       -5.234989    1.066993   -0.459535
     19          6           0       -4.690049    1.545452    0.890081
     20          8           0       -3.677447    2.539249    0.756650
     21          1           0        4.818779    3.389485   -0.574216
     22          1           0        3.971965    3.200725    0.968817
     23          1           0        5.692820    2.804406    0.841534
     24          1           0        2.511301    1.333200    1.012549
     25          1           0        3.461926   -2.325211   -1.021245
     26          1           0        5.592981   -1.322866   -1.806733
     27          1           0        6.174717    1.005011   -1.195696
     28          1           0        1.423676   -2.149546    0.064587
     29          1           0        1.776862   -0.429249    2.579980
     30          1           0        0.639577   -1.777807    2.444169
     31          1           0        2.389264   -2.079822    2.338339
     32          1           0        0.692914    0.436132   -0.472267
     33          1           0       -0.580034   -2.732300    0.870868
     34          1           0       -2.899088   -3.444374    0.512113
     35          1           0       -4.549002   -1.937743   -0.563797
     36          1           0       -1.490313    1.053277   -0.973103
     37          1           0       -3.601698    1.524611   -1.791896
     38          1           0       -4.596247    0.175213   -2.323968
     39          1           0       -5.816206    1.870776   -0.927833
     40          1           0       -5.927681    0.234559   -0.275020
     41          1           0       -5.496245    2.001297    1.474894
     42          1           0       -4.314044    0.685471    1.461810
     43          1           0       -2.853062    2.062961    0.570150
 ---------------------------------------------------------------------

 SCF Done:  E(UB3LYP) =  -830.048770911     A.U. after   33 cycles
 SCF Done:  E(UB3LYP) =  -830.048770911     a.u. after    1 cycles

 The electronic state is 2-A.
 Alpha  occ. eigenvalues --  -19.03620 -14.23739 -10.13081 -10.13062 -10.13054
 Alpha  occ. eigenvalues --  -10.09907 -10.09735 -10.09681 -10.08985 -10.08955
 Alpha  occ. eigenvalues --  -10.08912 -10.08765 -10.08708 -10.08538 -10.08402
 Alpha  occ. eigenvalues --  -10.08396 -10.08159 -10.08019 -10.07601 -10.07577
 Alpha  occ. eigenvalues --   -0.93735  -0.85651  -0.77914  -0.76480  -0.71408
 Alpha  occ. eigenvalues --   -0.70094  -0.68165  -0.66091  -0.64611  -0.63452
 Alpha  occ. eigenvalues --   -0.60268  -0.59675  -0.55559  -0.53131  -0.52430
 Alpha  occ. eigenvalues --   -0.50963  -0.49247  -0.47441  -0.44368  -0.43160
 Alpha  occ. eigenvalues --   -0.42050  -0.40988  -0.40004  -0.38556  -0.37994
 Alpha  occ. eigenvalues --   -0.36809  -0.35914  -0.35182  -0.34893  -0.33873
 Alpha  occ. eigenvalues --   -0.33529  -0.33397  -0.32488  -0.31981  -0.30904
 Alpha  occ. eigenvalues --   -0.30223  -0.30054  -0.29460  -0.28944  -0.28199
 Alpha  occ. eigenvalues --   -0.27473  -0.26783  -0.25953  -0.25750  -0.25262
 Alpha  occ. eigenvalues --   -0.24891  -0.24086  -0.21185  -0.19280  -0.16799
 Alpha  occ. eigenvalues --   -0.16462  -0.16050  -0.11948   0.03776
 Alpha virt. eigenvalues --    0.05146   0.05957   0.06298   0.06494   0.06778
 Alpha virt. eigenvalues --    0.06904   0.07114   0.07415   0.07784   0.08186
 Alpha virt. eigenvalues --    0.08339   0.08798   0.09264   0.09660   0.09910

  Beta  occ. eigenvalues --  -19.03612 -14.23735 -10.13072 -10.13059 -10.13048
  Beta  occ. eigenvalues --  -10.09910 -10.09726 -10.09661 -10.08977 -10.08951
  Beta  occ. eigenvalues --  -10.08897 -10.08753 -10.08699 -10.08518 -10.08397
  Beta  occ. eigenvalues --  -10.08360 -10.08127 -10.07999 -10.07580 -10.07553
  Beta  occ. eigenvalues --   -0.93717  -0.85634  -0.77880  -0.76452  -0.71378
  Beta  occ. eigenvalues --   -0.70062  -0.68129  -0.66063  -0.64567  -0.63418
  Beta  occ. eigenvalues --   -0.60212  -0.59647  -0.55513  -0.53103  -0.52389
  Beta  occ. eigenvalues --   -0.50929  -0.49204  -0.47408  -0.44340  -0.43128
  Beta  occ. eigenvalues --   -0.42021  -0.40948  -0.39971  -0.38528  -0.37956
  Beta  occ. eigenvalues --   -0.36779  -0.35882  -0.35150  -0.34862  -0.33846
  Beta  occ. eigenvalues --   -0.33499  -0.33368  -0.32453  -0.31952  -0.30871
  Beta  occ. eigenvalues --   -0.30189  -0.30021  -0.29434  -0.28917  -0.28175
  Beta  occ. eigenvalues --   -0.27431  -0.26724  -0.25927  -0.25720  -0.25236
  Beta  occ. eigenvalues --   -0.24864  -0.24071  -0.21146  -0.19260  -0.16706
  Beta  occ. eigenvalues --   -0.16417  -0.15969  -0.11905
  Beta virt. eigenvalues --    0.05482   0.05894   0.06328   0.06584   0.06758
  Beta virt. eigenvalues --    0.07027   0.07096   0.07340   0.07533   0.07901
  Beta virt. eigenvalues --    0.08472   0.08727   0.08981   0.09503   0.09800

 Mulliken charges and spin densities:
               1          2
     1  C    1.444547  -1.981985
     2  C    0.350309   0.263338
     3  C   -1.210655   0.441333
     4  C    0.423380  -0.106473
     5  C   -1.576057   1.235377
     6  C    0.955022  -1.247399
     7  C   -1.145045   0.750063
     8  C    1.010448  -0.918188
     9  C    0.293009  -0.807298
    10  N    0.195220  -0.030806
    11  C   -0.055727  -0.192548
    12  C    1.175617  -0.802021
    13  C   -0.079365  -0.259061
    14  C   -0.889419   0.222055
    15  C    0.227098   0.718099
    16  C   -0.798064   0.045925
    17  C    0.178278  -0.764224
    18  C    0.270836  -0.298831
    19  C   -0.280179  -0.236500
    20  O   -0.238960  -0.007656
    21  H   -0.046121   0.205675
    22  H   -0.282572   0.426876
    23  H   -0.174700   0.334161
    24  H    0.109688   0.077823
    25  H   -0.280640   0.440035
    26  H   -0.293642   0.461039
    27  H   -0.484015   0.648962
    28  H    0.071002   0.064134
    29  H    0.008053   0.152336
    30  H    0.015834   0.102175
    31  H   -0.056583   0.200642
    32  H    0.359853  -0.164427
    33  H    0.078396   0.082170
    34  H   -0.340329   0.520574
    35  H   -0.161902   0.301138
    36  H   -0.225205   0.386291
    37  H    0.126803   0.060002
    38  H   -0.082240   0.237589
    39  H    0.029067   0.122690
    40  H   -0.056496   0.179269
    41  H    0.082358   0.075523
    42  H    0.159822  -0.005180
    43  H    0.193279   0.067302
 Sum of Mulliken charges =  -1.00000   1.00000

 Dipole moment (field-independent basis, Debye):
    X=             -3.6876    Y=             -0.9235    Z=              0.3877  Tot=              3.8212
 Quadrupole moment (field-independent basis, Debye-Ang):
   XX=           -247.8323   YY=           -177.1579   ZZ=           -157.7805
   XY=             -8.2056   XZ=              0.8644   YZ=             -3.4309

 Summary of Natural Population Analysis:

                                       Natural Population
                Natural  -----------------------------------------------
    Atom  No    Charge         Core      Valence    Rydberg      Total
 -----------------------------------------------------------------------
      C    1   -0.29097      0.99964     2.28628    0.00505     3.29097
      C    2   -0.01341      0.99952     2.00306    0.01083     3.01341
      C    3   -0.10605      0.99946     2.09743    0.00916     3.10605
      C    4   -0.01348      0.99949     2.00314    0.01084     3.01348
      C    5   -0.10296      0.99950     2.09348    0.00998     3.10296
      C    6   -0.09197      0.99956     2.08264    0.00977     3.09197
      C    7   -0.09771      0.99951     2.08829    0.00991     3.09771
      C    8   -0.01638      0.99956     2.00425    0.01257     3.01638
      C    9   -0.28251      0.99964     2.27798    0.00489     3.28251
      N   10   -0.31287      0.99966     2.80292    0.01029     3.81287
      C   11    0.10056      0.99949     1.88965    0.01030     2.89944
      C   12   -0.13801      0.99953     2.13015    0.00834     3.13801
      C   13   -0.08427      0.99958     2.07421    0.01049     3.08427
      C   14   -0.12697      0.99950     2.11762    0.00985     3.12697
      C   15   -0.00780      0.99951     1.99686    0.01142     3.00780
      C   16   -0.13615      0.99948     2.12832    0.00836     3.13615
      C   17   -0.20195      0.99959     2.19213    0.01023     3.20195
      C   18   -0.19838      0.99963     2.19011    0.00865     3.19838
      C   19   -0.01345      0.99960     2.00226    0.01159     3.01345
      O   20   -0.37333      0.99990     3.36646    0.00697     4.37333
      H   21    0.10468      0.00000     0.39415    0.00117     0.39532
      H   22    0.10241      0.00000     0.39650    0.00109     0.39759
      H   23    0.10606      0.00000     0.39248    0.00146     0.39394
      H   24    0.10257      0.00000     0.39562    0.00181     0.39743
      H   25    0.10166      0.00000     0.39718    0.00116     0.39834
      H   26    0.10103      0.00000     0.39792    0.00104     0.39897
      H   27    0.10092      0.00000     0.39777    0.00131     0.39908
      H   28    0.09212      0.00000     0.40523    0.00266     0.40788
      H   29    0.10117      0.00000     0.39769    0.00114     0.39883
      H   30    0.10190      0.00000     0.39701    0.00109     0.39810
      H   31    0.10055      0.00000     0.39847    0.00098     0.39945
      H   32    0.19068      0.00000     0.30687    0.00245     0.30932
      H   33    0.10304      0.00000     0.39533    0.00163     0.39696
      H   34    0.09999      0.00000     0.39912    0.00089     0.40001
      H   35    0.10006      0.00000     0.39844    0.00149     0.39994
      H   36    0.09732      0.00000     0.40089    0.00179     0.40268
      H   37    0.10166      0.00000     0.39699    0.00135     0.39834
      H   38    0.10596      0.00000     0.39295    0.00109     0.39404
      H   39    0.09750      0.00000     0.40147    0.00103     0.40250
      H   40    0.09792      0.00000     0.40085    0.00123     0.40208
      H   41    0.08387      0.00000     0.41501    0.00111     0.41613
      H   42    0.08246      0.00000     0.41632    0.00122     0.41754
      H   43    0.23252      0.00000     0.26426    0.00321     0.26748
 =======================================================================
   * Total *    0.00000     19.99135    52.78576    0.22288    73.00000

 Normal termination of Gaussian 16 at Mon Dec 14 15:22:33 2020.
