 Gaussian 16, Revision A.03,

 -----------------------------------------------------------
 # opt freq B3LYP/6-31G(d) empiricaldispersion=gd3bj scf=xqc
 -----------------------------------------------------------

 -------------------------------
 CID_79095103_JID_10943_neutraal
 -------------------------------
 Symbolic Z-matrix:
 Charge =  0 Multiplicity = 1

 SCF Done:  E(RB3LYP) =  -1239.44215081     A.U. after   16 cycles
 SCF Done:  E(RB3LYP) =  -1239.44799257     A.U. after   13 cycles
 SCF Done:  E(RB3LYP) =  -1239.44874787     A.U. after   12 cycles
 SCF Done:  E(RB3LYP) =  -1239.44927147     A.U. after   12 cycles
 SCF Done:  E(RB3LYP) =  -1239.44940659     A.U. after   12 cycles
 SCF Done:  E(RB3LYP) =  -1239.44954109     A.U. after   12 cycles
 SCF Done:  E(RB3LYP) =  -1239.44963991     A.U. after   10 cycles
 SCF Done:  E(RB3LYP) =  -1239.44975951     A.U. after   12 cycles
 SCF Done:  E(RB3LYP) =  -1239.44979779     A.U. after   11 cycles
 SCF Done:  E(RB3LYP) =  -1239.44981776     A.U. after   11 cycles
 SCF Done:  E(RB3LYP) =  -1239.44988786     A.U. after   10 cycles
 SCF Done:  E(RB3LYP) =  -1239.44989276     A.U. after   10 cycles
 SCF Done:  E(RB3LYP) =  -1239.44989518     A.U. after    9 cycles
 SCF Done:  E(RB3LYP) =  -1239.44989521     A.U. after    8 cycles
 SCF Done:  E(RB3LYP) =  -1239.44989529     A.U. after    7 cycles
 Optimization completed.
    -- Stationary point found.
 Normal termination of Gaussian 16 at Sat Dec 12 16:44:55 2020.

 --------------------------------------------------------------------
 #N Geom=AllCheck Guess=TCheck SCRF=Check GenChk RB3LYP/6-31G(d) Freq
 --------------------------------------------------------------------

 Structure from the checkpoint file:  "JID_10943.chk"
 -------------------------------
 CID_79095103_JID_10943_neutraal
 -------------------------------
 Charge =  0 Multiplicity = 1

 SCF Done:  E(RB3LYP) =  -1239.44989529     A.U. after    1 cycles

  Exact polarizability: 209.436   2.511 183.241 -10.382  21.803 185.896
 Approx polarizability: 275.481   3.800 291.935 -38.185  61.552 339.340

                      1                      2                      3
                      A                      A                      A
 Frequencies --      9.5582                17.8480                35.2759
 Red. masses --      7.2483                 4.0438                 4.7521
 Frc consts  --      0.0004                 0.0008                 0.0035
 IR Inten    --      0.8058                 0.2320                 0.8884

                      4                      5                      6
                      A                      A                      A
 Frequencies --     47.0410                54.7113                60.5282
 Red. masses --      5.0892                 5.3522                 3.6543
 Frc consts  --      0.0066                 0.0094                 0.0079
 IR Inten    --      0.9981                 2.3446                 1.7166

                      7                      8                      9
                      A                      A                      A
 Frequencies --    118.4530               124.4429               140.6695
 Red. masses --      4.6607                 5.7462                 5.7550
 Frc consts  --      0.0385                 0.0524                 0.0671
 IR Inten    --      1.1057                 6.1407                 1.6434

                     10                     11                     12
                      A                      A                      A
 Frequencies --    152.0560               159.7440               206.3954
 Red. masses --      3.0747                 4.3160                 3.0205
 Frc consts  --      0.0419                 0.0649                 0.0758
 IR Inten    --      1.7664                 0.9082                 2.6958

                     13                     14                     15
                      A                      A                      A
 Frequencies --    231.6494               253.6688               287.3971
 Red. masses --      1.4675                 5.9839                 2.5851
 Frc consts  --      0.0464                 0.2269                 0.1258
 IR Inten    --      0.9126                 5.5500                 0.8420

                     16                     17                     18
                      A                      A                      A
 Frequencies --    322.3310               330.8617               357.9632
 Red. masses --      5.2822                 3.5078                 3.8108
 Frc consts  --      0.3233                 0.2262                 0.2877
 IR Inten    --      9.3247                 1.8693                 2.6540

                     19                     20                     21
                      A                      A                      A
 Frequencies --    384.8037               391.3080               403.9895
 Red. masses --      3.2323                 1.2569                 3.7912
 Frc consts  --      0.2820                 0.1134                 0.3646
 IR Inten    --     12.5849               189.7694                 0.6863

                     22                     23                     24
                      A                      A                      A
 Frequencies --    449.5997               461.8856               511.5788
 Red. masses --      3.0569                 4.3644                 4.2872
 Frc consts  --      0.3641                 0.5486                 0.6611
 IR Inten    --      3.3081                 6.4404                 4.3563

                     25                     26                     27
                      A                      A                      A
 Frequencies --    531.3001               540.3708               550.0905
 Red. masses --      4.2669                 1.3288                 4.1148
 Frc consts  --      0.7096                 0.2286                 0.7336
 IR Inten    --      2.4393                62.7488                11.0243

                     28                     29                     30
                      A                      A                      A
 Frequencies --    588.9172               617.9631               633.1971
 Red. masses --      5.3775                 1.1533                 3.7245
 Frc consts  --      1.0989                 0.2595                 0.8798
 IR Inten    --     12.2845                20.4513                10.9542

                     31                     32                     33
                      A                      A                      A
 Frequencies --    650.3417               659.0319               695.6595
 Red. masses --      5.6400                 5.0941                 5.0460
 Frc consts  --      1.4054                 1.3036                 1.4388
 IR Inten    --      3.0542                12.6227                12.1324

                     34                     35                     36
                      A                      A                      A
 Frequencies --    707.1615               716.2591               720.3324
 Red. masses --      4.2528                 3.3455                 3.0686
 Frc consts  --      1.2530                 1.0112                 0.9381
 IR Inten    --      1.0417                 3.4391                20.9803

                     37                     38                     39
                      A                      A                      A
 Frequencies --    758.9384               798.1332               806.7721
 Red. masses --      6.5646                 1.1972                 1.5019
 Frc consts  --      2.2278                 0.4493                 0.5760
 IR Inten    --     24.2360                 2.6575                15.3602

                     40                     41                     42
                      A                      A                      A
 Frequencies --    810.4154               869.7986               876.3829
 Red. masses --      1.2841                 3.9504                 1.3560
 Frc consts  --      0.4969                 1.7609                 0.6136
 IR Inten    --     23.4648                13.2764                 1.7889

                     43                     44                     45
                      A                      A                      A
 Frequencies --    911.4643               945.2168               959.3966
 Red. masses --      1.3880                 1.4929                 2.7593
 Frc consts  --      0.6794                 0.7859                 1.4964
 IR Inten    --      4.6095                 0.3638                10.5031

                     46                     47                     48
                      A                      A                      A
 Frequencies --    962.7600               967.4422               982.0351
 Red. masses --      3.3672                 2.6583                 1.2990
 Frc consts  --      1.8389                 1.4659                 0.7381
 IR Inten    --     17.8840                 9.4351                 1.0447

                     49                     50                     51
                      A                      A                      A
 Frequencies --   1000.4126              1019.8512              1021.2217
 Red. masses --      2.3546                 3.2559                 6.0411
 Frc consts  --      1.3885                 1.9952                 3.7120
 IR Inten    --     41.1863                10.2735                 1.2281

                     52                     53                     54
                      A                      A                      A
 Frequencies --   1061.2205              1087.5914              1102.9206
 Red. masses --      1.3595                 1.6891                 1.6571
 Frc consts  --      0.9021                 1.1772                 1.1876
 IR Inten    --     24.4210                 2.1089                 3.8601

                     55                     56                     57
                      A                      A                      A
 Frequencies --   1119.0071              1132.0179              1153.2783
 Red. masses --      2.2053                 1.8726                 1.8610
 Frc consts  --      1.6270                 1.4139                 1.4584
 IR Inten    --     13.6947                11.5446                 8.1106

                     58                     59                     60
                      A                      A                      A
 Frequencies --   1207.5006              1209.0092              1232.3382
 Red. masses --      1.2780                 2.2712                 2.2657
 Frc consts  --      1.0978                 1.9560                 2.0273
 IR Inten    --      2.6736                43.5761                 8.9128

                     61                     62                     63
                      A                      A                      A
 Frequencies --   1248.4312              1259.0505              1301.0599
 Red. masses --      1.9303                 3.1551                 1.6521
 Frc consts  --      1.7726                 2.9468                 1.6477
 IR Inten    --     55.5893                35.2144                80.3493

                     64                     65                     66
                      A                      A                      A
 Frequencies --   1302.5589              1310.4915              1352.6566
 Red. masses --      1.4853                 1.4178                 2.2747
 Frc consts  --      1.4848                 1.4347                 2.4522
 IR Inten    --     23.4718                 6.2052               102.1933

                     67                     68                     69
                      A                      A                      A
 Frequencies --   1371.4302              1372.4189              1374.9469
 Red. masses --      1.7789                 3.2912                 2.0983
 Frc consts  --      1.9713                 3.6524                 2.3372
 IR Inten    --    121.0728                43.1741                72.0268

                     70                     71                     72
                      A                      A                      A
 Frequencies --   1387.3066              1412.3663              1424.9365
 Red. masses --      3.2658                 2.0707                 2.3001
 Frc consts  --      3.7032                 2.4337                 2.7516
 IR Inten    --    154.1538                 2.7944                19.0823

                     73                     74                     75
                      A                      A                      A
 Frequencies --   1440.0786              1488.7647              1493.2761
 Red. masses --      1.3690                 2.3214                 1.9051
 Frc consts  --      1.6727                 3.0315                 2.5029
 IR Inten    --      1.1882                59.3608                57.5839

                     76                     77                     78
                      A                      A                      A
 Frequencies --   1505.9807              1506.3946              1526.6228
 Red. masses --      1.0854                 1.1409                 1.0422
 Frc consts  --      1.4504                 1.5254                 1.4311
 IR Inten    --      9.1364                15.5945                 6.8989

                     79                     80                     81
                      A                      A                      A
 Frequencies --   1529.4410              1536.1038              1569.7946
 Red. masses --      2.3560                 1.0941                 6.1523
 Frc consts  --      3.2471                 1.5210                 8.9326
 IR Inten    --      1.8703                 2.6916               160.7921

                     82                     83                     84
                      A                      A                      A
 Frequencies --   1637.8562              1642.2243              1658.4794
 Red. masses --      4.5412                 6.1246                 1.3809
 Frc consts  --      7.1775                 9.7318                 2.2379
 IR Inten    --     14.7872                 1.1570               166.0143

                     85                     86                     87
                      A                      A                      A
 Frequencies --   1667.1408              1772.6841              3042.2559
 Red. masses --      4.6032                 8.2647                 1.0658
 Frc consts  --      7.5380                15.3017                 5.8121
 IR Inten    --     10.7509               331.8311                25.1054

                     88                     89                     90
                      A                      A                      A
 Frequencies --   3048.0957              3060.2731              3094.6375
 Red. masses --      1.0647                 1.0350                 1.0971
 Frc consts  --      5.8283                 5.7111                 6.1905
 IR Inten    --     29.7873                30.4518                10.9028

                     91                     92                     93
                      A                      A                      A
 Frequencies --   3096.8403              3129.0833              3143.4386
 Red. masses --      1.0990                 1.1035                 1.1030
 Frc consts  --      6.2101                 6.3659                 6.4214
 IR Inten    --      6.7255                37.5402                21.6768

                     94                     95                     96
                      A                      A                      A
 Frequencies --   3176.1176              3195.1870              3210.6729
 Red. masses --      1.0878                 1.0889                 1.0957
 Frc consts  --      6.4656                 6.5498                 6.6548
 IR Inten    --      7.1240                11.1648                20.7866

                     97                     98                     99
                      A                      A                      A
 Frequencies --   3233.7999              3266.5457              3289.4702
 Red. masses --      1.0897                 1.0950                 1.0986
 Frc consts  --      6.7142                 6.8840                 7.0041
 IR Inten    --      0.5850                 4.2443                 1.9674

                    100                    101                    102
                      A                      A                      A
 Frequencies --   3567.3618              3605.7025              3692.0485
 Red. masses --      1.0450                 1.0762                 1.1044
 Frc consts  --      7.8352                 8.2437                 8.8695
 IR Inten    --     44.8369                40.1440                35.3727

 - Thermochemistry -
 -------------------
 Temperature   298.150 Kelvin.  Pressure   1.00000 Atm.
 Atom     1 has atomic number  6 and mass  12.00000

 Molecular mass:   288.09325 amu.
 Principal axes and moments of inertia in atomic units:
                           1         2         3
     Eigenvalues --  3883.17419********************
           X            0.99987  -0.01551   0.00543
           Y            0.01599   0.99433  -0.10513
           Z           -0.00377   0.10520   0.99444
 This molecule is an asymmetric top.
 Rotational symmetry number  1.
 Warning -- assumption of classical behavior for rotation
           may cause significant error
 Rotational temperatures (Kelvin)      0.02230     0.00734     0.00710
 Rotational constants (GHZ):           0.46476     0.15290     0.14794
 Zero-point vibrational energy     760008.7 (Joules/Mol)
                                  181.64644 (Kcal/Mol)
 Warning -- explicit consideration of  29 degrees of freedom as
           vibrations may cause significant error
 Vibrational temperatures:     13.75    25.68    50.75    67.68    78.72
          (Kelvin)             87.09   170.43   179.05   202.39   218.77
                              229.84   296.96   333.29   364.97   413.50
                              463.76   476.04   515.03   553.65   563.00
                              581.25   646.87   664.55   736.05   764.42
                              777.47   791.46   847.32   889.11   911.03
                              935.70   948.20  1000.90  1017.45  1030.54
                             1036.40  1091.94  1148.34  1160.77  1166.01
                             1251.45  1260.92  1311.39  1359.96  1380.36
                             1385.20  1391.93  1412.93  1439.37  1467.34
                             1469.31  1526.86  1564.80  1586.86  1610.00
                             1628.72  1659.31  1737.32  1739.49  1773.06
                             1796.21  1811.49  1871.93  1874.09  1885.51
                             1946.17  1973.18  1974.60  1978.24  1996.02
                             2032.08  2050.17  2071.95  2142.00  2148.49
                             2166.77  2167.37  2196.47  2200.52  2210.11
                             2258.58  2356.51  2362.79  2386.18  2398.64
                             2550.50  4377.13  4385.53  4403.05  4452.49
                             4455.66  4502.05  4522.71  4569.72  4597.16
                             4619.44  4652.72  4699.83  4732.81  5132.64
                             5187.80  5312.03

 Zero-point correction=                           0.289472 (Hartree/Particle)
 Thermal correction to Energy=                    0.308502
 Thermal correction to Enthalpy=                  0.309446
 Thermal correction to Gibbs Free Energy=         0.238156
 Sum of electronic and zero-point Energies=          -1239.160423
 Sum of electronic and thermal Energies=             -1239.141394
 Sum of electronic and thermal Enthalpies=           -1239.140449
 Sum of electronic and thermal Free Energies=        -1239.211739

                     E (Thermal)             CV                S
                      KCal/Mol        Cal/Mol-Kelvin    Cal/Mol-Kelvin
 Total                  193.588             71.273            150.041
 Electronic               0.000              0.000              0.000
 Translational            0.889              2.981             42.872
 Rotational               0.889              2.981             34.679
 Vibrational            191.810             65.311             72.490
 Vibration     1          0.593              1.987              8.101
 Vibration     2          0.593              1.986              6.860
 Vibration     3          0.594              1.982              5.508
 Vibration     4          0.595              1.979              4.938
 Vibration     5          0.596              1.976              4.639
 Vibration     6          0.597              1.973              4.440
 Vibration     7          0.609              1.934              3.125
 Vibration     8          0.610              1.929              3.030
 Vibration     9          0.615              1.913              2.795
 Vibration    10          0.619              1.900              2.646
 Vibration    11          0.622              1.892              2.553
 Vibration    12          0.641              1.831              2.075
 Vibration    13          0.653              1.793              1.866
 Vibration    14          0.665              1.757              1.705
 Vibration    15          0.685              1.697              1.489
 Vibration    16          0.707              1.631              1.298
 Vibration    17          0.713              1.614              1.256
 Vibration    18          0.733              1.559              1.131
 Vibration    19          0.754              1.503              1.020
 Vibration    20          0.759              1.489              0.995
 Vibration    21          0.769              1.462              0.948
 Vibration    22          0.808              1.362              0.797
 Vibration    23          0.820              1.335              0.761
 Vibration    24          0.867              1.224              0.630
 Vibration    25          0.886              1.181              0.584
 Vibration    26          0.895              1.161              0.564
 Vibration    27          0.905              1.139              0.544
 Vibration    28          0.946              1.055              0.469
 Vibration    29          0.978              0.994              0.420

 Optimization completed.
    -- Stationary point found.
 Normal termination of Gaussian 16 at Sat Dec 12 17:02:22 2020.

 ----------------------------------------------------------------------
 # B3LYP/6-311++G(d,p) empiricaldispersion=gd3bj scf=xqc pop=npa geom=c
 heck
 ----------------------------------------------------------------------

 ---------------------------------------
 CID_79095103_JID_10943_Energie_neutraal
 ---------------------------------------
 Structure from the checkpoint file:  "JID_10943.chk"
 Charge =  0 Multiplicity = 1

 SCF Done:  E(RB3LYP) =  -1239.71161134     A.U. after   18 cycles
 Normal termination of Gaussian 16 at Sat Dec 12 17:11:34 2020.

 ----------------------------------------------------------------------
 # B3LYP/6-311++G(d,p) empiricaldispersion=gd3bj scf=xqc pop=npa geom=c
 heck
 ----------------------------------------------------------------------

 -------------------------------------
 CID_79095103_JID_10943_Energie_kation
 -------------------------------------
 Structure from the checkpoint file:  "JID_10943.chk"
 Charge =  1 Multiplicity = 2

 SCF Done:  E(UB3LYP) =  -1239.43066765     A.U. after   33 cycles
 SCF Done:  E(UB3LYP) =  -1239.43066765     a.u. after    3 cycles
 Normal termination of Gaussian 16 at Sat Dec 12 18:19:06 2020.
 Gaussian 16:  ES64L-G16RevA.03 25-Dec-2016

 ----------------------------------------------------------------------
 # B3LYP/6-311++G(d,p) empiricaldispersion=gd3bj scf=xqc pop=npa geom=c
 heck
 ----------------------------------------------------------------------

 ------------------------------------
 CID_79095103_JID_10943_Energie_anion
 ------------------------------------
 Structure from the checkpoint file:  "JID_10943.chk"
 Charge = -1 Multiplicity = 2

                         Standard orientation:
 ---------------------------------------------------------------------
 Center     Atomic      Atomic             Coordinates (Angstroms)
 Number     Number       Type             X           Y           Z
 ---------------------------------------------------------------------
      1          6           0       -5.538593    1.862060   -0.881306
      2          6           0       -5.196456    0.418460   -1.287128
      3          6           0       -3.790282    0.045747   -0.964249
      4          6           0       -2.712929   -0.329370   -1.720996
      5          6           0       -1.631711   -0.541335   -0.813951
      6          6           0       -2.117243   -0.279059    0.443099
      7          8           0       -3.436037    0.085246    0.348473
      8          6           0       -1.554883   -0.192957    1.807167
      9          8           0       -2.083826    0.491133    2.674761
     10          7           0       -0.391951   -0.889080    2.062573
     11          6           0        0.184920   -1.986230    1.311659
     12          6           0        1.342740   -1.612030    0.396928
     13          6           0        1.893890   -0.334622    0.404336
     14          6           0        2.957516   -0.004552   -0.448085
     15          6           0        3.475974   -0.984001   -1.308120
     16          6           0        2.932831   -2.268634   -1.312211
     17          6           0        1.868638   -2.579728   -0.470109
     18          6           0        3.527293    1.369762   -0.423098
     19         16           0        3.607168    2.303359    0.954100
     20          7           0        4.018170    1.803216   -1.608084
     21          1           0       -5.384670    2.005975    0.192054
     22          1           0       -6.583751    2.089913   -1.115129
     23          1           0       -4.901971    2.576793   -1.413216
     24          1           0       -5.880861   -0.274244   -0.778964
     25          1           0       -5.344702    0.277679   -2.363382
     26          1           0       -2.695111   -0.436756   -2.796547
     27          1           0       -0.618834   -0.815692   -1.067348
     28          1           0       -0.062313   -0.734872    3.006897
     29          1           0        0.530460   -2.740990    2.029174
     30          1           0       -0.604761   -2.463373    0.722132
     31          1           0        1.495458    0.424399    1.067154
     32          1           0        4.329805   -0.758401   -1.939794
     33          1           0        3.346118   -3.028151   -1.969482
     34          1           0        1.443745   -3.581174   -0.481235
     35          1           0        3.762378    1.347717   -2.473571
     36          1           0        4.379470    2.746389   -1.655259
 ---------------------------------------------------------------------

 SCF Done:  E(UB3LYP) =  -1239.73267518     A.U. after   32 cycles

 The electronic state is 2-A.
 Alpha  occ. eigenvalues --  -88.63745 -19.09726 -18.98456 -14.23471 -14.19999
 Alpha  occ. eigenvalues --  -10.17737 -10.14594 -10.13363 -10.11250 -10.11164
 Alpha  occ. eigenvalues --  -10.09414 -10.08846 -10.08728 -10.08585 -10.05588
 Alpha  occ. eigenvalues --  -10.05194 -10.04223 -10.04138 -10.04026 -10.03553
 Alpha  occ. eigenvalues --   -7.72529  -5.68876  -5.68444  -5.68094  -1.02685
 Alpha  occ. eigenvalues --   -0.93627  -0.82379  -0.80267  -0.73045  -0.72791
 Alpha  occ. eigenvalues --   -0.71447  -0.65780  -0.65070  -0.63252  -0.58408
 Alpha  occ. eigenvalues --   -0.57902  -0.57096  -0.52442  -0.51330  -0.49782
 Alpha  occ. eigenvalues --   -0.46951  -0.46477  -0.43881  -0.42564  -0.41138
 Alpha  occ. eigenvalues --   -0.39650  -0.39042  -0.37696  -0.37467  -0.36566
 Alpha  occ. eigenvalues --   -0.34681  -0.34015  -0.33764  -0.32764  -0.31502
 Alpha  occ. eigenvalues --   -0.31382  -0.30766  -0.30171  -0.29451  -0.29308
 Alpha  occ. eigenvalues --   -0.28864  -0.28215  -0.27400  -0.25339  -0.24047
 Alpha  occ. eigenvalues --   -0.22763  -0.22053  -0.20162  -0.19829  -0.16573
 Alpha  occ. eigenvalues --   -0.15356  -0.14272  -0.13384  -0.12871  -0.08954
 Alpha  occ. eigenvalues --   -0.06329   0.03183
 Alpha virt. eigenvalues --    0.04861   0.05742   0.07321   0.07850   0.08034
 Alpha virt. eigenvalues --    0.08540   0.09152   0.09394   0.10395   0.10803
 Alpha virt. eigenvalues --    0.11059   0.11784   0.11929   0.12025   0.12447

  Beta  occ. eigenvalues --  -88.63684 -19.09687 -18.98425 -14.23468 -14.19876
  Beta  occ. eigenvalues --  -10.17711 -10.14570 -10.13323 -10.11252 -10.11164
  Beta  occ. eigenvalues --  -10.09410 -10.08736 -10.08575 -10.08387 -10.05605
  Beta  occ. eigenvalues --  -10.05248 -10.04084 -10.04001 -10.03758 -10.03452
  Beta  occ. eigenvalues --   -7.72474  -5.68854  -5.68244  -5.68058  -1.02619
  Beta  occ. eigenvalues --   -0.93570  -0.82353  -0.79793  -0.72806  -0.72734
  Beta  occ. eigenvalues --   -0.71416  -0.65670  -0.64909  -0.62808  -0.58236
  Beta  occ. eigenvalues --   -0.57423  -0.57015  -0.52414  -0.51288  -0.49314
  Beta  occ. eigenvalues --   -0.46787  -0.46422  -0.43561  -0.42520  -0.40979
  Beta  occ. eigenvalues --   -0.39587  -0.39003  -0.37553  -0.37324  -0.36545
  Beta  occ. eigenvalues --   -0.34609  -0.33940  -0.33584  -0.32547  -0.31449
  Beta  occ. eigenvalues --   -0.31240  -0.30684  -0.30083  -0.29383  -0.29145
  Beta  occ. eigenvalues --   -0.28844  -0.28079  -0.27377  -0.24187  -0.23686
  Beta  occ. eigenvalues --   -0.22571  -0.21002  -0.19808  -0.19684  -0.16522
  Beta  occ. eigenvalues --   -0.15273  -0.14056  -0.12513  -0.11809  -0.07788
  Beta  occ. eigenvalues --   -0.06082
  Beta virt. eigenvalues --    0.05023   0.05944   0.07267   0.07774   0.07982
  Beta virt. eigenvalues --    0.08443   0.08542   0.09207   0.09399   0.10359
  Beta virt. eigenvalues --    0.10738   0.11217   0.11784   0.11956   0.12234

 Mulliken charges and spin densities:
               1          2
     1  C   -0.470225  -0.048328
     2  C   -0.446977   0.048781
     3  C    0.304492   0.002602
     4  C   -0.138639   0.016155
     5  C   -0.039915  -0.019191
     6  C   -0.177084  -0.004659
     7  O    0.016950   0.008615
     8  C   -0.127103   0.014688
     9  O   -0.342690   0.011298
    10  N   -0.157620   0.002169
    11  C   -0.574673   0.006860
    12  C    0.482740  -0.003842
    13  C   -0.322574   0.042858
    14  C    0.981517   0.040260
    15  C   -0.563172   0.128601
    16  C   -0.262662  -0.029918
    17  C   -0.293039   0.237742
    18  C   -0.427426   0.206896
    19  S   -0.847832   0.176022
    20  N   -0.223887   0.077587
    21  H    0.172367   0.001806
    22  H    0.102081   0.023401
    23  H    0.128309   0.004302
    24  H    0.124168   0.023997
    25  H    0.145827   0.013483
    26  H    0.159863   0.005215
    27  H    0.243804  -0.008526
    28  H    0.318118   0.000449
    29  H    0.160006   0.012967
    30  H    0.168747   0.006746
    31  H    0.105727   0.001912
    32  H    0.110412   0.005566
    33  H    0.130419   0.000906
    34  H    0.112032  -0.016922
    35  H    0.199031   0.012416
    36  H    0.248907  -0.002916
 Sum of Mulliken charges =  -1.00000   1.00000

 Dipole moment (field-independent basis, Debye):
    X=             -8.4766    Y=             -5.1109    Z=             -5.7091  Tot=             11.4266
 Quadrupole moment (field-independent basis, Debye-Ang):
   XX=           -187.6602   YY=           -152.1071   ZZ=           -139.2554
   XY=            -12.1074   XZ=              0.5047   YZ=            -14.7589

 Summary of Natural Population Analysis:

                                       Natural Population
                Natural  -----------------------------------------------
    Atom  No    Charge         Core      Valence    Rydberg      Total
 -----------------------------------------------------------------------
      C    1   -0.28243      0.99967     2.27876    0.00400     3.28243
      C    2   -0.21099      0.99961     2.20362    0.00776     3.21099
      C    3    0.16342      0.99949     1.82327    0.01382     2.83658
      C    4   -0.15517      0.99950     2.14800    0.00766     3.15517
      C    5   -0.12398      0.99954     2.11653    0.00790     3.12398
      C    6    0.10392      0.99944     1.88384    0.01281     2.89608
      O    7   -0.22513      0.99985     3.21674    0.00855     4.22513
      C    8    0.31825      0.99962     1.66124    0.02089     2.68175
      O    9   -0.31463      0.99988     3.30851    0.00624     4.31463
      N   10   -0.30955      0.99968     2.80150    0.00836     3.80955
      C   11   -0.09348      0.99958     2.08426    0.00964     3.09348
      C   12   -0.04314      0.99950     2.03484    0.00880     3.04314
      C   13   -0.06498      0.99947     2.05767    0.00783     3.06498
      C   14   -0.02679      0.99946     2.01539    0.01194     3.02679
      C   15   -0.07648      0.99953     2.06862    0.00832     3.07648
      C   16   -0.11758      0.99957     2.10857    0.00943     3.11758
      C   17   -0.06025      0.99952     2.05162    0.00911     3.06025
      C   18    0.12732      0.99961     1.85468    0.01839     2.87268
      S   19   -0.12123      4.99955     3.10644    0.01524     8.12123
      N   20   -0.37552      0.99968     2.86481    0.01103     3.87552
      H   21    0.10644      0.00000     0.39274    0.00082     0.39356
      H   22    0.09299      0.00000     0.40553    0.00147     0.40701
      H   23    0.09894      0.00000     0.40016    0.00090     0.40106
      H   24    0.10226      0.00000     0.39604    0.00171     0.39774
      H   25    0.10176      0.00000     0.39696    0.00128     0.39824
      H   26    0.10643      0.00000     0.39277    0.00080     0.39357
      H   27    0.12400      0.00000     0.37506    0.00095     0.37600
      H   28    0.19423      0.00000     0.30373    0.00204     0.30577
      H   29    0.09793      0.00000     0.40092    0.00115     0.40207
      H   30    0.10107      0.00000     0.39761    0.00132     0.39893
      H   31    0.11345      0.00000     0.38528    0.00128     0.38655
      H   32    0.09393      0.00000     0.40461    0.00146     0.40607
      H   33    0.09096      0.00000     0.40741    0.00163     0.40904
      H   34    0.08765      0.00000     0.41088    0.00148     0.41235
      H   35    0.18586      0.00000     0.31262    0.00153     0.31414
      H   36    0.19052      0.00000     0.30755    0.00193     0.30948
 =======================================================================
   * Total *   -0.00000     23.99173    51.77880    0.22947    76.00000

 Normal termination of Gaussian 16 at Sat Dec 12 18:41:10 2020.
