 Gaussian 16, Revision A.03,

 -----------------------------------------------------------
 # opt freq B3LYP/6-31G(d) empiricaldispersion=gd3bj scf=xqc
 -----------------------------------------------------------

 -------------------------------
 CID_130857826_JID_3458_neutraal
 -------------------------------
 Symbolic Z-matrix:
 Charge =  0 Multiplicity = 1

 SCF Done:  E(RB3LYP) =  -630.058904964     A.U. after   15 cycles
 SCF Done:  E(RB3LYP) =  -630.063328931     A.U. after   13 cycles
 SCF Done:  E(RB3LYP) =  -630.063592744     A.U. after   12 cycles
 SCF Done:  E(RB3LYP) =  -630.063710147     A.U. after   12 cycles
 SCF Done:  E(RB3LYP) =  -630.063786444     A.U. after   12 cycles
 SCF Done:  E(RB3LYP) =  -630.063827955     A.U. after   11 cycles
 SCF Done:  E(RB3LYP) =  -630.063829438     A.U. after    9 cycles
 SCF Done:  E(RB3LYP) =  -630.063829739     A.U. after    9 cycles
 Optimization completed.
    -- Stationary point found.
 Normal termination of Gaussian 16 at Wed Dec  9 23:15:08 2020.

 --------------------------------------------------------------------
 #N Geom=AllCheck Guess=TCheck SCRF=Check GenChk RB3LYP/6-31G(d) Freq
 --------------------------------------------------------------------

 Structure from the checkpoint file:  "JID_3458.chk"
 -------------------------------
 CID_130857826_JID_3458_neutraal
 -------------------------------
 Charge =  0 Multiplicity = 1

 SCF Done:  E(RB3LYP) =  -630.063829739     A.U. after    1 cycles

  Exact polarizability: 183.951 -24.137 116.132  -2.971  -3.550  59.039
 Approx polarizability: 273.129 -88.946 215.163  -3.283  -7.984  85.677

                      1                      2                      3
                      A                      A                      A
 Frequencies --     43.6582                54.3608                87.4267
 Red. masses --      3.4040                 4.2130                 5.5396
 Frc consts  --      0.0038                 0.0073                 0.0249
 IR Inten    --      0.1392                 3.7058                 1.4857

                      4                      5                      6
                      A                      A                      A
 Frequencies --     97.9290               110.5466               121.4403
 Red. masses --      1.1035                 5.0163                 3.2008
 Frc consts  --      0.0062                 0.0361                 0.0278
 IR Inten    --      0.5101                 0.0864                 1.0659

                      7                      8                      9
                      A                      A                      A
 Frequencies --    174.6848               213.4814               235.0559
 Red. masses --      4.8509                 1.9837                 1.8266
 Frc consts  --      0.0872                 0.0533                 0.0595
 IR Inten    --      0.7058                 1.1473                 3.0017

                     10                     11                     12
                      A                      A                      A
 Frequencies --    258.0247               276.2010               338.6955
 Red. masses --      4.0128                 3.4006                 2.8005
 Frc consts  --      0.1574                 0.1528                 0.1893
 IR Inten    --      2.1299                 4.2885                 5.4544

                     13                     14                     15
                      A                      A                      A
 Frequencies --    388.3252               394.6440               443.1168
 Red. masses --      4.6686                 5.9682                 3.5031
 Frc consts  --      0.4148                 0.5476                 0.4053
 IR Inten    --      4.3383                 9.9824                 4.0041

                     16                     17                     18
                      A                      A                      A
 Frequencies --    531.8468               572.3915               623.8915
 Red. masses --      3.9683                 1.1631                 6.0184
 Frc consts  --      0.6613                 0.2245                 1.3802
 IR Inten    --     16.0932                87.3661                 5.7411

                     19                     20                     21
                      A                      A                      A
 Frequencies --    672.5249               704.3345               731.5738
 Red. masses --      3.6245                 3.7979                 3.2657
 Frc consts  --      0.9659                 1.1101                 1.0298
 IR Inten    --      5.1085                 5.1379                 6.8703

                     22                     23                     24
                      A                      A                      A
 Frequencies --    738.5924               760.0749               792.4008
 Red. masses --      5.2771                 7.0394                 2.6468
 Frc consts  --      1.6961                 2.3961                 0.9792
 IR Inten    --      4.0564                10.7411                 4.1520

                     25                     26                     27
                      A                      A                      A
 Frequencies --    805.0719               831.4922               870.8772
 Red. masses --      1.6868                 1.4958                 2.8101
 Frc consts  --      0.6442                 0.6093                 1.2557
 IR Inten    --      1.7319                 5.4374                 2.1081

                     28                     29                     30
                      A                      A                      A
 Frequencies --    882.5253               945.4373               998.1552
 Red. masses --      1.4231                 2.5580                 2.7889
 Frc consts  --      0.6531                 1.3471                 1.6371
 IR Inten    --     49.3178                19.0779                 3.4535

                     31                     32                     33
                      A                      A                      A
 Frequencies --   1023.0199              1072.9216              1073.3091
 Red. masses --      1.5509                 1.5555                 4.4581
 Frc consts  --      0.9563                 1.0550                 3.0258
 IR Inten    --     33.2638                 5.3804               111.9466

                     34                     35                     36
                      A                      A                      A
 Frequencies --   1131.3615              1142.6252              1179.8542
 Red. masses --      2.0632                 3.3110                 1.7113
 Frc consts  --      1.5560                 2.5470                 1.4035
 IR Inten    --     97.5491               116.6188                22.2479

                     37                     38                     39
                      A                      A                      A
 Frequencies --   1208.5164              1270.5028              1281.0270
 Red. masses --      1.7273                 2.1410                 2.8709
 Frc consts  --      1.4864                 2.0362                 2.7757
 IR Inten    --      9.1867                11.9273               361.9579

                     40                     41                     42
                      A                      A                      A
 Frequencies --   1344.2193              1346.2992              1362.3067
 Red. masses --      1.1202                 3.1712                 1.9982
 Frc consts  --      1.1926                 3.3865                 2.1849
 IR Inten    --      8.7574                12.5210                96.7401

                     43                     44                     45
                      A                      A                      A
 Frequencies --   1419.7507              1438.6338              1443.8302
 Red. masses --      1.2815                 1.8055                 1.3147
 Frc consts  --      1.5219                 2.2016                 1.6147
 IR Inten    --     14.6672                37.9267                10.9227

                     46                     47                     48
                      A                      A                      A
 Frequencies --   1448.0739              1499.9589              1509.8805
 Red. masses --      1.8408                 1.0432                 1.0725
 Frc consts  --      2.2743                 1.3829                 1.4405
 IR Inten    --     29.4469                 7.3096                11.5142

                     49                     50                     51
                      A                      A                      A
 Frequencies --   1515.3261              1518.7569              1537.9807
 Red. masses --      1.0543                 1.0784                 1.0566
 Frc consts  --      1.4263                 1.4656                 1.4725
 IR Inten    --     18.2303                 7.6163                 8.2035

                     52                     53                     54
                      A                      A                      A
 Frequencies --   1691.8326              1713.4414              1789.3774
 Red. masses --      7.3147                 7.4938                10.6856
 Frc consts  --     12.3356                12.9626                20.1582
 IR Inten    --      3.2049               196.3047               620.3664

                     55                     56                     57
                      A                      A                      A
 Frequencies --   1830.6691              3053.5811              3061.8845
 Red. masses --     11.5078                 1.0366                 1.0363
 Frc consts  --     22.7228                 5.6946                 5.7241
 IR Inten    --    299.0004                14.3711                16.9854

                     58                     59                     60
                      A                      A                      A
 Frequencies --   3096.6860              3106.1712              3127.2283
 Red. masses --      1.0596                 1.0997                 1.1023
 Frc consts  --      5.9867                 6.2513                 6.3517
 IR Inten    --     26.5450                 8.0427                25.4909

                     61                     62                     63
                      A                      A                      A
 Frequencies --   3143.1143              3143.6065              3161.6202
 Red. masses --      1.1028                 1.1028                 1.1077
 Frc consts  --      6.4188                 6.4211                 6.5237
 IR Inten    --     14.7384                 8.4575                19.7063

                     64                     65                     66
                      A                      A                      A
 Frequencies --   3237.0088              3246.4997              3655.7645
 Red. masses --      1.0904                 1.0965                 1.0794
 Frc consts  --      6.7318                 6.8093                 8.4994
 IR Inten    --      0.4717                 3.7683               104.4052

 - Thermochemistry -
 -------------------
 Temperature   298.150 Kelvin.  Pressure   1.00000 Atm.
 Atom     1 has atomic number  6 and mass  12.00000

 Molecular mass:   181.07389 amu.
 Principal axes and moments of inertia in atomic units:
                           1         2         3
     Eigenvalues --  1004.496444529.387135351.07516
           X            0.99954   0.03011   0.00243
           Y           -0.03012   0.99954   0.00300
           Z           -0.00234  -0.00307   0.99999
 This molecule is an asymmetric top.
 Rotational symmetry number  1.
 Warning -- assumption of classical behavior for rotation
           may cause significant error
 Rotational temperatures (Kelvin)      0.08623     0.01912     0.01619
 Rotational constants (GHZ):           1.79666     0.39845     0.33727
 Zero-point vibrational energy     505574.3 (Joules/Mol)
                                  120.83516 (Kcal/Mol)
 Warning -- explicit consideration of  17 degrees of freedom as
           vibrations may cause significant error
 Vibrational temperatures:     62.81    78.21   125.79   140.90   159.05
          (Kelvin)            174.73   251.33   307.15   338.19   371.24
                              397.39   487.31   558.71   567.80   637.55
                              765.21   823.54   897.64   967.61  1013.38
                             1052.57  1062.67  1093.58  1140.09  1158.32
                             1196.33  1253.00  1269.76  1360.27  1436.12
                             1471.90  1543.69  1544.25  1627.78  1643.98
                             1697.55  1738.79  1827.97  1843.11  1934.03
                             1937.02  1960.06  2042.70  2069.87  2077.35
                             2083.46  2158.11  2172.38  2180.22  2185.15
                             2212.81  2434.17  2465.26  2574.52  2633.92
                             4393.42  4405.37  4455.44  4469.09  4499.38
                             4522.24  4522.95  4548.87  4657.33  4670.99
                             5259.83

 Zero-point correction=                           0.192563 (Hartree/Particle)
 Thermal correction to Energy=                    0.205582
 Thermal correction to Enthalpy=                  0.206526
 Thermal correction to Gibbs Free Energy=         0.152105
 Sum of electronic and zero-point Energies=           -629.871267
 Sum of electronic and thermal Energies=              -629.858248
 Sum of electronic and thermal Enthalpies=            -629.857304
 Sum of electronic and thermal Free Energies=         -629.911725

                     E (Thermal)             CV                S
                      KCal/Mol        Cal/Mol-Kelvin    Cal/Mol-Kelvin
 Total                  129.004             47.012            114.538
 Electronic               0.000              0.000              0.000
 Translational            0.889              2.981             41.488
 Rotational               0.889              2.981             31.566
 Vibrational            127.227             41.051             41.485
 Vibration     1          0.595              1.980              5.086
 Vibration     2          0.596              1.976              4.652
 Vibration     3          0.601              1.958              3.717
 Vibration     4          0.603              1.951              3.495
 Vibration     5          0.606              1.941              3.259
 Vibration     6          0.609              1.931              3.077
 Vibration     7          0.627              1.874              2.384
 Vibration     8          0.644              1.820              2.014
 Vibration     9          0.655              1.787              1.840
 Vibration    10          0.667              1.749              1.675
 Vibration    11          0.678              1.717              1.557
 Vibration    12          0.719              1.598              1.218
 Vibration    13          0.756              1.495              1.007
 Vibration    14          0.762              1.482              0.983
 Vibration    15          0.803              1.376              0.817
 Vibration    16          0.887              1.180              0.583
 Vibration    17          0.929              1.091              0.500

                           ! Non-Optimized Parameters !
 Normal termination of Gaussian 16 at Wed Dec  9 23:20:14 2020.

 ----------------------------------------------------------------------
 # B3LYP/6-311++G(d,p) empiricaldispersion=gd3bj scf=xqc pop=npa geom=c
 heck
 ----------------------------------------------------------------------

 ---------------------------------------
 CID_130857826_JID_3458_Energie_neutraal
 ---------------------------------------
 Structure from the checkpoint file:  "JID_3458.chk"
 Charge =  0 Multiplicity = 1

 SCF Done:  E(RB3LYP) =  -630.248451454     A.U. after   15 cycles
 Normal termination of Gaussian 16 at Wed Dec  9 23:22:28 2020.

 ----------------------------------------------------------------------
 # B3LYP/6-311++G(d,p) empiricaldispersion=gd3bj scf=xqc pop=npa geom=c
 heck
 ----------------------------------------------------------------------

 -------------------------------------
 CID_130857826_JID_3458_Energie_kation
 -------------------------------------
 Structure from the checkpoint file:  "JID_3458.chk"
 Charge =  1 Multiplicity = 2

 SCF Done:  E(UB3LYP) =  -629.925181675     A.U. after   25 cycles
 Normal termination of Gaussian 16 at Wed Dec  9 23:27:38 2020.
 Gaussian 16:  ES64L-G16RevA.03 25-Dec-2016

 ----------------------------------------------------------------------
 # B3LYP/6-311++G(d,p) empiricaldispersion=gd3bj scf=xqc pop=npa geom=c
 heck
 ----------------------------------------------------------------------

 ------------------------------------
 CID_130857826_JID_3458_Energie_anion
 ------------------------------------
 Structure from the checkpoint file:  "JID_3458.chk"
 Charge = -1 Multiplicity = 2

                         Standard orientation:
 ---------------------------------------------------------------------
 Center     Atomic      Atomic             Coordinates (Angstroms)
 Number     Number       Type             X           Y           Z
 ---------------------------------------------------------------------
      1          6           0        3.876451    1.189432    0.886943
      2          6           0        3.246128    0.945471   -0.474283
      3          8           0        1.922442    0.374011   -0.343268
      4          6           0        1.868785   -0.980835   -0.161431
      5          8           0        2.860721   -1.684606   -0.134205
      6          6           0        0.504597   -1.487179   -0.009145
      7          6           0       -0.642074   -0.763153   -0.006314
      8          6           0       -1.999738   -1.302096    0.158459
      9          6           0       -2.893084   -0.295100    0.112864
     10          6           0       -2.127530    0.982567   -0.088867
     11          8           0       -2.561131    2.115079   -0.182731
     12          7           0       -0.787410    0.602986   -0.150395
     13          6           0       -4.377083   -0.295676    0.225684
     14          1           0        3.234761    1.826969    1.503876
     15          1           0        4.844251    1.688702    0.765078
     16          1           0        4.040120    0.241489    1.405911
     17          1           0        3.084098    1.879167   -1.018051
     18          1           0        3.856600    0.272774   -1.080196
     19          1           0        0.438568   -2.560541    0.121125
     20          1           0       -2.196909   -2.358584    0.292757
     21          1           0       -0.006486    1.230072   -0.278848
     22          1           0       -4.769110   -1.304904    0.376849
     23          1           0       -4.698431    0.338578    1.060250
     24          1           0       -4.830549    0.128921   -0.677816
 ---------------------------------------------------------------------

 SCF Done:  E(UB3LYP) =  -630.286318708     A.U. after   20 cycles

 The electronic state is 2-A.
 Alpha  occ. eigenvalues --  -19.02505 -18.94562 -18.93066 -14.18734 -10.13557
 Alpha  occ. eigenvalues --  -10.11558 -10.10011 -10.06438 -10.05927 -10.04027
 Alpha  occ. eigenvalues --  -10.01725 -10.01555 -10.00550  -0.95835  -0.88409
 Alpha  occ. eigenvalues --   -0.86665  -0.80154  -0.66424  -0.65441  -0.61969
 Alpha  occ. eigenvalues --   -0.57316  -0.53845  -0.48814  -0.44494  -0.43080
 Alpha  occ. eigenvalues --   -0.40991  -0.37996  -0.35782  -0.33788  -0.31955
 Alpha  occ. eigenvalues --   -0.31115  -0.30253  -0.29662  -0.29099  -0.27902
 Alpha  occ. eigenvalues --   -0.27263  -0.26786  -0.26033  -0.25473  -0.23953
 Alpha  occ. eigenvalues --   -0.23261  -0.21418  -0.19618  -0.17332  -0.13107
 Alpha  occ. eigenvalues --   -0.11371  -0.10644  -0.08841   0.02591
 Alpha virt. eigenvalues --    0.07711   0.09082   0.10075   0.10960   0.11076
 Alpha virt. eigenvalues --    0.12066   0.13047   0.13197   0.14153   0.14518
 Alpha virt. eigenvalues --    0.15384   0.15998   0.16291   0.16913   0.17517

  Beta  occ. eigenvalues --  -19.02456 -18.94291 -18.92669 -14.18825 -10.13429
  Beta  occ. eigenvalues --  -10.11561 -10.09838 -10.06433 -10.05684 -10.04051
  Beta  occ. eigenvalues --  -10.01448 -10.01370 -10.00362  -0.95640  -0.87799
  Beta  occ. eigenvalues --   -0.86266  -0.79856  -0.66315  -0.65020  -0.61491
  Beta  occ. eigenvalues --   -0.57076  -0.53712  -0.48093  -0.44265  -0.42931
  Beta  occ. eigenvalues --   -0.40657  -0.37758  -0.35561  -0.33560  -0.31695
  Beta  occ. eigenvalues --   -0.30937  -0.29527  -0.29352  -0.28907  -0.27714
  Beta  occ. eigenvalues --   -0.26830  -0.26416  -0.25581  -0.25064  -0.23619
  Beta  occ. eigenvalues --   -0.23081  -0.21208  -0.17713  -0.16509  -0.12824
  Beta  occ. eigenvalues --   -0.10373  -0.10245  -0.06854
  Beta virt. eigenvalues --    0.07648   0.08927   0.09051   0.10057   0.10943
  Beta virt. eigenvalues --    0.11057   0.12048   0.13054   0.13257   0.14143
  Beta virt. eigenvalues --    0.14508   0.15378   0.16257   0.16832   0.17185

 Mulliken charges and spin densities:
               1          2
     1  C   -0.326458  -0.015029
     2  C   -0.206176   0.010183
     3  O   -0.101210   0.006263
     4  C   -0.442023   0.114655
     5  O   -0.367769   0.087425
     6  C   -0.165118   0.143029
     7  C   -0.231517   0.151995
     8  C    0.188300   0.066289
     9  C    0.001910   0.231918
    10  C   -0.001327   0.088254
    11  O   -0.453136   0.142858
    12  N   -0.242562  -0.052506
    13  C   -0.389029   0.008777
    14  H    0.130664   0.002046
    15  H    0.096048   0.005381
    16  H    0.166202   0.005819
    17  H    0.126249   0.002507
    18  H    0.163024  -0.002099
    19  H    0.136411  -0.008510
    20  H    0.114365  -0.015027
    21  H    0.408303  -0.000601
    22  H    0.119310   0.000596
    23  H    0.137877   0.012796
    24  H    0.137662   0.012982
 Sum of Mulliken charges =  -1.00000   1.00000

 Dipole moment (field-independent basis, Debye):
    X=              2.8337    Y=              0.5812    Z=              0.3115  Tot=              2.9094
 Quadrupole moment (field-independent basis, Debye-Ang):
   XX=           -115.7245   YY=            -99.1424   ZZ=            -83.3189
   XY=             22.8179   XZ=             -1.2299   YZ=             -0.3148

 Summary of Natural Population Analysis:

                                       Natural Population
                Natural  -----------------------------------------------
    Atom  No    Charge         Core      Valence    Rydberg      Total
 -----------------------------------------------------------------------
      C    1   -0.29911      0.99967     2.29545    0.00399     3.29911
      C    2   -0.01555      0.99960     2.00553    0.01042     3.01555
      O    3   -0.30134      0.99986     3.29144    0.01004     4.30134
      C    4    0.40007      0.99965     1.57635    0.02393     2.59993
      O    5   -0.30867      0.99987     3.30292    0.00588     4.30867
      C    6   -0.15505      0.99946     2.14559    0.01000     3.15505
      C    7    0.14749      0.99954     1.84176    0.01122     2.85251
      C    8   -0.08292      0.99946     2.07520    0.00826     3.08292
      C    9    0.00885      0.99947     1.98260    0.00908     2.99115
      C   10    0.35053      0.99964     1.62723    0.02260     2.64947
      O   11   -0.28452      0.99987     3.27800    0.00665     4.28452
      N   12   -0.32983      0.99963     2.82173    0.00848     3.82983
      C   13   -0.29749      0.99964     2.29234    0.00551     3.29749
      H   14    0.09755      0.00000     0.40142    0.00103     0.40245
      H   15    0.09216      0.00000     0.40693    0.00091     0.40784
      H   16    0.10862      0.00000     0.39025    0.00113     0.39138
      H   17    0.08200      0.00000     0.41688    0.00111     0.41800
      H   18    0.09349      0.00000     0.40501    0.00149     0.40651
      H   19    0.09806      0.00000     0.40056    0.00138     0.40194
      H   20    0.08977      0.00000     0.40913    0.00110     0.41023
      H   21    0.20641      0.00000     0.29174    0.00185     0.29359
      H   22    0.09226      0.00000     0.40678    0.00096     0.40774
      H   23    0.10366      0.00000     0.39511    0.00123     0.39634
      H   24    0.10356      0.00000     0.39522    0.00122     0.39644
 =======================================================================
   * Total *   -0.00000     12.99536    34.85517    0.14947    48.00000

 Normal termination of Gaussian 16 at Wed Dec  9 23:31:50 2020.
