 Gaussian 16, Revision A.03,

 -----------------------------------------------------------
 # opt freq B3LYP/6-31G(d) empiricaldispersion=gd3bj scf=xqc
 -----------------------------------------------------------

 -------------------------------
 CID_104026263_JID_5941_neutraal
 -------------------------------
 Symbolic Z-matrix:
 Charge =  0 Multiplicity = 1

 SCF Done:  E(RB3LYP) =  -670.267605167     A.U. after   16 cycles
 SCF Done:  E(RB3LYP) =  -670.285975144     A.U. after   13 cycles
 SCF Done:  E(RB3LYP) =  -670.286985350     A.U. after   13 cycles
 SCF Done:  E(RB3LYP) =  -670.282085952     A.U. after   14 cycles
 SCF Done:  E(RB3LYP) =  -670.286279981     A.U. after   13 cycles
 SCF Done:  E(RB3LYP) =  -670.287648155     A.U. after   10 cycles
 SCF Done:  E(RB3LYP) =  -670.287013529     A.U. after   13 cycles
 SCF Done:  E(RB3LYP) =  -670.288202647     A.U. after   11 cycles
 SCF Done:  E(RB3LYP) =  -670.288121870     A.U. after   13 cycles
 SCF Done:  E(RB3LYP) =  -670.288838695     A.U. after   12 cycles
 SCF Done:  E(RB3LYP) =  -670.291871163     A.U. after   11 cycles
 SCF Done:  E(RB3LYP) =  -670.291877859     A.U. after   10 cycles
 SCF Done:  E(RB3LYP) =  -670.291879305     A.U. after    9 cycles
 SCF Done:  E(RB3LYP) =  -670.291879355     A.U. after    7 cycles
 Optimization completed.
    -- Stationary point found.
 Normal termination of Gaussian 16 at Thu Dec 10 17:38:18 2020.

 --------------------------------------------------------------------
 #N Geom=AllCheck Guess=TCheck SCRF=Check GenChk RB3LYP/6-31G(d) Freq
 --------------------------------------------------------------------

 Structure from the checkpoint file:  "JID_5941.chk"
 -------------------------------
 CID_104026263_JID_5941_neutraal
 -------------------------------
 Charge =  0 Multiplicity = 1

 SCF Done:  E(RB3LYP) =  -670.291879355     A.U. after    1 cycles

  Exact polarizability: 166.873   0.957 124.304 -28.513 -15.111  94.984
 Approx polarizability: 229.483  -4.016 219.923 -56.386 -30.145 153.785

                      1                      2                      3
                      A                      A                      A
 Frequencies --     27.4716                36.1016                50.9622
 Red. masses --      4.6996                 5.4719                 4.5076
 Frc consts  --      0.0021                 0.0042                 0.0069
 IR Inten    --      0.1273                 0.1083                 0.2607

                      4                      5                      6
                      A                      A                      A
 Frequencies --     72.4349                85.2387               151.4830
 Red. masses --      4.9940                 5.3950                 4.2672
 Frc consts  --      0.0154                 0.0231                 0.0577
 IR Inten    --      1.1355                 3.8976                 2.6247

                      7                      8                      9
                      A                      A                      A
 Frequencies --    168.9726               214.3137               237.5984
 Red. masses --      5.2335                 2.6727                 4.1306
 Frc consts  --      0.0880                 0.0723                 0.1374
 IR Inten    --      0.7329                 1.6915                 1.4082

                     10                     11                     12
                      A                      A                      A
 Frequencies --    258.4272               326.9771               359.6853
 Red. masses --      4.6262                 3.0605                 3.0444
 Frc consts  --      0.1820                 0.1928                 0.2321
 IR Inten    --      1.2960                 0.4267                 6.1509

                     13                     14                     15
                      A                      A                      A
 Frequencies --    363.8634               365.6091               412.1495
 Red. masses --      1.5968                 2.0648                 3.4065
 Frc consts  --      0.1246                 0.1626                 0.3409
 IR Inten    --     58.7148                65.2679                 7.1559

                     16                     17                     18
                      A                      A                      A
 Frequencies --    433.6837               470.6129               515.1810
 Red. masses --      3.4302                 3.3140                 4.0587
 Frc consts  --      0.3801                 0.4324                 0.6347
 IR Inten    --      2.8639                 6.8796                 1.7588

                     19                     20                     21
                      A                      A                      A
 Frequencies --    539.6322               576.5065               601.6480
 Red. masses --      6.6001                 3.7851                 3.9788
 Frc consts  --      1.1324                 0.7412                 0.8486
 IR Inten    --      2.6186                10.7479                 5.6274

                     22                     23                     24
                      A                      A                      A
 Frequencies --    608.4426               619.4678               623.0894
 Red. masses --      1.3080                 2.1476                 1.4938
 Frc consts  --      0.2853                 0.4856                 0.3417
 IR Inten    --     47.0120                22.1042                42.6936

                     25                     26                     27
                      A                      A                      A
 Frequencies --    696.0855               720.0477               752.8961
 Red. masses --      2.9222                 5.0062                 1.8270
 Frc consts  --      0.8342                 1.5293                 0.6102
 IR Inten    --      6.9301                 2.8549                 9.3515

                     28                     29                     30
                      A                      A                      A
 Frequencies --    771.6827               811.0191               825.1080
 Red. masses --      1.5775                 1.5421                 2.2490
 Frc consts  --      0.5535                 0.5976                 0.9021
 IR Inten    --     47.1071                81.8950                28.1156

                     31                     32                     33
                      A                      A                      A
 Frequencies --    849.9914               878.7317               910.8132
 Red. masses --      3.0554                 1.4889                 1.4391
 Frc consts  --      1.3006                 0.6774                 0.7034
 IR Inten    --     17.1507                21.5077                 0.6382

                     34                     35                     36
                      A                      A                      A
 Frequencies --    926.5334               938.5562               978.1986
 Red. masses --      3.0458                 2.7945                 1.2719
 Frc consts  --      1.5405                 1.4503                 0.7171
 IR Inten    --     21.7498                 5.7945                 0.4871

                     37                     38                     39
                      A                      A                      A
 Frequencies --    981.8055              1019.4860              1061.9902
 Red. masses --      1.9124                 6.0857                 1.9993
 Frc consts  --      1.0861                 3.7267                 1.3285
 IR Inten    --      2.8932                 4.4249                 5.2864

                     40                     41                     42
                      A                      A                      A
 Frequencies --   1080.3303              1108.2941              1128.0507
 Red. masses --      2.3024                 1.7078                 2.1465
 Frc consts  --      1.5832                 1.2359                 1.6093
 IR Inten    --      4.1680                10.4588                 3.8028

                     43                     44                     45
                      A                      A                      A
 Frequencies --   1164.3401              1194.7950              1214.2640
 Red. masses --      2.4852                 1.1245                 1.3216
 Frc consts  --      1.9851                 0.9458                 1.1481
 IR Inten    --     19.3051                 9.2705               157.8341

                     46                     47                     48
                      A                      A                      A
 Frequencies --   1226.3993              1246.2299              1297.5962
 Red. masses --      1.1914                 1.3817                 2.1884
 Frc consts  --      1.0558                 1.2643                 2.1710
 IR Inten    --      3.5018                40.6156               101.1354

                     49                     50                     51
                      A                      A                      A
 Frequencies --   1325.6532              1355.9981              1366.1831
 Red. masses --      1.2925                 1.4512                 1.7648
 Frc consts  --      1.3383                 1.5722                 1.9407
 IR Inten    --     26.6223                51.1162                96.9380

                     52                     53                     54
                      A                      A                      A
 Frequencies --   1379.7857              1387.6043              1400.7452
 Red. masses --      5.0421                 1.6498                 1.4821
 Frc consts  --      5.6557                 1.8716                 1.7133
 IR Inten    --     17.8515                84.4093                 5.8546

                     55                     56                     57
                      A                      A                      A
 Frequencies --   1431.4787              1482.7550              1495.5659
 Red. masses --      1.5151                 1.4038                 2.7546
 Frc consts  --      1.8292                 1.8184                 3.6302
 IR Inten    --     58.2475                45.6825                72.4853

                     58                     59                     60
                      A                      A                      A
 Frequencies --   1508.3158              1516.8536              1524.8328
 Red. masses --      1.0847                 1.0928                 1.1332
 Frc consts  --      1.4539                 1.4814                 1.5523
 IR Inten    --      4.4568                11.3899                22.2711

                     61                     62                     63
                      A                      A                      A
 Frequencies --   1553.0546              1659.1592              1664.9291
 Red. masses --      2.5659                 5.9008                 5.9579
 Frc consts  --      3.6463                 9.5705                 9.7305
 IR Inten    --     10.1077                69.3874                29.2939

                     64                     65                     66
                      A                      A                      A
 Frequencies --   1767.4839              2237.4335              3048.6958
 Red. masses --      8.4992                 5.9797                 1.0596
 Frc consts  --     15.6437                17.6373                 5.8024
 IR Inten    --    259.0906                 1.5411                10.1064

                     67                     68                     69
                      A                      A                      A
 Frequencies --   3057.1554              3082.1145              3095.2620
 Red. masses --      1.0623                 1.1002                 1.0776
 Frc consts  --      5.8494                 6.1576                 6.0827
 IR Inten    --     19.6033                10.5614                 6.6483

                     70                     71                     72
                      A                      A                      A
 Frequencies --   3107.8488              3146.2761              3181.1614
 Red. masses --      1.0874                 1.1056                 1.0901
 Frc consts  --      6.1884                 6.4483                 6.4996
 IR Inten    --     44.9371                25.3634                 9.5450

                     73                     74                     75
                      A                      A                      A
 Frequencies --   3197.5680              3220.4863              3228.8490
 Red. masses --      1.0878                 1.0924                 1.0941
 Frc consts  --      6.5528                 6.6753                 6.7205
 IR Inten    --      9.6522                 7.4405                 4.7023

                     76                     77                     78
                      A                      A                      A
 Frequencies --   3495.0375              3548.3539              3750.8857
 Red. masses --      1.1597                 1.0749                 1.0659
 Frc consts  --      8.3462                 7.9740                 8.8358
 IR Inten    --     60.9764                22.8372                37.6950

 - Thermochemistry -
 -------------------
 Temperature   298.150 Kelvin.  Pressure   1.00000 Atm.
 Atom     1 has atomic number  6 and mass  12.00000

 Molecular mass:   203.09463 amu.
 Principal axes and moments of inertia in atomic units:
                           1         2         3
     Eigenvalues --  1472.408175771.792686142.12404
           X            0.99998   0.00653  -0.00093
           Y           -0.00659   0.99590  -0.09019
           Z            0.00033   0.09020   0.99592
 This molecule is an asymmetric top.
 Rotational symmetry number  1.
 Warning -- assumption of classical behavior for rotation
           may cause significant error
 Rotational temperatures (Kelvin)      0.05882     0.01501     0.01410
 Rotational constants (GHZ):           1.22571     0.31268     0.29383
 Zero-point vibrational energy     598852.5 (Joules/Mol)
                                  143.12919 (Kcal/Mol)
 Warning -- explicit consideration of  23 degrees of freedom as
           vibrations may cause significant error
 Vibrational temperatures:     39.53    51.94    73.32   104.22   122.64
          (Kelvin)            217.95   243.11   308.35   341.85   371.82
                              470.45   517.51   523.52   526.03   592.99
                              623.97   677.11   741.23   776.41   829.46
                              865.64   875.41   891.28   896.49  1001.51
                             1035.99  1083.25  1110.28  1166.88  1187.15
                             1222.95  1264.30  1310.46  1333.07  1350.37
                             1407.41  1412.60  1466.81  1527.97  1554.35
                             1594.59  1623.01  1675.23  1719.04  1747.06
                             1764.52  1793.05  1866.95  1907.32  1950.98
                             1965.63  1985.20  1996.45  2015.36  2059.58
                             2133.35  2151.79  2170.13  2182.41  2193.89
                             2234.50  2387.16  2395.46  2543.02  3219.17
                             4386.39  4398.56  4434.48  4453.39  4471.50
                             4526.79  4576.98  4600.59  4633.56  4645.59
                             5028.58  5105.29  5396.69

 Zero-point correction=                           0.228091 (Hartree/Particle)
 Thermal correction to Energy=                    0.242488
 Thermal correction to Enthalpy=                  0.243433
 Thermal correction to Gibbs Free Energy=         0.185227
 Sum of electronic and zero-point Energies=           -670.063788
 Sum of electronic and thermal Energies=              -670.049391
 Sum of electronic and thermal Enthalpies=            -670.048447
 Sum of electronic and thermal Free Energies=         -670.106652

                     E (Thermal)             CV                S
                      KCal/Mol        Cal/Mol-Kelvin    Cal/Mol-Kelvin
 Total                  152.164             54.461            122.504
 Electronic               0.000              0.000              0.000
 Translational            0.889              2.981             41.830
 Rotational               0.889              2.981             32.323
 Vibrational            150.386             48.499             48.351
 Vibration     1          0.593              1.984              6.004
 Vibration     2          0.594              1.982              5.462
 Vibration     3          0.595              1.977              4.780
 Vibration     4          0.599              1.967              4.086
 Vibration     5          0.601              1.959              3.766
 Vibration     6          0.619              1.901              2.654
 Vibration     7          0.625              1.881              2.447
 Vibration     8          0.644              1.819              2.007
 Vibration     9          0.656              1.783              1.821
 Vibration    10          0.667              1.749              1.672
 Vibration    11          0.711              1.622              1.275
 Vibration    12          0.734              1.555              1.123
 Vibration    13          0.737              1.547              1.106
 Vibration    14          0.739              1.543              1.098
 Vibration    15          0.776              1.444              0.919
 Vibration    16          0.794              1.397              0.847
 Vibration    17          0.828              1.315              0.736
 Vibration    18          0.870              1.216              0.621
 Vibration    19          0.895              1.162              0.566
 Vibration    20          0.933              1.082              0.492
 Vibration    21          0.960              1.028              0.447
 Vibration    22          0.967              1.014              0.435
 Vibration    23          0.979              0.991              0.417

 Optimization completed.
    -- Stationary point found.
 Normal termination of Gaussian 16 at Thu Dec 10 17:46:09 2020.

 ----------------------------------------------------------------------
 # B3LYP/6-311++G(d,p) empiricaldispersion=gd3bj scf=xqc pop=npa geom=c
 heck
 ----------------------------------------------------------------------

 ---------------------------------------
 CID_104026263_JID_5941_Energie_neutraal
 ---------------------------------------
 Structure from the checkpoint file:  "JID_5941.chk"
 Charge =  0 Multiplicity = 1

 SCF Done:  E(RB3LYP) =  -670.492068970     A.U. after   16 cycles
 Normal termination of Gaussian 16 at Thu Dec 10 17:49:42 2020.

 ----------------------------------------------------------------------
 # B3LYP/6-311++G(d,p) empiricaldispersion=gd3bj scf=xqc pop=npa geom=c
 heck
 ----------------------------------------------------------------------

 -------------------------------------
 CID_104026263_JID_5941_Energie_kation
 -------------------------------------
 Structure from the checkpoint file:  "JID_5941.chk"
 Charge =  1 Multiplicity = 2

 SCF Done:  E(UB3LYP) =  -670.183600921     A.U. after   33 cycles
 SCF Done:  E(UB3LYP) =  -670.183600921     a.u. after    1 cycles
 Normal termination of Gaussian 16 at Thu Dec 10 17:58:25 2020.
 Gaussian 16:  ES64L-G16RevA.03 25-Dec-2016

 ----------------------------------------------------------------------
 # B3LYP/6-311++G(d,p) empiricaldispersion=gd3bj scf=xqc pop=npa geom=c
 heck
 ----------------------------------------------------------------------

 ------------------------------------
 CID_104026263_JID_5941_Energie_anion
 ------------------------------------
 Structure from the checkpoint file:  "JID_5941.chk"
 Charge = -1 Multiplicity = 2

                         Standard orientation:
 ---------------------------------------------------------------------
 Center     Atomic      Atomic             Coordinates (Angstroms)
 Number     Number       Type             X           Y           Z
 ---------------------------------------------------------------------
      1          6           0        5.003426    0.652767   -0.198291
      2          6           0        4.099467    0.162396    0.435739
      3          6           0        2.959812   -0.398900    1.161313
      4          6           0        1.786931    0.596578    1.299991
      5          6           0        1.370292    1.229595   -0.035169
      6          7           0        1.181206    0.251108   -1.113526
      7          6           0        0.306775   -0.816575   -1.032546
      8          8           0        0.594946   -1.915972   -1.493114
      9          6           0       -1.024851   -0.564794   -0.392011
     10          6           0       -1.735298    0.620002   -0.618163
     11          6           0       -2.994787    0.797725   -0.042492
     12          6           0       -3.539859   -0.198680    0.774617
     13          6           0       -2.829271   -1.376994    0.988506
     14          6           0       -1.580307   -1.573864    0.399517
     15          8           0       -3.742077    1.924598   -0.242033
     16          1           0        5.822920    1.068446   -0.739004
     17          1           0        2.612169   -1.298440    0.637267
     18          1           0        3.276918   -0.726701    2.159023
     19          1           0        0.934538    0.061042    1.733914
     20          1           0        2.058631    1.398439    1.996917
     21          1           0        0.456862    1.810520    0.104876
     22          1           0        2.148345    1.916495   -0.377989
     23          1           0        2.053259   -0.046734   -1.541917
     24          1           0       -1.318178    1.383910   -1.270164
     25          1           0       -4.516865   -0.035888    1.217540
     26          1           0       -3.260194   -2.152786    1.614726
     27          1           0       -1.030485   -2.498331    0.536116
     28          1           0       -3.263305    2.517724   -0.841519
 ---------------------------------------------------------------------

 SCF Done:  E(UB3LYP) =  -670.488687453     A.U. after   33 cycles
 SCF Done:  E(UB3LYP) =  -670.488687510     a.u. after    2 cycles

 The electronic state is 2-A.
 Alpha  occ. eigenvalues --  -19.03985 -18.95729 -14.20786 -10.13285 -10.11442
 Alpha  occ. eigenvalues --  -10.09824 -10.09542 -10.08834 -10.07446 -10.07396
 Alpha  occ. eigenvalues --  -10.05331 -10.04847 -10.04695 -10.04450 -10.04192
 Alpha  occ. eigenvalues --   -0.94954  -0.90894  -0.80064  -0.73081  -0.71073
 Alpha  occ. eigenvalues --   -0.64967  -0.63661  -0.61901  -0.59741  -0.52960
 Alpha  occ. eigenvalues --   -0.51006  -0.49899  -0.45241  -0.44324  -0.41160
 Alpha  occ. eigenvalues --   -0.39257  -0.38571  -0.37447  -0.36318  -0.35456
 Alpha  occ. eigenvalues --   -0.33674  -0.31891  -0.31210  -0.29909  -0.29541
 Alpha  occ. eigenvalues --   -0.28502  -0.27639  -0.26922  -0.26012  -0.25134
 Alpha  occ. eigenvalues --   -0.24179  -0.22770  -0.21662  -0.18711  -0.18512
 Alpha  occ. eigenvalues --   -0.14910  -0.13799  -0.12752  -0.10901   0.04546
 Alpha virt. eigenvalues --    0.06371   0.06802   0.07501   0.08778   0.09251
 Alpha virt. eigenvalues --    0.09906   0.10652   0.10976   0.11356   0.11964
 Alpha virt. eigenvalues --    0.12302   0.12446   0.12862   0.13865   0.13917

  Beta  occ. eigenvalues --  -19.03962 -18.95538 -14.20781 -10.13123 -10.11491
  Beta  occ. eigenvalues --  -10.09808 -10.09523 -10.08831 -10.07439 -10.07385
  Beta  occ. eigenvalues --  -10.05309 -10.04683 -10.04557 -10.04434 -10.03990
  Beta  occ. eigenvalues --   -0.94907  -0.90548  -0.79945  -0.72845  -0.71038
  Beta  occ. eigenvalues --   -0.64927  -0.63273  -0.61715  -0.59681  -0.52634
  Beta  occ. eigenvalues --   -0.50868  -0.49757  -0.45073  -0.44293  -0.41042
  Beta  occ. eigenvalues --   -0.39189  -0.38431  -0.37340  -0.36153  -0.35382
  Beta  occ. eigenvalues --   -0.33555  -0.31797  -0.31076  -0.29658  -0.29360
  Beta  occ. eigenvalues --   -0.28241  -0.27554  -0.26843  -0.25460  -0.25091
  Beta  occ. eigenvalues --   -0.24071  -0.22631  -0.21190  -0.18669  -0.18496
  Beta  occ. eigenvalues --   -0.14514  -0.12987  -0.12304  -0.10292
  Beta virt. eigenvalues --    0.06544   0.07588   0.07878   0.08763   0.08970
  Beta virt. eigenvalues --    0.09480   0.09933   0.10732   0.10901   0.11512
  Beta virt. eigenvalues --    0.12031   0.12442   0.12567   0.12945   0.13915

 Mulliken charges and spin densities:
               1          2
     1  C   -2.755021   0.828781
     2  C    2.469487  -1.152608
     3  C    0.306899  -0.356796
     4  C   -0.115487  -0.261894
     5  C    0.104288  -0.165550
     6  N   -0.201139   0.001638
     7  C   -0.191882  -0.390750
     8  O   -0.345994   0.075591
     9  C    0.748675   0.143348
    10  C   -1.046809   1.064941
    11  C    0.275677  -0.832438
    12  C    0.599987  -0.469744
    13  C   -0.443448   0.141803
    14  C   -0.386025   0.243609
    15  O   -0.284584   0.036939
    16  H   -0.186652   0.316717
    17  H    0.223337   0.002760
    18  H   -0.309138   0.500624
    19  H    0.183090  -0.021860
    20  H   -0.144451   0.311384
    21  H   -0.289556   0.440215
    22  H    0.185548  -0.023063
    23  H    0.338026  -0.024664
    24  H    0.038418   0.106395
    25  H    0.128530   0.002102
    26  H    0.110946   0.020906
    27  H    0.126222   0.054233
    28  H   -0.138944   0.407378
 Sum of Mulliken charges =  -1.00000   1.00000

 Dipole moment (field-independent basis, Debye):
    X=              1.2008    Y=              0.2820    Z=              0.0676  Tot=              1.2353
 Quadrupole moment (field-independent basis, Debye-Ang):
   XX=           -147.6446   YY=           -120.4665   ZZ=           -112.5141
   XY=              9.1521   XZ=             -7.4539   YZ=             -8.5388

 Summary of Natural Population Analysis:

                                       Natural Population
                Natural  -----------------------------------------------
    Atom  No    Charge         Core      Valence    Rydberg      Total
 -----------------------------------------------------------------------
      C    1   -0.13887      0.99927     2.13615    0.00345     3.13887
      C    2    0.00854      0.99938     1.98310    0.00897     2.99146
      C    3   -0.24129      0.99956     2.23177    0.00996     3.24129
      C    4   -0.19036      0.99962     2.18259    0.00815     3.19036
      C    5   -0.09188      0.99961     2.08049    0.01178     3.09188
      N    6   -0.33155      0.99969     2.82236    0.00950     3.83155
      C    7    0.35800      0.99962     1.61913    0.02325     2.64200
      O    8   -0.30558      0.99988     3.30044    0.00527     4.30558
      C    9   -0.03620      0.99947     2.02551    0.01122     3.03620
      C   10   -0.11311      0.99949     2.10406    0.00956     3.11311
      C   11    0.14710      0.99938     1.83957    0.01395     2.85290
      C   12   -0.09359      0.99952     2.08498    0.00909     3.09359
      C   13   -0.09837      0.99958     2.08914    0.00965     3.09837
      C   14   -0.09876      0.99953     2.09053    0.00870     3.09876
      O   15   -0.34651      0.99988     3.33969    0.00695     4.34651
      H   16    0.10999      0.00000     0.38885    0.00115     0.39001
      H   17    0.12160      0.00000     0.37692    0.00148     0.37840
      H   18    0.11527      0.00000     0.38315    0.00157     0.38473
      H   19    0.10737      0.00000     0.39133    0.00130     0.39263
      H   20    0.09819      0.00000     0.40049    0.00133     0.40181
      H   21    0.10622      0.00000     0.39233    0.00145     0.39378
      H   22    0.09607      0.00000     0.40282    0.00111     0.40393
      H   23    0.18838      0.00000     0.30935    0.00227     0.31162
      H   24    0.09942      0.00000     0.39939    0.00120     0.40058
      H   25    0.09747      0.00000     0.40167    0.00085     0.40253
      H   26    0.09386      0.00000     0.40536    0.00078     0.40614
      H   27    0.10462      0.00000     0.39438    0.00101     0.39538
      H   28    0.23397      0.00000     0.26155    0.00449     0.26603
 =======================================================================
   * Total *   -0.00000     14.99347    38.83710    0.16944    54.00000

 Normal termination of Gaussian 16 at Thu Dec 10 18:15:03 2020.
