 Gaussian 16, Revision A.03,

 -----------------------------------------------------------
 # opt freq B3LYP/6-31G(d) empiricaldispersion=gd3bj scf=xqc
 -----------------------------------------------------------

 ------------------------------
 CID_64633524_JID_7528_neutraal
 ------------------------------
 Symbolic Z-matrix:
 Charge =  0 Multiplicity = 1

 SCF Done:  E(RB3LYP) =  -1123.70415150     A.U. after   15 cycles
 SCF Done:  E(RB3LYP) =  -1123.71469526     A.U. after   12 cycles
 SCF Done:  E(RB3LYP) =  -1123.71629199     A.U. after   14 cycles
 SCF Done:  E(RB3LYP) =  -1123.71722735     A.U. after   12 cycles
 SCF Done:  E(RB3LYP) =  -1123.71777399     A.U. after   12 cycles
 SCF Done:  E(RB3LYP) =  -1123.71782852     A.U. after   11 cycles
 SCF Done:  E(RB3LYP) =  -1123.71785621     A.U. after   10 cycles
 SCF Done:  E(RB3LYP) =  -1123.71786258     A.U. after   10 cycles
 SCF Done:  E(RB3LYP) =  -1123.71786460     A.U. after   10 cycles
 SCF Done:  E(RB3LYP) =  -1123.71786530     A.U. after    8 cycles
 SCF Done:  E(RB3LYP) =  -1123.71786555     A.U. after    7 cycles
 SCF Done:  E(RB3LYP) =  -1123.71786565     A.U. after    7 cycles
 SCF Done:  E(RB3LYP) =  -1123.71786559     A.U. after    7 cycles
 SCF Done:  E(RB3LYP) =  -1123.71786557     A.U. after    7 cycles
 Optimization completed.
    -- Stationary point found.
 Normal termination of Gaussian 16 at Mon Dec 14 18:51:12 2020.

 --------------------------------------------------------------------
 #N Geom=AllCheck Guess=TCheck SCRF=Check GenChk RB3LYP/6-31G(d) Freq
 --------------------------------------------------------------------

 Structure from the checkpoint file:  "JID_7528.chk"
 ------------------------------
 CID_64633524_JID_7528_neutraal
 ------------------------------
 Charge =  0 Multiplicity = 1

 SCF Done:  E(RB3LYP) =  -1123.71786557     A.U. after    1 cycles

  Exact polarizability: 196.172   5.434 151.195  -8.860   2.274 127.708
 Approx polarizability: 261.995   4.613 233.767 -18.186   3.743 195.032

                      1                      2                      3
                      A                      A                      A
 Frequencies --     18.8595                27.2302                34.6754
 Red. masses --      5.3420                 4.0350                 3.2341
 Frc consts  --      0.0011                 0.0018                 0.0023
 IR Inten    --      0.1560                 0.0949                 0.2422

                      4                      5                      6
                      A                      A                      A
 Frequencies --     63.1116                82.9047                90.2217
 Red. masses --      4.5395                 1.9719                 4.2296
 Frc consts  --      0.0107                 0.0080                 0.0203
 IR Inten    --      0.0299                 0.0646                 2.0903

                      7                      8                      9
                      A                      A                      A
 Frequencies --    116.4299               148.7475               166.2241
 Red. masses --      4.4044                 6.0123                 2.8169
 Frc consts  --      0.0352                 0.0784                 0.0459
 IR Inten    --      0.9590                 0.5888                 1.4131

                     10                     11                     12
                      A                      A                      A
 Frequencies --    213.5752               218.1478               241.3756
 Red. masses --      3.2952                 4.9519                 1.2237
 Frc consts  --      0.0886                 0.1388                 0.0420
 IR Inten    --      1.0588                 5.8615                 0.3328

                     13                     14                     15
                      A                      A                      A
 Frequencies --    266.4226               272.4148               289.4379
 Red. masses --      1.3036                 2.6853                 1.8210
 Frc consts  --      0.0545                 0.1174                 0.0899
 IR Inten    --     45.6502                30.4647                 5.6078

                     16                     17                     18
                      A                      A                      A
 Frequencies --    290.6215               315.0750               349.4055
 Red. masses --      3.3061                 3.7416                 2.5931
 Frc consts  --      0.1645                 0.2188                 0.1865
 IR Inten    --      3.0574                 3.4806                 9.5729

                     19                     20                     21
                      A                      A                      A
 Frequencies --    370.5262               394.5420               418.4444
 Red. masses --      2.1414                 4.0665                 3.5716
 Frc consts  --      0.1732                 0.3730                 0.3685
 IR Inten    --      2.0279                14.2984                 0.2756

                     22                     23                     24
                      A                      A                      A
 Frequencies --    450.1098               471.0966               506.8020
 Red. masses --      1.6637                 3.8307                 3.3078
 Frc consts  --      0.1986                 0.5009                 0.5006
 IR Inten    --     81.9867                 6.9272                 0.0520

                     25                     26                     27
                      A                      A                      A
 Frequencies --    535.0190               568.5147               574.5086
 Red. masses --      4.4886                 2.4359                 4.9621
 Frc consts  --      0.7570                 0.4639                 0.9650
 IR Inten    --      4.4598                 1.5498                 9.3088

                     28                     29                     30
                      A                      A                      A
 Frequencies --    667.7415               705.1732               735.8082
 Red. masses --      5.3664                 3.2486                 4.7502
 Frc consts  --      1.4098                 0.9518                 1.5153
 IR Inten    --      5.2053                17.0639                10.9080

                     31                     32                     33
                      A                      A                      A
 Frequencies --    749.4714               761.4401               788.4639
 Red. masses --      3.2803                 1.4890                 2.4660
 Frc consts  --      1.0856                 0.5087                 0.9033
 IR Inten    --      5.6928                15.7804                 2.3252

                     34                     35                     36
                      A                      A                      A
 Frequencies --    812.3463               847.3416               858.3422
 Red. masses --      6.2142                 1.5381                 2.6531
 Frc consts  --      2.4161                 0.6507                 1.1516
 IR Inten    --      9.9759                 2.6210                 3.3485

                     37                     38                     39
                      A                      A                      A
 Frequencies --    887.1440               898.6136               912.8685
 Red. masses --      1.3715                 1.7392                 1.8806
 Frc consts  --      0.6360                 0.8275                 0.9234
 IR Inten    --     10.9033                87.0233                 9.2949

                     40                     41                     42
                      A                      A                      A
 Frequencies --    919.5328               937.8270               993.7155
 Red. masses --      1.4383                 1.9188                 2.4463
 Frc consts  --      0.7165                 0.9943                 1.4233
 IR Inten    --      5.8835                57.8041                 7.5170

                     43                     44                     45
                      A                      A                      A
 Frequencies --   1001.7020              1049.5044              1056.0869
 Red. masses --      2.9940                 1.6843                 2.7412
 Frc consts  --      1.7700                 1.0931                 1.8013
 IR Inten    --     15.7090                 0.0101                 0.8746

                     46                     47                     48
                      A                      A                      A
 Frequencies --   1057.4881              1088.4398              1101.5301
 Red. masses --      1.5198                 3.3493                 1.8945
 Frc consts  --      1.0013                 2.3378                 1.3544
 IR Inten    --      4.1840                15.9946                 5.2964

                     49                     50                     51
                      A                      A                      A
 Frequencies --   1101.9966              1130.5087              1139.9609
 Red. masses --      1.5800                 1.8555                 2.1182
 Frc consts  --      1.1305                 1.3972                 1.6218
 IR Inten    --     10.7525                 4.3021                 1.4447

                     52                     53                     54
                      A                      A                      A
 Frequencies --   1157.1904              1180.8056              1212.1463
 Red. masses --      1.5993                 2.4473                 1.3652
 Frc consts  --      1.2618                 2.0105                 1.1818
 IR Inten    --      0.2920                37.5624                 6.1109

                     55                     56                     57
                      A                      A                      A
 Frequencies --   1220.6225              1234.1433              1262.8659
 Red. masses --      6.0037                 1.5612                 1.4035
 Frc consts  --      5.2703                 1.4010                 1.3188
 IR Inten    --      4.8215                 3.0643                 4.3366

                     58                     59                     60
                      A                      A                      A
 Frequencies --   1267.1344              1300.3216              1313.9507
 Red. masses --      2.0186                 1.2638                 1.2728
 Frc consts  --      1.9096                 1.2590                 1.2947
 IR Inten    --     52.3537                 0.3899                24.0973

                     61                     62                     63
                      A                      A                      A
 Frequencies --   1329.0661              1337.1462              1352.6925
 Red. masses --      1.4299                 1.3816                 1.3804
 Frc consts  --      1.4882                 1.4554                 1.4882
 IR Inten    --     16.6213                 8.6108                13.7938

                     64                     65                     66
                      A                      A                      A
 Frequencies --   1355.9073              1375.6679              1385.3681
 Red. masses --      1.2805                 1.7864                 1.3722
 Frc consts  --      1.3870                 1.9918                 1.5517
 IR Inten    --      4.4169                21.8776                 6.1095

                     67                     68                     69
                      A                      A                      A
 Frequencies --   1391.3827              1395.9756              1399.6714
 Red. masses --      1.5390                 1.3943                 1.4907
 Frc consts  --      1.7554                 1.6009                 1.7206
 IR Inten    --     10.6033                 1.4325                 2.9995

                     70                     71                     72
                      A                      A                      A
 Frequencies --   1403.5373              1419.8290              1436.6065
 Red. masses --      1.4958                 2.2748                 1.4337
 Frc consts  --      1.7360                 2.7019                 1.7434
 IR Inten    --      8.4091                60.8738                 1.4328

                     73                     74                     75
                      A                      A                      A
 Frequencies --   1442.9076              1444.7345              1501.5486
 Red. masses --      1.2596                 1.8081                 1.1241
 Frc consts  --      1.5451                 2.2236                 1.4933
 IR Inten    --      4.5334                35.2611                24.0632

                     76                     77                     78
                      A                      A                      A
 Frequencies --   1509.2086              1515.1162              1519.5992
 Red. masses --      1.0895                 1.0929                 1.0811
 Frc consts  --      1.4620                 1.4782                 1.4709
 IR Inten    --      2.4081                 4.6733                 6.6036

                     79                     80                     81
                      A                      A                      A
 Frequencies --   1520.8110              1530.8847              1532.7571
 Red. masses --      1.0615                 1.0407                 1.0984
 Frc consts  --      1.4466                 1.4370                 1.5205
 IR Inten    --      0.4252                 5.6591                 6.5329

                     82                     83                     84
                      A                      A                      A
 Frequencies --   1537.3276              1573.3083              1691.5096
 Red. masses --      1.0762                 7.9331                 1.0907
 Frc consts  --      1.4985                11.5696                 1.8386
 IR Inten    --      6.1697                67.9174                27.7489

                     85                     86                     87
                      A                      A                      A
 Frequencies --   1845.0149              3011.3870              3024.8676
 Red. masses --     10.5252                 1.0823                 1.0700
 Frc consts  --     21.1097                 5.7826                 5.7681
 IR Inten    --    590.6027                11.3098                16.7365

                     88                     89                     90
                      A                      A                      A
 Frequencies --   3029.3109              3032.2112              3037.7178
 Red. masses --      1.0701                 1.0608                 1.0631
 Frc consts  --      5.7857                 5.7465                 5.7796
 IR Inten    --     13.8269                19.8030                48.9056

                     91                     92                     93
                      A                      A                      A
 Frequencies --   3046.5390              3049.5484              3069.7309
 Red. masses --      1.0407                 1.0568                 1.0655
 Frc consts  --      5.6908                 5.7905                 5.9158
 IR Inten    --     13.6205                22.4833                24.6170

                     94                     95                     96
                      A                      A                      A
 Frequencies --   3072.3560              3080.5086              3085.6853
 Red. masses --      1.1000                 1.0963                 1.1008
 Frc consts  --      6.1178                 6.1294                 6.1753
 IR Inten    --     54.7827                51.5196                70.8438

                     97                     98                     99
                      A                      A                      A
 Frequencies --   3086.2819              3102.1823              3112.1625
 Red. masses --      1.0978                 1.0956                 1.1025
 Frc consts  --      6.1606                 6.2118                 6.2913
 IR Inten    --      4.8235                23.4486                32.9981

                    100                    101                    102
                      A                      A                      A
 Frequencies --   3124.4130              3132.6123              3137.4277
 Red. masses --      1.1014                 1.1045                 1.0869
 Frc consts  --      6.3346                 6.3862                 6.3037
 IR Inten    --     30.3777                23.9209                 1.5806

                    103                    104                    105
                      A                      A                      A
 Frequencies --   3461.4572              3544.4568              3691.3977
 Red. masses --      1.0495                 1.0915                 1.0815
 Frc consts  --      7.4086                 8.0795                 8.6830
 IR Inten    --      1.3855                 0.0272                87.6598

 - Thermochemistry -
 -------------------
 Temperature   298.150 Kelvin.  Pressure   1.00000 Atm.
 Atom     1 has atomic number  6 and mass  12.00000

 Molecular mass:   256.13578 amu.
 Principal axes and moments of inertia in atomic units:
                           1         2         3
     Eigenvalues --  2701.949216847.128977891.92954
           X            0.99964  -0.02679   0.00322
           Y            0.02677   0.99962   0.00593
           Z           -0.00337  -0.00585   0.99998
 This molecule is an asymmetric top.
 Rotational symmetry number  1.
 Warning -- assumption of classical behavior for rotation
           may cause significant error
 Rotational temperatures (Kelvin)      0.03206     0.01265     0.01097
 Rotational constants (GHZ):           0.66794     0.26358     0.22868
 Zero-point vibrational energy     840535.2 (Joules/Mol)
                                  200.89272 (Kcal/Mol)
 Warning -- explicit consideration of  27 degrees of freedom as
           vibrations may cause significant error
 Vibrational temperatures:     27.13    39.18    49.89    90.80   119.28
          (Kelvin)            129.81   167.52   214.01   239.16   307.29
                              313.87   347.29   383.32   391.94   416.44
                              418.14   453.32   502.72   533.10   567.66
                              602.05   647.61   677.80   729.18   769.77
                              817.97   826.59   960.73  1014.59  1058.66
                             1078.32  1095.54  1134.42  1168.79  1219.14
                             1234.96  1276.40  1292.90  1313.41  1323.00
                             1349.32  1429.73  1441.23  1510.00  1519.47
                             1521.49  1566.02  1584.86  1585.53  1626.55
                             1640.15  1664.94  1698.92  1744.01  1756.20
                             1775.66  1816.98  1823.12  1870.87  1890.48
                             1912.23  1923.86  1946.22  1950.85  1979.28
                             1993.24  2001.89  2008.50  2013.82  2019.38
                             2042.82  2066.96  2076.02  2078.65  2160.39
                             2171.41  2179.91  2186.36  2188.11  2202.60
                             2205.30  2211.87  2263.64  2433.70  2654.56
                             4332.71  4352.11  4358.50  4362.68  4370.60
                             4383.29  4387.62  4416.66  4420.44  4432.16
                             4439.61  4440.47  4463.35  4477.71  4495.33
                             4507.13  4514.06  4980.26  5099.68  5311.10

 Zero-point correction=                           0.320143 (Hartree/Particle)
 Thermal correction to Energy=                    0.337901
 Thermal correction to Enthalpy=                  0.338846
 Thermal correction to Gibbs Free Energy=         0.272465
 Sum of electronic and zero-point Energies=          -1123.397723
 Sum of electronic and thermal Energies=             -1123.379964
 Sum of electronic and thermal Enthalpies=           -1123.379020
 Sum of electronic and thermal Free Energies=        -1123.445400

                     E (Thermal)             CV                S
                      KCal/Mol        Cal/Mol-Kelvin    Cal/Mol-Kelvin
 Total                  212.036             66.442            139.709
 Electronic               0.000              0.000              0.000
 Translational            0.889              2.981             42.522
 Rotational               0.889              2.981             33.345
 Vibrational            210.259             60.480             63.842
 Vibration     1          0.593              1.986              6.751
 Vibration     2          0.593              1.984              6.022
 Vibration     3          0.594              1.983              5.542
 Vibration     4          0.597              1.972              4.357
 Vibration     5          0.600              1.961              3.821
 Vibration     6          0.602              1.956              3.655
 Vibration     7          0.608              1.936              3.159
 Vibration     8          0.618              1.904              2.688
 Vibration     9          0.624              1.884              2.478
 Vibration    10          0.644              1.820              2.013
 Vibration    11          0.646              1.813              1.974
 Vibration    12          0.658              1.777              1.793
 Vibration    13          0.672              1.735              1.619
 Vibration    14          0.675              1.724              1.581
 Vibration    15          0.686              1.693              1.477
 Vibration    16          0.687              1.691              1.470
 Vibration    17          0.702              1.645              1.336
 Vibration    18          0.727              1.576              1.169
 Vibration    19          0.743              1.533              1.078
 Vibration    20          0.762              1.482              0.983
 Vibration    21          0.781              1.430              0.897
 Vibration    22          0.809              1.361              0.795
 Vibration    23          0.828              1.314              0.734
 Vibration    24          0.862              1.235              0.641
 Vibration    25          0.890              1.173              0.576
 Vibration    26          0.925              1.099              0.507
 Vibration    27          0.931              1.086              0.496

                           ! Non-Optimized Parameters !
 Normal termination of Gaussian 16 at Mon Dec 14 19:05:21 2020.

 ----------------------------------------------------------------------
 # B3LYP/6-311++G(d,p) empiricaldispersion=gd3bj scf=xqc pop=npa geom=c
 heck
 ----------------------------------------------------------------------

 --------------------------------------
 CID_64633524_JID_7528_Energie_neutraal
 --------------------------------------
 Structure from the checkpoint file:  "JID_7528.chk"
 Charge =  0 Multiplicity = 1

 SCF Done:  E(RB3LYP) =  -1123.95540674     A.U. after   16 cycles
 Normal termination of Gaussian 16 at Mon Dec 14 19:13:41 2020.

 ----------------------------------------------------------------------
 # B3LYP/6-311++G(d,p) empiricaldispersion=gd3bj scf=xqc pop=npa geom=c
 heck
 ----------------------------------------------------------------------

 ------------------------------------
 CID_64633524_JID_7528_Energie_kation
 ------------------------------------
 Structure from the checkpoint file:  "JID_7528.chk"
 Charge =  1 Multiplicity = 2

 SCF Done:  E(UB3LYP) =  -1123.66905200     A.U. after   25 cycles
 Normal termination of Gaussian 16 at Mon Dec 14 19:31:48 2020.
 Gaussian 16:  ES64L-G16RevA.03 25-Dec-2016

 ----------------------------------------------------------------------
 # B3LYP/6-311++G(d,p) empiricaldispersion=gd3bj scf=xqc pop=npa geom=c
 heck
 ----------------------------------------------------------------------

 -----------------------------------
 CID_64633524_JID_7528_Energie_anion
 -----------------------------------
 Structure from the checkpoint file:  "JID_7528.chk"
 Charge = -1 Multiplicity = 2

                         Standard orientation:
 ---------------------------------------------------------------------
 Center     Atomic      Atomic             Coordinates (Angstroms)
 Number     Number       Type             X           Y           Z
 ---------------------------------------------------------------------
      1          6           0       -3.042513    3.408616   -0.125553
      2          6           0       -2.751079    1.987976   -0.611074
      3          6           0       -2.239601    1.095452    0.522239
      4          7           0       -1.963538   -0.262069    0.086331
      5          6           0       -2.885958   -1.309819    0.244791
      6          8           0       -3.985589   -1.266758    0.773454
      7          7           0       -2.216798   -2.359827   -0.342629
      8          7           0       -0.984024   -2.023676   -0.861903
      9          6           0       -0.858178   -0.758258   -0.577582
     10         16           0        0.546896    0.232570   -0.964341
     11          6           0        1.906799   -0.859208   -0.279107
     12          6           0        3.143628   -0.722672   -1.174696
     13          6           0        3.804954    0.656656   -1.055771
     14          6           0        4.148469    0.977377    0.404482
     15          6           0        2.912163    0.856717    1.306688
     16          6           0        2.233285   -0.519078    1.184495
     17          7           0        1.049533   -0.703957    2.026246
     18          1           0       -3.801995    3.408207    0.665175
     19          1           0       -3.411737    4.036135   -0.942988
     20          1           0       -2.139526    3.882889    0.277777
     21          1           0       -3.656949    1.532504   -1.028283
     22          1           0       -2.003921    2.009737   -1.414742
     23          1           0       -1.324495    1.513840    0.955078
     24          1           0       -2.991945    1.008923    1.311210
     25          1           0       -2.553232   -3.306910   -0.410831
     26          1           0        1.491405   -1.866408   -0.336429
     27          1           0        2.876262   -0.943589   -2.212969
     28          1           0        3.861554   -1.492451   -0.856799
     29          1           0        3.126368    1.425775   -1.451423
     30          1           0        4.706883    0.690167   -1.677971
     31          1           0        4.579827    1.982257    0.484826
     32          1           0        4.920416    0.276009    0.753365
     33          1           0        2.180035    1.631275    1.037969
     34          1           0        3.183879    1.029882    2.356058
     35          1           0        2.959350   -1.284864    1.497994
     36          1           0        1.314732   -0.606873    3.005469
     37          1           0        0.389434    0.050573    1.839544
 ---------------------------------------------------------------------

 SCF Done:  E(UB3LYP) =  -1123.94482993     A.U. after   31 cycles

 The electronic state is 2-A.
 Alpha  occ. eigenvalues --  -88.76930 -19.00898 -14.29814 -14.28682 -14.25938
 Alpha  occ. eigenvalues --  -14.20058 -10.21857 -10.18153 -10.13150 -10.11633
 Alpha  occ. eigenvalues --  -10.10886 -10.09108 -10.08338 -10.07968 -10.07463
 Alpha  occ. eigenvalues --  -10.06903 -10.06602  -7.85592  -5.82004  -5.81573
 Alpha  occ. eigenvalues --   -5.80962  -1.00854  -0.93886  -0.85965  -0.80563
 Alpha  occ. eigenvalues --   -0.76124  -0.73403  -0.70998  -0.68376  -0.64133
 Alpha  occ. eigenvalues --   -0.63243  -0.62460  -0.55425  -0.53879  -0.52125
 Alpha  occ. eigenvalues --   -0.50884  -0.50290  -0.46775  -0.45158  -0.41301
 Alpha  occ. eigenvalues --   -0.40516  -0.40341  -0.39338  -0.38523  -0.37130
 Alpha  occ. eigenvalues --   -0.35642  -0.34986  -0.34248  -0.33269  -0.31604
 Alpha  occ. eigenvalues --   -0.31286  -0.30426  -0.29890  -0.29736  -0.28856
 Alpha  occ. eigenvalues --   -0.28504  -0.27769  -0.25991  -0.25590  -0.25025
 Alpha  occ. eigenvalues --   -0.24781  -0.23710  -0.23056  -0.22056  -0.21080
 Alpha  occ. eigenvalues --   -0.19383  -0.17238  -0.15384  -0.13501   0.04030
 Alpha virt. eigenvalues --    0.05651   0.06675   0.06832   0.07111   0.07681
 Alpha virt. eigenvalues --    0.08368   0.08517   0.08907   0.09711   0.10125
 Alpha virt. eigenvalues --    0.10482   0.10699   0.11345   0.11931   0.12238

  Beta  occ. eigenvalues --  -88.76919 -19.00897 -14.29809 -14.28676 -14.25925
  Beta  occ. eigenvalues --  -14.20037 -10.21858 -10.18144 -10.13138 -10.11610
  Beta  occ. eigenvalues --  -10.10875 -10.09095 -10.08328 -10.07935 -10.07448
  Beta  occ. eigenvalues --  -10.06874 -10.06574  -7.85578  -5.81993  -5.81563
  Beta  occ. eigenvalues --   -5.80951  -1.00843  -0.93880  -0.85950  -0.80523
  Beta  occ. eigenvalues --   -0.76099  -0.73361  -0.70972  -0.68330  -0.64090
  Beta  occ. eigenvalues --   -0.63208  -0.62406  -0.55400  -0.53830  -0.52063
  Beta  occ. eigenvalues --   -0.50838  -0.50239  -0.46748  -0.45115  -0.41279
  Beta  occ. eigenvalues --   -0.40480  -0.40306  -0.39284  -0.38505  -0.37082
  Beta  occ. eigenvalues --   -0.35626  -0.34949  -0.34213  -0.33235  -0.31563
  Beta  occ. eigenvalues --   -0.31258  -0.30388  -0.29851  -0.29697  -0.28808
  Beta  occ. eigenvalues --   -0.28476  -0.27722  -0.25965  -0.25549  -0.24984
  Beta  occ. eigenvalues --   -0.24754  -0.23659  -0.23021  -0.22014  -0.21038
  Beta  occ. eigenvalues --   -0.19373  -0.17208  -0.15354  -0.13461
  Beta virt. eigenvalues --    0.06133   0.06553   0.06884   0.07194   0.07553
  Beta virt. eigenvalues --    0.08199   0.08644   0.08954   0.09186   0.10133
  Beta virt. eigenvalues --    0.10539   0.10827   0.10982   0.11586   0.12133

 Mulliken charges and spin densities:
               1          2
     1  C    0.704997  -1.405002
     2  C   -0.686878   0.993553
     3  C   -0.009006  -0.666913
     4  N    0.193476   0.034127
     5  C    0.281748  -0.012842
     6  O   -0.402604   0.007981
     7  N   -0.170417   0.017349
     8  N    0.005968  -0.005028
     9  C   -1.019083   0.031714
    10  S    0.599027  -0.342918
    11  C    0.238221   0.466548
    12  C    0.225268  -0.837008
    13  C   -0.404808   0.221720
    14  C    1.247493  -1.826758
    15  C   -0.185886   0.122039
    16  C   -0.269320  -0.622628
    17  N   -0.242363  -0.026252
    18  H   -0.002374   0.131480
    19  H   -0.301226   0.451397
    20  H   -0.259909   0.409009
    21  H    0.092091   0.070671
    22  H   -0.012257   0.166460
    23  H    0.143763  -0.043684
    24  H    0.077479   0.125689
    25  H    0.330041   0.017826
    26  H    0.337505   0.010148
    27  H    0.174672  -0.006014
    28  H   -0.240122   0.395116
    29  H   -0.080308   0.211979
    30  H   -0.260044   0.447439
    31  H   -0.401215   0.578745
    32  H   -0.046735   0.184528
    33  H    0.037279   0.116326
    34  H   -0.542898   0.718060
    35  H   -0.392958   0.595993
    36  H    0.029723   0.229013
    37  H    0.211662   0.040135
 Sum of Mulliken charges =  -1.00000   1.00000

 Dipole moment (field-independent basis, Debye):
    X=             -4.6297    Y=             -3.9514    Z=             -3.1955  Tot=              6.8745
 Quadrupole moment (field-independent basis, Debye-Ang):
   XX=           -210.7498   YY=           -159.4556   ZZ=           -151.8334
   XY=              3.0269   XZ=             -5.4917   YZ=              3.9433

 Summary of Natural Population Analysis:

                                       Natural Population
                Natural  -----------------------------------------------
    Atom  No    Charge         Core      Valence    Rydberg      Total
 -----------------------------------------------------------------------
      C    1   -0.28747      0.99967     2.28304    0.00477     3.28747
      C    2   -0.19507      0.99964     2.18755    0.00788     3.19507
      C    3   -0.08888      0.99961     2.07840    0.01087     3.08888
      N    4   -0.24495      0.99958     2.73506    0.01031     3.74495
      C    5    0.38552      0.99968     1.59120    0.02361     2.61448
      O    6   -0.33459      0.99988     3.32963    0.00509     4.33459
      N    7   -0.21774      0.99968     2.70710    0.01097     3.71774
      N    8   -0.16706      0.99964     2.65472    0.01270     3.66706
      C    9    0.12734      0.99957     1.85290    0.02019     2.87266
      S   10    0.10941      4.99952     2.87295    0.01812     7.89059
      C   11   -0.14456      0.99952     2.13106    0.01398     3.14456
      C   12   -0.19668      0.99959     2.18742    0.00966     3.19668
      C   13   -0.19239      0.99963     2.18397    0.00879     3.19239
      C   14   -0.18971      0.99963     2.18152    0.00856     3.18971
      C   15   -0.20053      0.99960     2.19037    0.01056     3.20053
      C   16   -0.02043      0.99953     2.00644    0.01445     3.02043
      N   17   -0.42128      0.99977     2.91074    0.01077     3.92128
      H   18    0.09659      0.00000     0.40250    0.00091     0.40341
      H   19    0.10249      0.00000     0.39650    0.00101     0.39751
      H   20    0.10094      0.00000     0.39782    0.00124     0.39906
      H   21    0.09804      0.00000     0.40080    0.00115     0.40196
      H   22    0.09941      0.00000     0.39941    0.00117     0.40059
      H   23    0.10331      0.00000     0.39503    0.00166     0.39669
      H   24    0.11047      0.00000     0.38828    0.00126     0.38953
      H   25    0.20118      0.00000     0.29734    0.00148     0.29882
      H   26    0.11723      0.00000     0.38022    0.00256     0.38277
      H   27    0.10355      0.00000     0.39544    0.00101     0.39645
      H   28    0.10350      0.00000     0.39510    0.00140     0.39650
      H   29    0.09535      0.00000     0.40325    0.00140     0.40465
      H   30    0.10196      0.00000     0.39694    0.00110     0.39804
      H   31    0.10130      0.00000     0.39741    0.00129     0.39870
      H   32    0.09562      0.00000     0.40222    0.00216     0.40438
      H   33    0.09761      0.00000     0.40043    0.00197     0.40239
      H   34    0.10381      0.00000     0.39386    0.00233     0.39619
      H   35    0.09781      0.00000     0.39989    0.00229     0.40219
      H   36    0.17791      0.00000     0.32043    0.00166     0.32209
      H   37    0.17100      0.00000     0.32616    0.00284     0.32900
 =======================================================================
   * Total *   -0.00000     20.99372    47.77311    0.23317    69.00000

 Normal termination of Gaussian 16 at Mon Dec 14 19:52:36 2020.
