 Gaussian 16, Revision A.03,

 -----------------------------------------------------------
 # opt freq B3LYP/6-31G(d) empiricaldispersion=gd3bj scf=xqc
 -----------------------------------------------------------

 -------------------------------
 CID_150217666_JID_5968_neutraal
 -------------------------------
 Symbolic Z-matrix:
 Charge =  0 Multiplicity = 1

 SCF Done:  E(RB3LYP) =  -661.410216806     A.U. after   15 cycles
 SCF Done:  E(RB3LYP) =  -661.415496671     A.U. after   16 cycles
 SCF Done:  E(RB3LYP) =  -661.416801428     A.U. after   15 cycles
 SCF Done:  E(RB3LYP) =  -661.418070218     A.U. after   13 cycles
 SCF Done:  E(RB3LYP) =  -661.419021601     A.U. after   16 cycles
 SCF Done:  E(RB3LYP) =  -661.419430573     A.U. after   15 cycles
 SCF Done:  E(RB3LYP) =  -661.419696482     A.U. after   13 cycles
 SCF Done:  E(RB3LYP) =  -661.420002909     A.U. after   14 cycles
 SCF Done:  E(RB3LYP) =  -661.420121402     A.U. after   13 cycles
 SCF Done:  E(RB3LYP) =  -661.420300914     A.U. after   13 cycles
 SCF Done:  E(RB3LYP) =  -661.420863456     A.U. after   12 cycles
 SCF Done:  E(RB3LYP) =  -661.420880242     A.U. after   12 cycles
 SCF Done:  E(RB3LYP) =  -661.420881685     A.U. after    9 cycles
 SCF Done:  E(RB3LYP) =  -661.420881992     A.U. after    7 cycles
 SCF Done:  E(RB3LYP) =  -661.420882038     A.U. after    7 cycles
 Optimization completed.
    -- Stationary point found.
 Normal termination of Gaussian 16 at Thu Dec 10 17:48:17 2020.

 --------------------------------------------------------------------
 #N Geom=AllCheck Guess=TCheck SCRF=Check GenChk RB3LYP/6-31G(d) Freq
 --------------------------------------------------------------------

 Structure from the checkpoint file:  "JID_5968.chk"
 -------------------------------
 CID_150217666_JID_5968_neutraal
 -------------------------------
 Charge =  0 Multiplicity = 1

 SCF Done:  E(RB3LYP) =  -661.420882038     A.U. after    1 cycles

  Exact polarizability: 199.388 -14.001 155.874   3.037  -5.583  63.680
 Approx polarizability: 301.608 -54.175 313.237  11.428 -20.389  97.218

                      1                      2                      3
                      A                      A                      A
 Frequencies --     34.1363                66.4311               100.0934
 Red. masses --      7.6459                 2.9870                 5.0682
 Frc consts  --      0.0052                 0.0078                 0.0299
 IR Inten    --      0.0412                 0.3385                 0.1494

                      4                      5                      6
                      A                      A                      A
 Frequencies --    112.1747               165.1104               183.3290
 Red. masses --      7.8460                 3.7765                 3.8920
 Frc consts  --      0.0582                 0.0607                 0.0771
 IR Inten    --      1.1874                 0.5101                 0.4617

                      7                      8                      9
                      A                      A                      A
 Frequencies --    217.8185               246.7447               286.6118
 Red. masses --      3.7142                 1.2046                 1.3929
 Frc consts  --      0.1038                 0.0432                 0.0674
 IR Inten    --      4.9251                 3.3547                 0.6328

                     10                     11                     12
                      A                      A                      A
 Frequencies --    298.9148               321.1220               335.0916
 Red. masses --      2.4774                 3.9517                 4.8627
 Frc consts  --      0.1304                 0.2401                 0.3217
 IR Inten    --      2.3866                12.8154                 5.8372

                     13                     14                     15
                      A                      A                      A
 Frequencies --    361.1261               390.0350               464.7695
 Red. masses --      3.3696                 3.3253                 1.3429
 Frc consts  --      0.2589                 0.2981                 0.1709
 IR Inten    --      0.9742                 5.4952                90.8770

                     16                     17                     18
                      A                      A                      A
 Frequencies --    493.1028               508.2940               516.5459
 Red. masses --      5.5796                10.6785                 4.5523
 Frc consts  --      0.7993                 1.6255                 0.7157
 IR Inten    --      1.5370                16.8778                 0.7038

                     19                     20                     21
                      A                      A                      A
 Frequencies --    565.7142               567.2467               603.5095
 Red. masses --      4.4556                 5.1839                 2.6957
 Frc consts  --      0.8401                 0.9828                 0.5785
 IR Inten    --      3.1008                 2.0656                 7.2741

                     22                     23                     24
                      A                      A                      A
 Frequencies --    647.7855               659.2454               681.6415
 Red. masses --      4.9231                 3.8051                 5.9109
 Frc consts  --      1.2172                 0.9743                 1.6181
 IR Inten    --     12.4269                 6.1335                 5.4711

                     25                     26                     27
                      A                      A                      A
 Frequencies --    751.8654               774.8778               777.9621
 Red. masses --      1.6627                 1.9435                 4.1398
 Frc consts  --      0.5538                 0.6875                 1.4762
 IR Inten    --     30.5099                18.3255                22.7705

                     28                     29                     30
                      A                      A                      A
 Frequencies --    805.1394               863.8731               880.0971
 Red. masses --      3.1055                 4.8182                 1.4043
 Frc consts  --      1.1861                 2.1185                 0.6409
 IR Inten    --     11.3358                 1.0262                 0.1545

                     31                     32                     33
                      A                      A                      A
 Frequencies --    912.5049               948.9734              1011.7924
 Red. masses --      4.6418                 1.2484                 3.5332
 Frc consts  --      2.2773                 0.6624                 2.1311
 IR Inten    --      5.1416                 0.4433                76.2752

                     34                     35                     36
                      A                      A                      A
 Frequencies --   1081.4054              1098.5907              1106.3093
 Red. masses --      1.6022                 1.9576                 1.6132
 Frc consts  --      1.1039                 1.3921                 1.1633
 IR Inten    --     18.3567                25.7813                23.0184

                     37                     38                     39
                      A                      A                      A
 Frequencies --   1133.5832              1149.9626              1192.4147
 Red. masses --      1.2490                 2.6995                 1.4374
 Frc consts  --      0.9457                 2.1033                 1.2042
 IR Inten    --      5.3504                 2.9336                14.0482

                     40                     41                     42
                      A                      A                      A
 Frequencies --   1200.3771              1224.4468              1229.5944
 Red. masses --      1.4006                 2.3127                 2.3080
 Frc consts  --      1.1891                 2.0429                 2.0559
 IR Inten    --     18.2474                25.7065                11.3963

                     43                     44                     45
                      A                      A                      A
 Frequencies --   1264.1103              1314.8198              1348.9205
 Red. masses --      2.0066                 2.9085                 2.3372
 Frc consts  --      1.8892                 2.9625                 2.5057
 IR Inten    --     17.9448                 7.7740                13.2764

                     46                     47                     48
                      A                      A                      A
 Frequencies --   1366.4737              1390.4595              1420.8669
 Red. masses --      4.0491                 5.3958                 7.9999
 Frc consts  --      4.4546                 6.1464                 9.5157
 IR Inten    --     35.8400                41.9546               118.1322

                     49                     50                     51
                      A                      A                      A
 Frequencies --   1459.0820              1467.0486              1476.9013
 Red. masses --      2.5880                 1.1613                 2.6503
 Frc consts  --      3.2462                 1.4726                 3.4061
 IR Inten    --     29.1855                 0.3478                26.3551

                     52                     53                     54
                      A                      A                      A
 Frequencies --   1497.1065              1511.3646              1526.5333
 Red. masses --      1.2546                 1.0517                 1.0610
 Frc consts  --      1.6567                 1.4154                 1.4567
 IR Inten    --      4.4407                10.9566                21.2568

                     55                     56                     57
                      A                      A                      A
 Frequencies --   1534.3851              1547.2476              1554.5846
 Red. masses --      1.0763                 1.5688                 1.5834
 Frc consts  --      1.4929                 2.2128                 2.2546
 IR Inten    --      5.6878                 6.2049                10.5606

                     58                     59                     60
                      A                      A                      A
 Frequencies --   1607.2978              1637.3748              1670.4674
 Red. masses --      6.4500                 5.9230                 6.6528
 Frc consts  --      9.8176                 9.3559                10.9378
 IR Inten    --     38.8997                34.6792                 2.8647

                     61                     62                     63
                      A                      A                      A
 Frequencies --   2261.7946              2968.7902              2982.6393
 Red. masses --     13.9778                 1.0587                 1.0572
 Frc consts  --     42.1305                 5.4975                 5.5412
 IR Inten    --    712.3719                59.4317               106.2019

                     64                     65                     66
                      A                      A                      A
 Frequencies --   3085.3510              3086.9160              3141.0299
 Red. masses --      1.0787                 1.0769                 1.1024
 Frc consts  --      6.0499                 6.0460                 6.4080
 IR Inten    --     11.5721                69.9022                19.9772

                     67                     68                     69
                      A                      A                      A
 Frequencies --   3145.6876              3192.8749              3216.8248
 Red. masses --      1.1007                 1.0873                 1.0908
 Frc consts  --      6.4175                 6.5309                 6.6507
 IR Inten    --     20.2504                12.0328                12.8970

                     70                     71                     72
                      A                      A                      A
 Frequencies --   3229.2034              3291.2096              3662.2451
 Red. masses --      1.0934                 1.0974                 1.0795
 Frc consts  --      6.7179                 7.0036                 8.5306
 IR Inten    --      8.1156                 0.7074                75.0593

 - Thermochemistry -
 -------------------
 Temperature   298.150 Kelvin.  Pressure   1.00000 Atm.
 Atom     1 has atomic number  6 and mass  12.00000

 Molecular mass:   201.10145 amu.
 Principal axes and moments of inertia in atomic units:
                           1         2         3
     Eigenvalues --  1296.688774735.914385805.66635
           X            1.00000  -0.00055  -0.00306
           Y            0.00058   0.99996   0.00866
           Z            0.00306  -0.00867   0.99996
 This molecule is an asymmetric top.
 Rotational symmetry number  1.
 Warning -- assumption of classical behavior for rotation
           may cause significant error
 Rotational temperatures (Kelvin)      0.06680     0.01829     0.01492
 Rotational constants (GHZ):           1.39181     0.38108     0.31086
 Zero-point vibrational energy     543283.9 (Joules/Mol)
                                  129.84797 (Kcal/Mol)
 Warning -- explicit consideration of  21 degrees of freedom as
           vibrations may cause significant error
 Vibrational temperatures:     49.11    95.58   144.01   161.39   237.56
          (Kelvin)            263.77   313.39   355.01   412.37   430.07
                              462.02   482.12   519.58   561.17   668.70
                              709.46   731.32   743.19   813.94   816.14
                              868.32   932.02   948.51   980.73  1081.77
                             1114.88  1119.31  1158.42  1242.92  1266.26
                             1312.89  1365.36  1455.74  1555.90  1580.63
                             1591.73  1630.97  1654.54  1715.62  1727.07
                             1761.71  1769.11  1818.77  1891.73  1940.80
                             1966.05  2000.56  2044.31  2099.29  2110.76
                             2124.93  2154.00  2174.52  2196.34  2207.64
                             2226.14  2236.70  2312.54  2355.82  2403.43
                             3254.22  4271.43  4291.35  4439.13  4441.38
                             4519.24  4525.94  4593.83  4628.29  4646.10
                             4735.32  5269.15

 Zero-point correction=                           0.206926 (Hartree/Particle)
 Thermal correction to Energy=                    0.220099
 Thermal correction to Enthalpy=                  0.221043
 Thermal correction to Gibbs Free Energy=         0.166960
 Sum of electronic and zero-point Energies=           -661.213956
 Sum of electronic and thermal Energies=              -661.200783
 Sum of electronic and thermal Enthalpies=            -661.199839
 Sum of electronic and thermal Free Energies=         -661.253922

                     E (Thermal)             CV                S
                      KCal/Mol        Cal/Mol-Kelvin    Cal/Mol-Kelvin
 Total                  138.114             50.583            113.828
 Electronic               0.000              0.000              0.000
 Translational            0.889              2.981             41.801
 Rotational               0.889              2.981             31.945
 Vibrational            136.337             44.621             40.083
 Vibration     1          0.594              1.983              5.573
 Vibration     2          0.598              1.970              4.256
 Vibration     3          0.604              1.949              3.452
 Vibration     4          0.607              1.939              3.231
 Vibration     5          0.624              1.885              2.490
 Vibration     6          0.631              1.863              2.294
 Vibration     7          0.646              1.814              1.977
 Vibration     8          0.661              1.768              1.754
 Vibration     9          0.684              1.699              1.494
 Vibration    10          0.692              1.676              1.423
 Vibration    11          0.707              1.633              1.304
 Vibration    12          0.716              1.605              1.235
 Vibration    13          0.735              1.552              1.117
 Vibration    14          0.758              1.491              1.000
 Vibration    15          0.822              1.328              0.752
 Vibration    16          0.849              1.265              0.676
 Vibration    17          0.863              1.232              0.638
 Vibration    18          0.872              1.213              0.618
 Vibration    19          0.922              1.105              0.513
 Vibration    20          0.923              1.102              0.510
 Vibration    21          0.962              1.024              0.444

 Optimization completed.
    -- Stationary point found.
 Normal termination of Gaussian 16 at Thu Dec 10 17:56:07 2020.

 ----------------------------------------------------------------------
 # B3LYP/6-311++G(d,p) empiricaldispersion=gd3bj scf=xqc pop=npa geom=c
 heck
 ----------------------------------------------------------------------

 ---------------------------------------
 CID_150217666_JID_5968_Energie_neutraal
 ---------------------------------------
 Structure from the checkpoint file:  "JID_5968.chk"
 Charge =  0 Multiplicity = 1

 SCF Done:  E(RB3LYP) =  -661.595029896     A.U. after   16 cycles
 Normal termination of Gaussian 16 at Thu Dec 10 17:59:23 2020.

 ----------------------------------------------------------------------
 # B3LYP/6-311++G(d,p) empiricaldispersion=gd3bj scf=xqc pop=npa geom=c
 heck
 ----------------------------------------------------------------------

 -------------------------------------
 CID_150217666_JID_5968_Energie_kation
 -------------------------------------
 Structure from the checkpoint file:  "JID_5968.chk"
 Charge =  1 Multiplicity = 2

 SCF Done:  E(UB3LYP) =  -661.333624224     A.U. after   25 cycles
 Normal termination of Gaussian 16 at Thu Dec 10 18:05:44 2020.
 Gaussian 16:  ES64L-G16RevA.03 25-Dec-2016

 ----------------------------------------------------------------------
 # B3LYP/6-311++G(d,p) empiricaldispersion=gd3bj scf=xqc pop=npa geom=c
 heck
 ----------------------------------------------------------------------

 ------------------------------------
 CID_150217666_JID_5968_Energie_anion
 ------------------------------------
 Structure from the checkpoint file:  "JID_5968.chk"
 Charge = -1 Multiplicity = 2

                         Standard orientation:
 ---------------------------------------------------------------------
 Center     Atomic      Atomic             Coordinates (Angstroms)
 Number     Number       Type             X           Y           Z
 ---------------------------------------------------------------------
      1          6           0        3.973478    0.461147    0.630716
      2          7           0        2.846959   -0.325148    0.151507
      3          6           0        3.185600   -1.063927   -1.068184
      4          6           0        1.602229    0.359146    0.076933
      5          6           0        1.446463    1.741628   -0.000831
      6          6           0        0.167911    2.334242   -0.068667
      7          6           0       -0.992765    1.575956   -0.070419
      8          6           0       -0.873063    0.176308    0.028299
      9          6           0        0.419051   -0.400486    0.107124
     10          7           0        0.277307   -1.768042    0.225139
     11          6           0       -1.067821   -2.083930    0.268108
     12          6           0       -1.800778   -0.929113    0.124935
     13          7           0       -3.206639   -0.946464    0.093490
     14          7           0       -3.823701    0.107823   -0.082931
     15          7           0       -4.536501    0.990567   -0.233501
     16          1           0        4.809880   -0.213372    0.842436
     17          1           0        3.696606    0.974826    1.555018
     18          1           0        4.324945    1.213452   -0.097950
     19          1           0        2.329621   -1.655972   -1.400075
     20          1           0        3.477047   -0.393096   -1.894876
     21          1           0        4.021667   -1.741186   -0.861758
     22          1           0        2.323365    2.379488   -0.020373
     23          1           0        0.097811    3.416191   -0.132468
     24          1           0       -1.961722    2.058272   -0.128908
     25          1           0        1.028543   -2.374452    0.516913
     26          1           0       -1.411563   -3.101128    0.378016
 ---------------------------------------------------------------------

 SCF Done:  E(UB3LYP) =  -661.588581153     A.U. after   33 cycles
 SCF Done:  E(UB3LYP) =  -661.588581154     a.u. after    1 cycles

 The electronic state is 2-A.
 Alpha  occ. eigenvalues --  -14.35065 -14.25429 -14.25408 -14.25175 -14.22602
 Alpha  occ. eigenvalues --  -10.11040 -10.10582 -10.10442 -10.09961 -10.09653
 Alpha  occ. eigenvalues --  -10.09319 -10.07779 -10.07305 -10.07239 -10.07154
 Alpha  occ. eigenvalues --   -1.02023  -0.88708  -0.86518  -0.84040  -0.74217
 Alpha  occ. eigenvalues --   -0.69092  -0.64375  -0.63474  -0.61453  -0.56215
 Alpha  occ. eigenvalues --   -0.54410  -0.51069  -0.50053  -0.44207  -0.41738
 Alpha  occ. eigenvalues --   -0.40212  -0.39334  -0.38733  -0.38322  -0.36673
 Alpha  occ. eigenvalues --   -0.36138  -0.35579  -0.33231  -0.32884  -0.32497
 Alpha  occ. eigenvalues --   -0.30600  -0.29966  -0.29299  -0.27890  -0.27023
 Alpha  occ. eigenvalues --   -0.26201  -0.24277  -0.21694  -0.19461  -0.17281
 Alpha  occ. eigenvalues --   -0.13911  -0.11640  -0.08893   0.04176
 Alpha virt. eigenvalues --    0.05720   0.06992   0.07578   0.07969   0.08590
 Alpha virt. eigenvalues --    0.09350   0.10057   0.10145   0.10588   0.11170
 Alpha virt. eigenvalues --    0.11464   0.11979   0.12349   0.13026   0.14727

  Beta  occ. eigenvalues --  -14.34800 -14.25380 -14.25209 -14.25136 -14.22599
  Beta  occ. eigenvalues --  -10.11033 -10.10532 -10.10443 -10.09944 -10.09623
  Beta  occ. eigenvalues --  -10.09275 -10.07780 -10.07305 -10.07230 -10.07145
  Beta  occ. eigenvalues --   -1.01551  -0.88654  -0.86325  -0.84018  -0.74196
  Beta  occ. eigenvalues --   -0.69003  -0.64350  -0.63422  -0.61392  -0.56137
  Beta  occ. eigenvalues --   -0.54247  -0.51032  -0.50005  -0.44159  -0.41673
  Beta  occ. eigenvalues --   -0.39393  -0.39123  -0.38656  -0.38261  -0.36598
  Beta  occ. eigenvalues --   -0.36053  -0.35305  -0.32842  -0.32655  -0.32420
  Beta  occ. eigenvalues --   -0.30476  -0.29921  -0.29227  -0.27844  -0.26974
  Beta  occ. eigenvalues --   -0.26153  -0.24241  -0.21615  -0.18886  -0.17230
  Beta  occ. eigenvalues --   -0.13886  -0.11613  -0.08809
  Beta virt. eigenvalues --    0.06542   0.07570   0.07689   0.08321   0.08588
  Beta virt. eigenvalues --    0.09030   0.09909   0.10184   0.10604   0.10823
  Beta virt. eigenvalues --    0.11279   0.11876   0.12373   0.12764   0.13192

 Mulliken charges and spin densities:
               1          2
     1  C    0.609316  -0.904541
     2  N    0.006796   0.159229
     3  C    0.788269  -1.190634
     4  C   -1.001684   0.589186
     5  C    0.409499  -0.146622
     6  C   -0.557298   0.041914
     7  C   -0.723247  -0.238269
     8  C    1.699564  -0.246877
     9  C    0.379237  -0.471254
    10  N   -0.255350   0.133556
    11  C   -0.437847   0.717782
    12  C    0.018796  -1.366357
    13  N    0.173838   0.215081
    14  N    0.169655  -0.025184
    15  N   -0.433913   0.082041
    16  H   -0.429135   0.584450
    17  H   -0.054602   0.202519
    18  H   -0.084228   0.195827
    19  H   -0.198119   0.346067
    20  H   -0.053032   0.178590
    21  H   -0.430419   0.601203
    22  H    0.120715   0.009813
    23  H    0.119834   0.031119
    24  H    0.154545  -0.011717
    25  H   -0.279580   0.598703
    26  H   -0.711607   0.914376
 Sum of Mulliken charges =  -1.00000   1.00000

 Dipole moment (field-independent basis, Debye):
    X=             -1.0832    Y=              4.7451    Z=             -0.0522  Tot=              4.8675
 Quadrupole moment (field-independent basis, Debye-Ang):
   XX=           -175.2473   YY=           -127.4784   ZZ=           -109.7487
   XY=             12.5794   XZ=             -0.9585   YZ=              0.9171

 Summary of Natural Population Analysis:

                                       Natural Population
                Natural  -----------------------------------------------
    Atom  No    Charge         Core      Valence    Rydberg      Total
 -----------------------------------------------------------------------
      C    1   -0.17672      0.99965     2.16816    0.00892     3.17672
      N    2   -0.27107      0.99970     2.75714    0.01424     3.77107
      C    3   -0.17371      0.99963     2.16564    0.00844     3.17371
      C    4    0.07886      0.99942     1.90991    0.01181     2.92114
      C    5   -0.12880      0.99953     2.11996    0.00932     3.12880
      C    6   -0.11220      0.99960     2.10346    0.00915     3.11220
      C    7   -0.10126      0.99948     2.09300    0.00879     3.10126
      C    8   -0.05647      0.99947     2.04791    0.00909     3.05647
      C    9    0.07571      0.99944     1.91268    0.01216     2.92429
      N   10   -0.27114      0.99966     2.76126    0.01022     3.77114
      C   11   -0.00622      0.99952     1.99390    0.01280     3.00622
      C   12    0.03370      0.99938     1.95375    0.01317     2.96630
      N   13   -0.18042      0.99963     2.66748    0.01330     3.68042
      N   14    0.13843      0.99971     2.34681    0.01506     3.36157
      N   15   -0.02665      0.99982     2.51386    0.01297     3.52665
      H   16    0.09993      0.00000     0.39871    0.00135     0.40007
      H   17    0.09872      0.00000     0.40019    0.00109     0.40128
      H   18    0.08101      0.00000     0.41752    0.00147     0.41899
      H   19    0.10024      0.00000     0.39809    0.00167     0.39976
      H   20    0.08261      0.00000     0.41608    0.00131     0.41739
      H   21    0.09837      0.00000     0.39927    0.00236     0.40163
      H   22    0.10190      0.00000     0.39708    0.00102     0.39810
      H   23    0.09654      0.00000     0.40270    0.00077     0.40346
      H   24    0.10556      0.00000     0.39316    0.00128     0.39444
      H   25    0.20872      0.00000     0.28595    0.00533     0.29128
      H   26    0.10437      0.00000     0.39349    0.00214     0.39563
 =======================================================================
   * Total *    0.00000     14.99361    37.81717    0.18922    53.00000

 Normal termination of Gaussian 16 at Thu Dec 10 18:13:38 2020.
