 Gaussian 16, Revision A.03,

 -----------------------------------------------------------
 # opt freq B3LYP/6-31G(d) empiricaldispersion=gd3bj scf=xqc
 -----------------------------------------------------------

 -------------------------------
 CID_134181140_JID_2662_neutraal
 -------------------------------
 Symbolic Z-matrix:
 Charge =  0 Multiplicity = 1

 SCF Done:  E(RB3LYP) =  -553.560102190     A.U. after   14 cycles
 SCF Done:  E(RB3LYP) =  -553.563549671     A.U. after   13 cycles
 SCF Done:  E(RB3LYP) =  -553.564533117     A.U. after   13 cycles
 SCF Done:  E(RB3LYP) =  -553.564726031     A.U. after   13 cycles
 SCF Done:  E(RB3LYP) =  -553.565093612     A.U. after   13 cycles
 SCF Done:  E(RB3LYP) =  -553.565242095     A.U. after   12 cycles
 SCF Done:  E(RB3LYP) =  -553.565308927     A.U. after   12 cycles
 SCF Done:  E(RB3LYP) =  -553.565331163     A.U. after   11 cycles
 SCF Done:  E(RB3LYP) =  -553.565336488     A.U. after   10 cycles
 SCF Done:  E(RB3LYP) =  -553.565337366     A.U. after    9 cycles
 Optimization completed.
    -- Stationary point found.
 Normal termination of Gaussian 16 at Wed Dec  9 17:51:05 2020.

 --------------------------------------------------------------------
 #N Geom=AllCheck Guess=TCheck SCRF=Check GenChk RB3LYP/6-31G(d) Freq
 --------------------------------------------------------------------

 Structure from the checkpoint file:  "JID_2662.chk"
 -------------------------------
 CID_134181140_JID_2662_neutraal
 -------------------------------
 Charge =  0 Multiplicity = 1

 SCF Done:  E(RB3LYP) =  -553.565337366     A.U. after    1 cycles

  Exact polarizability: 118.040   8.953 107.790  13.285  -6.549  65.992
 Approx polarizability: 169.093  22.830 203.498  27.340 -15.385  98.437

                      1                      2                      3
                      A                      A                      A
 Frequencies --     38.7454                43.2904                82.2849
 Red. masses --      5.5238                 6.0426                 5.6958
 Frc consts  --      0.0049                 0.0067                 0.0227
 IR Inten    --      0.1677                 0.6673                 1.9884

                      4                      5                      6
                      A                      A                      A
 Frequencies --    134.7700               184.0099               259.7995
 Red. masses --      2.5297                 5.2545                 4.1658
 Frc consts  --      0.0271                 0.1048                 0.1657
 IR Inten    --      0.9436                 1.6234                 6.7483

                      7                      8                      9
                      A                      A                      A
 Frequencies --    271.7788               327.5331               407.1127
 Red. masses --      4.1124                 3.9530                 5.0359
 Frc consts  --      0.1790                 0.2499                 0.4918
 IR Inten    --      0.9886                15.9775                16.8684

                     10                     11                     12
                      A                      A                      A
 Frequencies --    423.4484               473.9543               516.9246
 Red. masses --      3.1203                 2.6988                 3.9778
 Frc consts  --      0.3296                 0.3572                 0.6262
 IR Inten    --      0.7932                33.2128                 3.1357

                     13                     14                     15
                      A                      A                      A
 Frequencies --    523.5481               557.3530               623.3111
 Red. masses --      3.4910                 5.0002                 6.2767
 Frc consts  --      0.5638                 0.9152                 1.4368
 IR Inten    --      4.0267                14.0992                 0.9091

                     16                     17                     18
                      A                      A                      A
 Frequencies --    646.3040               704.4179               751.1538
 Red. masses --      6.0859                 2.3799                 2.8835
 Frc consts  --      1.4978                 0.6958                 0.9586
 IR Inten    --      0.6542                11.3943                17.4721

                     19                     20                     21
                      A                      A                      A
 Frequencies --    767.4248               802.0745               832.2486
 Red. masses --      1.5778                 4.5423                 1.2851
 Frc consts  --      0.5475                 1.7217                 0.5244
 IR Inten    --     57.1657                18.7821                 0.8917

                     22                     23                     24
                      A                      A                      A
 Frequencies --    854.5779               900.5554               961.0618
 Red. masses --      2.2388                 1.4158                 1.3252
 Frc consts  --      0.9633                 0.6765                 0.7212
 IR Inten    --      2.3609                 7.7685                 0.0516

                     25                     26                     27
                      A                      A                      A
 Frequencies --    988.0334              1017.8032              1032.8983
 Red. masses --      1.2393                 5.6869                 2.3883
 Frc consts  --      0.7128                 3.4710                 1.5013
 IR Inten    --      0.4117                 0.8685                 3.9624

                     28                     29                     30
                      A                      A                      A
 Frequencies --   1056.6716              1092.8374              1120.9491
 Red. masses --      2.3545                 4.1017                 1.5444
 Frc consts  --      1.5489                 2.8862                 1.1434
 IR Inten    --      2.0376                42.6189                13.5187

                     31                     32                     33
                      A                      A                      A
 Frequencies --   1174.6396              1191.9818              1203.7247
 Red. masses --      1.1142                 1.1125                 2.1436
 Frc consts  --      0.9058                 0.9313                 1.8299
 IR Inten    --    106.8577                 3.9986                62.9517

                     34                     35                     36
                      A                      A                      A
 Frequencies --   1215.6065              1261.4660              1298.0615
 Red. masses --      1.1523                 1.9333                 1.8559
 Frc consts  --      1.0032                 1.8126                 1.8424
 IR Inten    --     14.9542               117.7329               108.1160

                     37                     38                     39
                      A                      A                      A
 Frequencies --   1306.1145              1354.5247              1375.9858
 Red. masses --      1.5256                 2.0324                 2.1803
 Frc consts  --      1.5334                 2.1970                 2.4321
 IR Inten    --     24.0084                20.2624                 8.1588

                     40                     41                     42
                      A                      A                      A
 Frequencies --   1392.0156              1425.5855              1503.1969
 Red. masses --      1.4064                 1.2621                 1.3267
 Frc consts  --      1.6056                 1.5112                 1.7663
 IR Inten    --      0.3245                28.3355                 4.2651

                     43                     44                     45
                      A                      A                      A
 Frequencies --   1510.9854              1548.5595              1651.7197
 Red. masses --      1.6560                 2.2487                 5.8267
 Frc consts  --      2.2275                 3.1771                 9.3659
 IR Inten    --      5.2515                91.3444                21.9425

                     46                     47                     48
                      A                      A                      A
 Frequencies --   1665.9469              1709.6582              1794.6307
 Red. masses --      5.7802                 8.9302                11.4955
 Frc consts  --      9.4518                15.3791                21.8137
 IR Inten    --     58.8199                14.6193                97.3375

                     49                     50                     51
                      A                      A                      A
 Frequencies --   3064.7107              3114.9774              3125.8930
 Red. masses --      1.0571                 1.1079                 1.0905
 Frc consts  --      5.8501                 6.3335                 6.2778
 IR Inten    --     23.1236                 9.4292                26.4623

                     52                     53                     54
                      A                      A                      A
 Frequencies --   3191.3239              3199.2658              3212.8273
 Red. masses --      1.0854                 1.0895                 1.0928
 Frc consts  --      6.5130                 6.5700                 6.6460
 IR Inten    --      1.0781                12.0813                23.0643

                     55                     56                     57
                      A                      A                      A
 Frequencies --   3220.1777              3234.5530              3430.5169
 Red. masses --      1.0965                 1.0923                 1.0737
 Frc consts  --      6.6993                 6.7330                 7.4450
 IR Inten    --     10.2658                 2.9699                12.9792

 - Thermochemistry -
 -------------------
 Temperature   298.150 Kelvin.  Pressure   1.00000 Atm.
 Atom     1 has atomic number  6 and mass  12.00000

 Molecular mass:   163.06333 amu.
 Principal axes and moments of inertia in atomic units:
                           1         2         3
     Eigenvalues --  1032.004052918.777983215.69869
           X            0.99994  -0.00492   0.01011
           Y            0.00515   0.99971  -0.02353
           Z           -0.00999   0.02358   0.99967
 This molecule is an asymmetric top.
 Rotational symmetry number  1.
 Warning -- assumption of classical behavior for rotation
           may cause significant error
 Rotational temperatures (Kelvin)      0.08393     0.02967     0.02693
 Rotational constants (GHZ):           1.74877     0.61832     0.56123
 Zero-point vibrational energy     435294.3 (Joules/Mol)
                                  104.03784 (Kcal/Mol)
 Warning -- explicit consideration of  14 degrees of freedom as
           vibrations may cause significant error
 Vibrational temperatures:     55.75    62.29   118.39   193.90   264.75
          (Kelvin)            373.79   391.03   471.25   585.74   609.25
                              681.91   743.74   753.27   801.91   896.81
                              929.89  1013.50  1080.74  1104.15  1154.01
                             1197.42  1229.55  1295.70  1382.75  1421.56
                             1464.39  1486.11  1520.31  1572.35  1612.80
                             1690.04  1715.00  1731.89  1748.99  1814.97
                             1867.62  1879.21  1948.86  1979.74  2002.80
                             2051.10  2162.77  2173.97  2228.03  2376.46
                             2396.93  2459.82  2582.07  4409.44  4481.76
                             4497.46  4591.60  4603.03  4622.54  4633.12
                             4653.80  4935.75

 Zero-point correction=                           0.165795 (Hartree/Particle)
 Thermal correction to Energy=                    0.176340
 Thermal correction to Enthalpy=                  0.177285
 Thermal correction to Gibbs Free Energy=         0.128209
 Sum of electronic and zero-point Energies=           -553.399543
 Sum of electronic and thermal Energies=              -553.388997
 Sum of electronic and thermal Enthalpies=            -553.388053
 Sum of electronic and thermal Free Energies=         -553.437128

                     E (Thermal)             CV                S
                      KCal/Mol        Cal/Mol-Kelvin    Cal/Mol-Kelvin
 Total                  110.655             39.435            103.287
 Electronic               0.000              0.000              0.000
 Translational            0.889              2.981             41.176
 Rotational               0.889              2.981             30.650
 Vibrational            108.878             33.474             31.462
 Vibration     1          0.594              1.981              5.322
 Vibration     2          0.595              1.980              5.103
 Vibration     3          0.600              1.961              3.836
 Vibration     4          0.613              1.919              2.877
 Vibration     5          0.631              1.862              2.287
 Vibration     6          0.668              1.746              1.663
 Vibration     7          0.675              1.725              1.585
 Vibration     8          0.711              1.620              1.272
 Vibration     9          0.772              1.455              0.937
 Vibration    10          0.786              1.419              0.880
 Vibration    11          0.831              1.308              0.727
 Vibration    12          0.872              1.213              0.617
 Vibration    13          0.879              1.198              0.602
 Vibration    14          0.913              1.124              0.529

                           ! Non-Optimized Parameters !
 Normal termination of Gaussian 16 at Wed Dec  9 17:56:15 2020.

 ----------------------------------------------------------------------
 # B3LYP/6-311++G(d,p) empiricaldispersion=gd3bj scf=xqc pop=npa geom=c
 heck
 ----------------------------------------------------------------------

 ---------------------------------------
 CID_134181140_JID_2662_Energie_neutraal
 ---------------------------------------
 Structure from the checkpoint file:  "JID_2662.chk"
 Charge =  0 Multiplicity = 1

 SCF Done:  E(RB3LYP) =  -553.723429002     A.U. after   15 cycles
 Normal termination of Gaussian 16 at Wed Dec  9 17:58:49 2020.

 ----------------------------------------------------------------------
 # B3LYP/6-311++G(d,p) empiricaldispersion=gd3bj scf=xqc pop=npa geom=c
 heck
 ----------------------------------------------------------------------

 -------------------------------------
 CID_134181140_JID_2662_Energie_kation
 -------------------------------------
 Structure from the checkpoint file:  "JID_2662.chk"
 Charge =  1 Multiplicity = 2

 SCF Done:  E(UB3LYP) =  -553.413551121     A.U. after   22 cycles
 Normal termination of Gaussian 16 at Wed Dec  9 18:04:31 2020.
 Gaussian 16:  ES64L-G16RevA.03 25-Dec-2016

 ----------------------------------------------------------------------
 # B3LYP/6-311++G(d,p) empiricaldispersion=gd3bj scf=xqc pop=npa geom=c
 heck
 ----------------------------------------------------------------------

 ------------------------------------
 CID_134181140_JID_2662_Energie_anion
 ------------------------------------
 Structure from the checkpoint file:  "JID_2662.chk"
 Charge = -1 Multiplicity = 2

                         Standard orientation:
 ---------------------------------------------------------------------
 Center     Atomic      Atomic             Coordinates (Angstroms)
 Number     Number       Type             X           Y           Z
 ---------------------------------------------------------------------
      1          6           0       -3.155917    0.561169   -0.606320
      2          6           0       -3.002101   -0.763627   -0.185903
      3          6           0       -1.809111   -1.186810    0.388856
      4          6           0       -0.756028   -0.280177    0.546508
      5          6           0       -0.893927    1.046675    0.131745
      6          6           0       -2.101264    1.455027   -0.444257
      7          8           0        0.384847   -0.800489    1.122143
      8          6           0        1.492494    0.067946    1.296732
      9          6           0        2.192638    0.493507    0.000024
     10          8           0        2.699786    1.596965   -0.080394
     11          6           0        2.339202   -0.477928   -1.145887
     12          7           0        1.944010   -1.686323   -1.207988
     13          1           0       -4.087745    0.888527   -1.056674
     14          1           0       -3.815932   -1.472642   -0.307237
     15          1           0       -1.671063   -2.210458    0.721620
     16          1           0       -0.088887    1.763256    0.240565
     17          1           0       -2.205401    2.486519   -0.768107
     18          1           0        1.222054    0.972975    1.851674
     19          1           0        2.210186   -0.500632    1.898907
     20          1           0        2.882374   -0.046816   -1.992320
     21          1           0        1.433369   -1.942971   -0.355483
 ---------------------------------------------------------------------

 SCF Done:  E(UB3LYP) =  -553.753367776     A.U. after   26 cycles

 The electronic state is 2-A.
 Alpha  occ. eigenvalues --  -19.02974 -18.91323 -14.10716 -10.11969 -10.08643
 Alpha  occ. eigenvalues --  -10.06774 -10.06532 -10.06211 -10.05908 -10.05631
 Alpha  occ. eigenvalues --  -10.05049 -10.02222  -0.94390  -0.85752  -0.74297
 Alpha  occ. eigenvalues --   -0.72061  -0.64457  -0.63655  -0.57998  -0.50142
 Alpha  occ. eigenvalues --   -0.48764  -0.46618  -0.42588  -0.39343  -0.37484
 Alpha  occ. eigenvalues --   -0.36656  -0.33893  -0.31790  -0.31040  -0.29869
 Alpha  occ. eigenvalues --   -0.28021  -0.26710  -0.25546  -0.25102  -0.24053
 Alpha  occ. eigenvalues --   -0.21973  -0.21182  -0.20111  -0.15301  -0.14734
 Alpha  occ. eigenvalues --   -0.11809  -0.11720  -0.05990   0.04102
 Alpha virt. eigenvalues --    0.07718   0.09368   0.09442   0.10144   0.10783
 Alpha virt. eigenvalues --    0.11328   0.12145   0.12957   0.13428   0.15346
 Alpha virt. eigenvalues --    0.15800   0.16079   0.16947   0.17758   0.18752

  Beta  occ. eigenvalues --  -19.02950 -18.90578 -14.10125 -10.11971 -10.08675
  Beta  occ. eigenvalues --  -10.06732 -10.06479 -10.06226 -10.05887 -10.05628
  Beta  occ. eigenvalues --  -10.04663 -10.02159  -0.94335  -0.84431  -0.74239
  Beta  occ. eigenvalues --   -0.71081  -0.64370  -0.63594  -0.57773  -0.50039
  Beta  occ. eigenvalues --   -0.48369  -0.45668  -0.42470  -0.38992  -0.37417
  Beta  occ. eigenvalues --   -0.36559  -0.33807  -0.31711  -0.30707  -0.29655
  Beta  occ. eigenvalues --   -0.27722  -0.26369  -0.25263  -0.24625  -0.23844
  Beta  occ. eigenvalues --   -0.21455  -0.20302  -0.18265  -0.14466  -0.12199
  Beta  occ. eigenvalues --   -0.11605  -0.11002  -0.05352
  Beta virt. eigenvalues --    0.07688   0.09308   0.09435   0.10089   0.10760
  Beta virt. eigenvalues --    0.11162   0.12017   0.12864   0.13160   0.13540
  Beta virt. eigenvalues --    0.15378   0.15844   0.16057   0.16931   0.17805

 Mulliken charges and spin densities:
               1          2
     1  C   -0.278594  -0.014728
     2  C   -0.093762   0.025397
     3  C   -0.142806   0.040879
     4  C   -0.117653   0.008493
     5  C    0.110567  -0.033896
     6  C   -0.300856   0.041825
     7  O   -0.125543   0.000957
     8  C   -0.283811  -0.039476
     9  C   -0.086176   0.332634
    10  O   -0.404559   0.247661
    11  C   -0.126778   0.004544
    12  N   -0.402472   0.322401
    13  H    0.106019   0.001476
    14  H    0.131145   0.000502
    15  H    0.140818  -0.000980
    16  H    0.158721   0.004181
    17  H    0.153538  -0.000931
    18  H    0.160183  -0.000168
    19  H    0.101907   0.075227
    20  H    0.122381  -0.008276
    21  H    0.177729  -0.007723
 Sum of Mulliken charges =  -1.00000   1.00000

 Dipole moment (field-independent basis, Debye):
    X=             -7.5217    Y=              0.3127    Z=              2.9347  Tot=              8.0800
 Quadrupole moment (field-independent basis, Debye-Ang):
   XX=           -104.3892   YY=            -89.3998   ZZ=            -83.6950
   XY=             -1.8994   XZ=              8.6082   YZ=             -6.4966

 Summary of Natural Population Analysis:

                                       Natural Population
                Natural  -----------------------------------------------
    Atom  No    Charge         Core      Valence    Rydberg      Total
 -----------------------------------------------------------------------
      C    1   -0.13168      0.99957     2.12249    0.00962     3.13168
      C    2   -0.09351      0.99958     2.08525    0.00868     3.09351
      C    3   -0.11961      0.99952     2.11140    0.00868     3.11961
      C    4    0.16720      0.99937     1.81930    0.01412     2.83280
      C    5   -0.13892      0.99951     2.13194    0.00746     3.13892
      C    6   -0.08540      0.99958     2.07673    0.00908     3.08540
      O    7   -0.27816      0.99986     3.26833    0.00996     4.27816
      C    8   -0.05824      0.99954     2.04272    0.01598     3.05824
      C    9    0.26791      0.99966     1.71124    0.02119     2.73209
      O   10   -0.22500      0.99988     3.21755    0.00757     4.22500
      C   11    0.01877      0.99967     1.96384    0.01772     2.98123
      N   12   -0.23169      0.99974     2.72122    0.01073     3.73169
      H   13    0.09404      0.00000     0.40498    0.00097     0.40596
      H   14    0.09368      0.00000     0.40538    0.00094     0.40632
      H   15    0.10316      0.00000     0.39552    0.00132     0.39684
      H   16    0.11776      0.00000     0.38071    0.00153     0.38224
      H   17    0.09513      0.00000     0.40393    0.00095     0.40487
      H   18    0.08710      0.00000     0.41117    0.00173     0.41290
      H   19    0.09717      0.00000     0.40127    0.00156     0.40283
      H   20    0.06902      0.00000     0.42859    0.00239     0.43098
      H   21    0.15126      0.00000     0.34363    0.00511     0.34874
 =======================================================================
   * Total *    0.00000     11.99549    30.84720    0.15731    43.00000

 Normal termination of Gaussian 16 at Wed Dec  9 18:09:56 2020.
