 Gaussian 16, Revision A.03,

 -----------------------------------------------------------
 # opt freq B3LYP/6-31G(d) empiricaldispersion=gd3bj scf=xqc
 -----------------------------------------------------------

 --------------------------------
 CID_135922162_JID_10449_neutraal
 --------------------------------
 Symbolic Z-matrix:
 Charge =  0 Multiplicity = 1

 SCF Done:  E(RB3LYP) =  -1256.68533696     A.U. after   15 cycles
 SCF Done:  E(RB3LYP) =  -1256.69686376     A.U. after   13 cycles
 SCF Done:  E(RB3LYP) =  -1256.69623260     A.U. after   15 cycles
 SCF Done:  E(RB3LYP) =  -1256.69945921     A.U. after   12 cycles
 SCF Done:  E(RB3LYP) =  -1256.70044748     A.U. after   15 cycles
 SCF Done:  E(RB3LYP) =  -1256.70156263     A.U. after   13 cycles
 SCF Done:  E(RB3LYP) =  -1256.70203922     A.U. after   13 cycles
 SCF Done:  E(RB3LYP) =  -1256.70223743     A.U. after   12 cycles
 SCF Done:  E(RB3LYP) =  -1256.70233467     A.U. after   12 cycles
 SCF Done:  E(RB3LYP) =  -1256.70241720     A.U. after   11 cycles
 SCF Done:  E(RB3LYP) =  -1256.71065309     A.U. after    7 cycles
 SCF Done:  E(RB3LYP) =  -1256.71065311     A.U. after    7 cycles
 SCF Done:  E(RB3LYP) =  -1256.71065313     A.U. after    7 cycles
 SCF Done:  E(RB3LYP) =  -1256.71065314     A.U. after    7 cycles
 SCF Done:  E(RB3LYP) =  -1256.71065315     A.U. after    7 cycles
 Optimization completed.
    -- Stationary point found.
 Normal termination of Gaussian 16 at Sun Dec 13 21:20:14 2020.

 --------------------------------------------------------------------
 #N Geom=AllCheck Guess=TCheck SCRF=Check GenChk RB3LYP/6-31G(d) Freq
 --------------------------------------------------------------------

 Structure from the checkpoint file:  "JID_10449.chk"
 --------------------------------
 CID_135922162_JID_10449_neutraal
 --------------------------------
 Charge =  0 Multiplicity = 1

 SCF Done:  E(RB3LYP) =  -1256.71065315     A.U. after    1 cycles

  Exact polarizability: 210.366 -29.243 212.548  27.384  14.382 138.339
 Approx polarizability: 304.984 -41.004 334.757  60.058  41.338 243.941

                      1                      2                      3
                      A                      A                      A
 Frequencies --     11.1091                36.4237                42.9980
 Red. masses --      5.9027                 6.4139                 5.5129
 Frc consts  --      0.0004                 0.0050                 0.0060
 IR Inten    --      0.2646                 0.1128                 0.3824

                      4                      5                      6
                      A                      A                      A
 Frequencies --     66.4495                75.9286                94.9850
 Red. masses --      3.7474                 3.7659                 5.7340
 Frc consts  --      0.0097                 0.0128                 0.0305
 IR Inten    --      0.3541                 0.4940                 2.8872

                      7                      8                      9
                      A                      A                      A
 Frequencies --    137.6748               138.5184               152.1861
 Red. masses --      1.6710                 4.3860                 3.2784
 Frc consts  --      0.0187                 0.0496                 0.0447
 IR Inten    --      0.2096                 0.8850                 2.3068

                     10                     11                     12
                      A                      A                      A
 Frequencies --    170.2447               188.8202               193.7588
 Red. masses --      5.2241                 2.9662                 4.0153
 Frc consts  --      0.0892                 0.0623                 0.0888
 IR Inten    --      0.4509                 1.9664                 2.0317

                     13                     14                     15
                      A                      A                      A
 Frequencies --    198.1373               238.4999               244.2889
 Red. masses --      3.2281                 3.2829                 1.0495
 Frc consts  --      0.0747                 0.1100                 0.0369
 IR Inten    --     13.5808                 2.3136                22.7040

                     16                     17                     18
                      A                      A                      A
 Frequencies --    283.0601               317.9118               352.7242
 Red. masses --      4.2758                 3.2090                 3.7276
 Frc consts  --      0.2018                 0.1911                 0.2732
 IR Inten    --      0.8147                 3.9163                 0.1552

                     19                     20                     21
                      A                      A                      A
 Frequencies --    360.2774               369.5279               418.3540
 Red. masses --      2.7289                 5.3492                 3.1813
 Frc consts  --      0.2087                 0.4304                 0.3281
 IR Inten    --      1.1924                10.1333                 5.9719

                     22                     23                     24
                      A                      A                      A
 Frequencies --    423.1202               444.9919               475.7648
 Red. masses --      3.4528                 4.3659                 3.0238
 Frc consts  --      0.3642                 0.5094                 0.4033
 IR Inten    --      3.1647                 5.8334                 0.4732

                     25                     26                     27
                      A                      A                      A
 Frequencies --    506.0273               522.7091               555.5333
 Red. masses --      5.6542                 2.1777                 4.2939
 Frc consts  --      0.8530                 0.3506                 0.7808
 IR Inten    --      1.0458                25.6538                 6.0356

                     28                     29                     30
                      A                      A                      A
 Frequencies --    563.2097               566.6754               580.8258
 Red. masses --      4.5155                 3.6357                 7.3836
 Frc consts  --      0.8439                 0.6879                 1.4676
 IR Inten    --      0.3284                 1.6240                 0.4846

                     31                     32                     33
                      A                      A                      A
 Frequencies --    605.8472               657.6412               662.4435
 Red. masses --      2.1608                 5.4628                 4.4781
 Frc consts  --      0.4673                 1.3920                 1.1578
 IR Inten    --     43.4933                20.1974                50.9379

                     34                     35                     36
                      A                      A                      A
 Frequencies --    670.3712               715.2191               717.7574
 Red. masses --      1.6960                 1.8778                 3.6336
 Frc consts  --      0.4491                 0.5659                 1.1029
 IR Inten    --    240.5889                28.4090                49.2935

                     37                     38                     39
                      A                      A                      A
 Frequencies --    750.3665               777.3713               808.1262
 Red. masses --      4.3305                 2.9497                 1.3177
 Frc consts  --      1.4366                 1.0502                 0.5070
 IR Inten    --     17.3622                 9.8888                11.6325

                     40                     41                     42
                      A                      A                      A
 Frequencies --    827.4180               838.1109               857.8568
 Red. masses --      1.6530                 1.7814                 1.4652
 Frc consts  --      0.6668                 0.7373                 0.6353
 IR Inten    --     20.3918                59.2638                23.6508

                     43                     44                     45
                      A                      A                      A
 Frequencies --    864.2348               895.2996               904.0045
 Red. masses --      4.3525                 7.0914                 2.2227
 Frc consts  --      1.9154                 3.3490                 1.0702
 IR Inten    --      0.7899                 8.2186                 3.2608

                     46                     47                     48
                      A                      A                      A
 Frequencies --    913.1123               937.1491               951.1444
 Red. masses --      1.4081                 1.2938                 2.4096
 Frc consts  --      0.6917                 0.6695                 1.2844
 IR Inten    --      1.3578                 0.6491                28.1462

                     49                     50                     51
                      A                      A                      A
 Frequencies --    969.8263               986.3493              1031.6600
 Red. masses --      3.2762                 3.9282                 2.5623
 Frc consts  --      1.8155                 2.2517                 1.6068
 IR Inten    --     14.7465                32.1057                 0.4456

                     52                     53                     54
                      A                      A                      A
 Frequencies --   1056.8066              1070.7151              1073.9466
 Red. masses --      1.6198                 1.9547                 1.5953
 Frc consts  --      1.0658                 1.3203                 1.0841
 IR Inten    --      4.4980                37.7528                 6.5297

                     55                     56                     57
                      A                      A                      A
 Frequencies --   1091.7407              1107.2810              1117.5793
 Red. masses --      2.3555                 1.4725                 2.2824
 Frc consts  --      1.6541                 1.0637                 1.6796
 IR Inten    --     13.6782                 5.8744                 4.2200

                     58                     59                     60
                      A                      A                      A
 Frequencies --   1164.9286              1190.4188              1209.4216
 Red. masses --      1.1784                 3.1938                 1.1484
 Frc consts  --      0.9422                 2.6666                 0.9897
 IR Inten    --      9.9871                78.1974                 1.2839

                     61                     62                     63
                      A                      A                      A
 Frequencies --   1214.2373              1220.4561              1241.4855
 Red. masses --      1.1830                 3.1716                 1.8199
 Frc consts  --      1.0276                 2.7834                 1.6527
 IR Inten    --      5.5232                23.6265                 7.0949

                     64                     65                     66
                      A                      A                      A
 Frequencies --   1242.4472              1290.1331              1315.5217
 Red. masses --      1.1794                 2.8902                 2.0713
 Frc consts  --      1.0727                 2.8343                 2.1119
 IR Inten    --      8.1200               299.7217                 1.5101

                     67                     68                     69
                      A                      A                      A
 Frequencies --   1319.5146              1336.4094              1350.6845
 Red. masses --      1.6890                 1.2873                 1.6829
 Frc consts  --      1.7326                 1.3545                 1.8089
 IR Inten    --      4.3722                27.9520                11.6767

                     70                     71                     72
                      A                      A                      A
 Frequencies --   1380.6175              1403.6995              1408.4515
 Red. masses --      2.9807                 1.4619                 2.1616
 Frc consts  --      3.3474                 1.6971                 2.5265
 IR Inten    --     17.5098                14.6107                75.9324

                     73                     74                     75
                      A                      A                      A
 Frequencies --   1442.0066              1444.2636              1473.8465
 Red. masses --      1.5030                 1.4972                 2.3906
 Frc consts  --      1.8414                 1.8400                 3.0595
 IR Inten    --      2.8834                64.8825                27.8763

                     76                     77                     78
                      A                      A                      A
 Frequencies --   1483.3603              1491.1803              1500.3613
 Red. masses --      1.1072                 2.8256                 1.0951
 Frc consts  --      1.4353                 3.7019                 1.4524
 IR Inten    --     11.3233                 1.5750                 9.9229

                     79                     80                     81
                      A                      A                      A
 Frequencies --   1502.6199              1507.2614              1542.7121
 Red. masses --      1.0628                 1.1430                 1.1493
 Frc consts  --      1.4138                 1.5299                 1.6116
 IR Inten    --      8.2037                35.6591                78.2813

                     82                     83                     84
                      A                      A                      A
 Frequencies --   1571.5070              1581.6417              1644.7374
 Red. masses --      2.4431                 4.9275                 6.3780
 Frc consts  --      3.5549                 7.2626                10.1655
 IR Inten    --    104.4972               511.4602                 3.5069

                     85                     86                     87
                      A                      A                      A
 Frequencies --   1645.9373              1683.7836              1699.0416
 Red. masses --      7.1251                 2.1562                 1.6978
 Frc consts  --     11.3728                 3.6017                 2.8877
 IR Inten    --    113.0146                24.8733                42.2932

                     88                     89                     90
                      A                      A                      A
 Frequencies --   1810.1233              3021.3510              3056.8134
 Red. masses --      9.0491                 1.0622                 1.0647
 Frc consts  --     17.4691                 5.7130                 5.8617
 IR Inten    --    687.2594                39.9728                15.0990

                     91                     92                     93
                      A                      A                      A
 Frequencies --   3072.4891              3078.0415              3095.8748
 Red. masses --      1.0354                 1.0976                 1.0678
 Frc consts  --      5.7591                 6.1270                 6.0299
 IR Inten    --      7.0116                48.6665                16.5412

                     94                     95                     96
                      A                      A                      A
 Frequencies --   3105.3213              3142.1220              3153.1750
 Red. masses --      1.0942                 1.0997                 1.1038
 Frc consts  --      6.2168                 6.3970                 6.4660
 IR Inten    --     22.3788                 9.4696                10.8520

                     97                     98                     99
                      A                      A                      A
 Frequencies --   3159.4892              3178.2200              3179.0550
 Red. masses --      1.1061                 1.0894                 1.0885
 Frc consts  --      6.5057                 6.4833                 6.4817
 IR Inten    --      0.8592                17.0894                23.1546

                    100                    101                    102
                      A                      A                      A
 Frequencies --   3213.6676              3228.7922              3240.5097
 Red. masses --      1.0929                 1.0911                 1.0922
 Frc consts  --      6.6500                 6.7016                 6.7575
 IR Inten    --      6.7984                 9.5202                 1.8176

                    103                    104                    105
                      A                      A                      A
 Frequencies --   3536.8659              3577.7564              3633.2941
 Red. masses --      1.0483                 1.0778                 1.0970
 Frc consts  --      7.7263                 8.1285                 8.5322
 IR Inten    --      7.9765                45.6487                 5.9386

 - Thermochemistry -
 -------------------
 Temperature   298.150 Kelvin.  Pressure   1.00000 Atm.
 Atom     1 has atomic number  6 and mass  12.00000

 Molecular mass:   291.10415 amu.
 Principal axes and moments of inertia in atomic units:
                           1         2         3
     Eigenvalues --  4290.143508132.30692**********
           X            0.99953  -0.03072   0.00021
           Y            0.03072   0.99951  -0.00662
           Z           -0.00001   0.00663   0.99998
 This molecule is an asymmetric top.
 Rotational symmetry number  1.
 Warning -- assumption of classical behavior for rotation
           may cause significant error
 Rotational temperatures (Kelvin)      0.02019     0.01065     0.00771
 Rotational constants (GHZ):           0.42067     0.22192     0.16075
 Zero-point vibrational energy     786997.8 (Joules/Mol)
                                  188.09700 (Kcal/Mol)
 Warning -- explicit consideration of  31 degrees of freedom as
           vibrations may cause significant error
 Vibrational temperatures:     15.98    52.41    61.86    95.61   109.24
          (Kelvin)            136.66   198.08   199.30   218.96   244.94
                              271.67   278.78   285.08   343.15   351.48
                              407.26   457.40   507.49   518.36   531.67
                              601.92   608.78   640.24   684.52   728.06
                              752.06   799.29   810.33   815.32   835.68
                              871.68   946.20   953.11   964.51  1029.04
                             1032.69  1079.61  1118.46  1162.71  1190.47
                             1205.85  1234.26  1243.44  1288.14  1300.66
                             1313.76  1348.35  1368.48  1395.36  1419.14
                             1484.33  1520.51  1540.52  1545.17  1570.77
                             1593.13  1607.95  1676.07  1712.75  1740.09
                             1747.02  1755.96  1786.22  1787.60  1856.21
                             1892.74  1898.49  1922.80  1943.33  1986.40
                             2019.61  2026.45  2074.73  2077.97  2120.54
                             2134.22  2145.48  2158.69  2161.93  2168.61
                             2219.62  2261.05  2275.63  2366.41  2368.14
                             2422.59  2444.54  2604.36  4347.05  4398.07
                             4420.63  4428.62  4454.27  4467.86  4520.81
                             4536.72  4545.80  4572.75  4573.95  4623.75
                             4645.51  4662.37  5088.76  5147.59  5227.50

 Zero-point correction=                           0.299752 (Hartree/Particle)
 Thermal correction to Energy=                    0.319001
 Thermal correction to Enthalpy=                  0.319945
 Thermal correction to Gibbs Free Energy=         0.250348
 Sum of electronic and zero-point Energies=          -1256.410902
 Sum of electronic and thermal Energies=             -1256.391652
 Sum of electronic and thermal Enthalpies=           -1256.390708
 Sum of electronic and thermal Free Energies=        -1256.460305

                     E (Thermal)             CV                S
                      KCal/Mol        Cal/Mol-Kelvin    Cal/Mol-Kelvin
 Total                  200.176             73.253            146.479
 Electronic               0.000              0.000              0.000
 Translational            0.889              2.981             42.903
 Rotational               0.889              2.981             34.326
 Vibrational            198.399             67.291             69.250
 Vibration     1          0.593              1.987              7.802
 Vibration     2          0.594              1.982              5.445
 Vibration     3          0.595              1.980              5.116
 Vibration     4          0.598              1.970              4.256
 Vibration     5          0.599              1.965              3.993
 Vibration     6          0.603              1.953              3.555
 Vibration     7          0.614              1.916              2.836
 Vibration     8          0.614              1.915              2.824
 Vibration     9          0.619              1.900              2.645
 Vibration    10          0.625              1.879              2.433
 Vibration    11          0.633              1.855              2.239
 Vibration    12          0.635              1.849              2.192
 Vibration    13          0.637              1.842              2.150
 Vibration    14          0.656              1.782              1.814
 Vibration    15          0.660              1.772              1.771
 Vibration    16          0.682              1.705              1.515
 Vibration    17          0.704              1.639              1.321
 Vibration    18          0.729              1.570              1.154
 Vibration    19          0.735              1.554              1.121
 Vibration    20          0.742              1.535              1.082
 Vibration    21          0.781              1.430              0.898
 Vibration    22          0.785              1.420              0.881
 Vibration    23          0.804              1.372              0.811
 Vibration    24          0.832              1.304              0.722
 Vibration    25          0.861              1.237              0.643
 Vibration    26          0.878              1.200              0.604
 Vibration    27          0.911              1.128              0.533
 Vibration    28          0.919              1.111              0.517
 Vibration    29          0.923              1.103              0.511
 Vibration    30          0.938              1.073              0.484
 Vibration    31          0.964              1.019              0.440

 Optimization completed.
    -- Stationary point found.
 Normal termination of Gaussian 16 at Sun Dec 13 21:41:22 2020.

 ----------------------------------------------------------------------
 # B3LYP/6-311++G(d,p) empiricaldispersion=gd3bj scf=xqc pop=npa geom=c
 heck
 ----------------------------------------------------------------------

 ----------------------------------------
 CID_135922162_JID_10449_Energie_neutraal
 ----------------------------------------
 Structure from the checkpoint file:  "JID_10449.chk"
 Charge =  0 Multiplicity = 1

 SCF Done:  E(RB3LYP) =  -1256.98210034     A.U. after   16 cycles
 Normal termination of Gaussian 16 at Sun Dec 13 21:50:44 2020.

 ----------------------------------------------------------------------
 # B3LYP/6-311++G(d,p) empiricaldispersion=gd3bj scf=xqc pop=npa geom=c
 heck
 ----------------------------------------------------------------------

 --------------------------------------
 CID_135922162_JID_10449_Energie_kation
 --------------------------------------
 Structure from the checkpoint file:  "JID_10449.chk"
 Charge =  1 Multiplicity = 2

 SCF Done:  E(UB3LYP) =  -1256.71613012     A.U. after   27 cycles
 Normal termination of Gaussian 16 at Sun Dec 13 22:13:17 2020.
 Gaussian 16:  ES64L-G16RevA.03 25-Dec-2016

 ----------------------------------------------------------------------
 # B3LYP/6-311++G(d,p) empiricaldispersion=gd3bj scf=xqc pop=npa geom=c
 heck
 ----------------------------------------------------------------------

 -------------------------------------
 CID_135922162_JID_10449_Energie_anion
 -------------------------------------
 Structure from the checkpoint file:  "JID_10449.chk"
 Charge = -1 Multiplicity = 2

                         Standard orientation:
 ---------------------------------------------------------------------
 Center     Atomic      Atomic             Coordinates (Angstroms)
 Number     Number       Type             X           Y           Z
 ---------------------------------------------------------------------
      1          6           0       -0.586851    1.793148   -1.381975
      2          6           0        0.766397    1.627968   -0.757908
      3          6           0        1.489704    2.692976   -0.297259
      4          6           0        2.781814    2.509558    0.319224
      5          8           0        3.534666    3.355055    0.780137
      6          7           0        3.159120    1.138985    0.353619
      7          6           0        2.382897    0.131909   -0.132054
      8          7           0        1.216568    0.321745   -0.670098
      9         16           0        3.115741   -1.480776    0.025407
     10          6           0        1.847141   -2.575913   -0.731740
     11          6           0        0.976398   -3.292774    0.303383
     12          6           0       -0.088926   -2.387372    0.900708
     13          8           0       -1.039466   -2.146489   -0.127608
     14          6           0       -1.988180   -1.181331    0.074180
     15          6           0       -2.877486   -0.965591   -0.985288
     16          6           0       -3.869872    0.000053   -0.890809
     17          6           0       -4.009218    0.781372    0.269676
     18          6           0       -3.122313    0.550782    1.327291
     19          6           0       -2.122386   -0.421377    1.238055
     20          7           0       -4.969705    1.805354    0.334904
     21          1           0       -1.363696    1.451052   -0.691371
     22          1           0       -0.782589    2.837705   -1.637278
     23          1           0       -0.665846    1.175138   -2.281282
     24          1           0        1.119695    3.707649   -0.378096
     25          1           0        4.068315    0.950618    0.763009
     26          1           0        1.241175   -1.948593   -1.389462
     27          1           0        2.415700   -3.287878   -1.335133
     28          1           0        0.473968   -4.135975   -0.186939
     29          1           0        1.598652   -3.705919    1.104945
     30          1           0       -0.578807   -2.866742    1.760552
     31          1           0        0.356252   -1.443691    1.238741
     32          1           0       -2.766479   -1.563272   -1.884361
     33          1           0       -4.543249    0.161657   -1.729241
     34          1           0       -3.207521    1.140979    2.236670
     35          1           0       -1.459056   -0.569701    2.081681
     36          1           0       -5.250133    2.042088    1.279521
     37          1           0       -5.786442    1.635736   -0.240581
 ---------------------------------------------------------------------

 SCF Done:  E(UB3LYP) =  -1256.97992020     A.U. after   33 cycles
 SCF Done:  E(UB3LYP) =  -1256.97992020     a.u. after    1 cycles

 The electronic state is 2-A.
 Alpha  occ. eigenvalues --  -88.76339 -19.05551 -18.96922 -14.24539 -14.21353
 Alpha  occ. eigenvalues --  -14.18972 -10.15558 -10.15522 -10.13765 -10.13052
 Alpha  occ. eigenvalues --  -10.11724 -10.11230 -10.09865 -10.08929 -10.07891
 Alpha  occ. eigenvalues --  -10.07688 -10.07601 -10.07510 -10.04736 -10.03760
 Alpha  occ. eigenvalues --   -7.85006  -5.81386  -5.80988  -5.80433  -0.97295
 Alpha  occ. eigenvalues --   -0.92679  -0.87158  -0.81751  -0.78377  -0.74871
 Alpha  occ. eigenvalues --   -0.73064  -0.68892  -0.65871  -0.65230  -0.62289
 Alpha  occ. eigenvalues --   -0.60372  -0.58574  -0.53983  -0.51910  -0.50407
 Alpha  occ. eigenvalues --   -0.50071  -0.48381  -0.45065  -0.44594  -0.41579
 Alpha  occ. eigenvalues --   -0.41215  -0.40476  -0.40224  -0.37576  -0.35804
 Alpha  occ. eigenvalues --   -0.35236  -0.34397  -0.33780  -0.32892  -0.32669
 Alpha  occ. eigenvalues --   -0.31750  -0.31418  -0.30562  -0.30164  -0.29629
 Alpha  occ. eigenvalues --   -0.28796  -0.28251  -0.27077  -0.26689  -0.26438
 Alpha  occ. eigenvalues --   -0.25884  -0.24753  -0.23698  -0.23330  -0.19274
 Alpha  occ. eigenvalues --   -0.18705  -0.16654  -0.16211  -0.16040  -0.14735
 Alpha  occ. eigenvalues --   -0.11619  -0.09919   0.04049
 Alpha virt. eigenvalues --    0.05378   0.06228   0.07394   0.07803   0.08019
 Alpha virt. eigenvalues --    0.08431   0.08496   0.09057   0.09835   0.10271
 Alpha virt. eigenvalues --    0.10669   0.10822   0.11278   0.11770   0.12007

  Beta  occ. eigenvalues --  -88.76338 -19.05549 -18.96894 -14.24361 -14.21290
  Beta  occ. eigenvalues --  -14.19086 -10.15500 -10.15196 -10.13764 -10.13048
  Beta  occ. eigenvalues --  -10.11724 -10.11227 -10.09861 -10.08622 -10.07889
  Beta  occ. eigenvalues --  -10.07686 -10.07586 -10.07498 -10.04758 -10.03656
  Beta  occ. eigenvalues --   -7.85005  -5.81395  -5.80995  -5.80415  -0.97290
  Beta  occ. eigenvalues --   -0.92535  -0.86870  -0.81680  -0.78138  -0.74842
  Beta  occ. eigenvalues --   -0.73005  -0.68642  -0.65793  -0.65153  -0.62233
  Beta  occ. eigenvalues --   -0.60193  -0.58454  -0.53877  -0.51839  -0.50262
  Beta  occ. eigenvalues --   -0.49840  -0.48336  -0.45028  -0.44430  -0.41539
  Beta  occ. eigenvalues --   -0.41145  -0.40438  -0.40057  -0.37500  -0.35754
  Beta  occ. eigenvalues --   -0.35180  -0.33819  -0.33487  -0.32852  -0.32565
  Beta  occ. eigenvalues --   -0.31698  -0.31310  -0.30494  -0.29929  -0.29577
  Beta  occ. eigenvalues --   -0.28710  -0.28184  -0.27040  -0.26570  -0.26350
  Beta  occ. eigenvalues --   -0.25370  -0.24731  -0.23660  -0.23264  -0.18817
  Beta  occ. eigenvalues --   -0.18283  -0.16690  -0.16191  -0.15637  -0.14655
  Beta  occ. eigenvalues --   -0.10946  -0.09881
  Beta virt. eigenvalues --    0.06124   0.06795   0.07537   0.07786   0.08234
  Beta virt. eigenvalues --    0.08423   0.08679   0.08808   0.09186   0.09801
  Beta virt. eigenvalues --    0.10490   0.10744   0.11077   0.11699   0.11868

 Mulliken charges and spin densities:
               1          2
     1  C   -0.266077  -0.045082
     2  C    0.127791   0.152458
     3  C   -0.195857   0.127566
     4  C   -0.053797   0.015801
     5  O   -0.412493   0.010338
     6  N   -0.177603   0.072689
     7  C   -0.301968   0.200532
     8  N    0.114023  -0.064295
     9  S   -0.267100   0.037611
    10  C   -0.288143   0.010462
    11  C   -0.523885  -0.025372
    12  C   -0.072827  -0.028630
    13  O   -0.013589   0.002206
    14  C   -0.292186  -0.343825
    15  C   -0.467445   0.309370
    16  C    0.436212  -0.350711
    17  C    0.368438  -0.982398
    18  C   -0.427408   0.357419
    19  C    0.703669  -0.254935
    20  N   -0.275989   0.038056
    21  H    0.093273   0.074289
    22  H    0.147477   0.006591
    23  H    0.123304  -0.002921
    24  H    0.176904  -0.005377
    25  H    0.307391  -0.001674
    26  H    0.207773   0.000584
    27  H    0.244790  -0.002263
    28  H    0.137305   0.005475
    29  H    0.128995   0.019013
    30  H    0.153390   0.005328
    31  H    0.101182  -0.006865
    32  H    0.147172   0.012565
    33  H   -0.132834   0.296782
    34  H   -0.133015   0.301840
    35  H    0.145249   0.011282
    36  H   -0.274188   0.516305
    37  H   -0.287937   0.529784
 Sum of Mulliken charges =  -1.00000   1.00000

 Dipole moment (field-independent basis, Debye):
    X=              4.5963    Y=             -9.4842    Z=             -1.0489  Tot=             10.5913
 Quadrupole moment (field-independent basis, Debye-Ang):
   XX=           -230.6708   YY=           -170.8147   ZZ=           -140.5819
   XY=             -2.6501   XZ=              2.1759   YZ=             -6.7165

 Summary of Natural Population Analysis:

                                       Natural Population
                Natural  -----------------------------------------------
    Atom  No    Charge         Core      Valence    Rydberg      Total
 -----------------------------------------------------------------------
      C    1   -0.30216      0.99963     2.29630    0.00623     3.30216
      C    2    0.17323      0.99952     1.81568    0.01156     2.82677
      C    3   -0.17217      0.99945     2.16513    0.00759     3.17217
      C    4    0.32463      0.99964     1.65414    0.02159     2.67537
      O    5   -0.33453      0.99988     3.32798    0.00668     4.33453
      N    6   -0.29051      0.99962     2.78003    0.01085     3.79051
      C    7    0.22391      0.99958     1.75892    0.01759     2.77609
      N    8   -0.31683      0.99961     2.80517    0.01205     3.81683
      S    9    0.09728      4.99955     2.88474    0.01843     7.90272
      C   10   -0.25041      0.99958     2.24166    0.00916     3.25041
      C   11   -0.20104      0.99961     2.19343    0.00799     3.20104
      C   12   -0.01390      0.99957     2.00408    0.01025     3.01390
      O   13   -0.28202      0.99985     3.27213    0.01004     4.28202
      C   14    0.14419      0.99937     1.84196    0.01447     2.85581
      C   15   -0.11217      0.99953     2.10295    0.00969     3.11217
      C   16   -0.11543      0.99952     2.10600    0.00991     3.11543
      C   17    0.07056      0.99948     1.91804    0.01191     2.92944
      C   18   -0.11718      0.99953     2.10751    0.01015     3.11718
      C   19   -0.13450      0.99952     2.12630    0.00867     3.13450
      N   20   -0.39700      0.99972     2.88650    0.01078     3.89700
      H   21    0.11652      0.00000     0.38177    0.00170     0.38348
      H   22    0.09775      0.00000     0.40163    0.00062     0.40225
      H   23    0.10418      0.00000     0.39499    0.00084     0.39582
      H   24    0.10360      0.00000     0.39549    0.00091     0.39640
      H   25    0.19728      0.00000     0.30120    0.00152     0.30272
      H   26    0.12974      0.00000     0.36894    0.00133     0.37026
      H   27    0.10089      0.00000     0.39803    0.00107     0.39911
      H   28    0.10086      0.00000     0.39781    0.00134     0.39914
      H   29    0.09957      0.00000     0.39933    0.00110     0.40043
      H   30    0.08110      0.00000     0.41765    0.00125     0.41890
      H   31    0.09531      0.00000     0.40297    0.00172     0.40469
      H   32    0.10328      0.00000     0.39576    0.00096     0.39672
      H   33    0.10026      0.00000     0.39886    0.00088     0.39974
      H   34    0.10081      0.00000     0.39824    0.00095     0.39919
      H   35    0.10338      0.00000     0.39540    0.00122     0.39662
      H   36    0.18566      0.00000     0.30981    0.00453     0.31434
      H   37    0.18585      0.00000     0.30880    0.00534     0.31415
 =======================================================================
   * Total *    0.00000     23.99177    52.75534    0.25289    77.00000

 Normal termination of Gaussian 16 at Sun Dec 13 22:40:46 2020.
