 Gaussian 16, Revision A.03,

 -----------------------------------------------------------
 # opt freq B3LYP/6-31G(d) empiricaldispersion=gd3bj scf=xqc
 -----------------------------------------------------------

 -------------------------------
 CID_131417642_JID_2427_neutraal
 -------------------------------
 Symbolic Z-matrix:
 Charge =  0 Multiplicity = 1

 SCF Done:  E(RB3LYP) =  -486.600188486     A.U. after   13 cycles
 SCF Done:  E(RB3LYP) =  -486.603947130     A.U. after   11 cycles
 SCF Done:  E(RB3LYP) =  -486.604176775     A.U. after   10 cycles
 SCF Done:  E(RB3LYP) =  -486.604355007     A.U. after   10 cycles
 SCF Done:  E(RB3LYP) =  -486.604417235     A.U. after    9 cycles
 SCF Done:  E(RB3LYP) =  -486.604414705     A.U. after    9 cycles
 SCF Done:  E(RB3LYP) =  -486.604419349     A.U. after    8 cycles
 SCF Done:  E(RB3LYP) =  -486.604419359     A.U. after    7 cycles
 SCF Done:  E(RB3LYP) =  -486.604420007     A.U. after    7 cycles
 SCF Done:  E(RB3LYP) =  -486.604418823     A.U. after    7 cycles
 SCF Done:  E(RB3LYP) =  -486.604419366     A.U. after    7 cycles
 SCF Done:  E(RB3LYP) =  -486.604419911     A.U. after    8 cycles
 SCF Done:  E(RB3LYP) =  -486.604419125     A.U. after    8 cycles
 Optimization completed.
    -- Stationary point found.
 Normal termination of Gaussian 16 at Wed Dec  9 17:30:25 2020.

 --------------------------------------------------------------------
 #N Geom=AllCheck Guess=TCheck SCRF=Check GenChk RB3LYP/6-31G(d) Freq
 --------------------------------------------------------------------

 Structure from the checkpoint file:  "JID_2427.chk"
 -------------------------------
 CID_131417642_JID_2427_neutraal
 -------------------------------
 Charge =  0 Multiplicity = 1

 SCF Done:  E(RB3LYP) =  -486.604419125     A.U. after    1 cycles

  Exact polarizability: 134.938   7.662 119.652  -3.157  -3.189 104.781
 Approx polarizability: 178.899  16.959 173.593  -2.356  -8.296 153.664

                      1                      2                      3
                      A                      A                      A
 Frequencies --     42.3929                84.4685               124.0327
 Red. masses --      3.1028                 3.5052                 2.7182
 Frc consts  --      0.0033                 0.0147                 0.0246
 IR Inten    --      1.2172                 0.1235                 0.9858

                      4                      5                      6
                      A                      A                      A
 Frequencies --    146.3818               157.1533               202.0009
 Red. masses --      2.0562                 2.4089                 2.6416
 Frc consts  --      0.0260                 0.0351                 0.0635
 IR Inten    --      5.8312                 3.6738                 3.8243

                      7                      8                      9
                      A                      A                      A
 Frequencies --    209.2819               228.3136               260.4188
 Red. masses --      1.6838                 1.9429                 2.6177
 Frc consts  --      0.0435                 0.0597                 0.1046
 IR Inten    --     25.2388                13.1774                 0.5372

                     10                     11                     12
                      A                      A                      A
 Frequencies --    291.6141               315.9692               374.4957
 Red. masses --      2.0718                 2.2260                 2.2114
 Frc consts  --      0.1038                 0.1309                 0.1827
 IR Inten    --     11.3624                 0.4561                 0.4716

                     13                     14                     15
                      A                      A                      A
 Frequencies --    378.1860               411.6717               444.0188
 Red. masses --      1.8323                 2.2010                 2.7162
 Frc consts  --      0.1544                 0.2198                 0.3155
 IR Inten    --      0.6005                 1.1943                 3.7417

                     16                     17                     18
                      A                      A                      A
 Frequencies --    464.1937               495.2495               551.7841
 Red. masses --      2.0438                 1.8285                 1.9561
 Frc consts  --      0.2595                 0.2642                 0.3509
 IR Inten    --      3.0428                 0.4610                 0.9458

                     19                     20                     21
                      A                      A                      A
 Frequencies --    631.3191               697.4513               774.1012
 Red. masses --      2.9301                 1.9952                 2.4171
 Frc consts  --      0.6881                 0.5718                 0.8534
 IR Inten    --      3.6858                 0.7335                 1.3519

                     22                     23                     24
                      A                      A                      A
 Frequencies --    778.1431               813.4486               825.9797
 Red. masses --      1.8296                 1.4400                 2.0351
 Frc consts  --      0.6527                 0.5614                 0.8180
 IR Inten    --      1.3465                 9.9228                 9.6111

                     25                     26                     27
                      A                      A                      A
 Frequencies --    852.8861               869.2986               882.9848
 Red. masses --      1.6256                 1.6120                 1.6938
 Frc consts  --      0.6967                 0.7177                 0.7781
 IR Inten    --     85.9582                39.4025                 1.3679

                     28                     29                     30
                      A                      A                      A
 Frequencies --    922.6457               933.1683               954.5653
 Red. masses --      1.5260                 1.7668                 2.0954
 Frc consts  --      0.7654                 0.9065                 1.1250
 IR Inten    --      5.7433                 5.6163                 1.8326

                     31                     32                     33
                      A                      A                      A
 Frequencies --    959.1301               991.4184              1026.7096
 Red. masses --      1.8853                 2.1521                 1.9949
 Frc consts  --      1.0218                 1.2463                 1.2390
 IR Inten    --      1.4863                 3.2882                 1.9528

                     34                     35                     36
                      A                      A                      A
 Frequencies --   1041.8077              1065.3221              1065.5799
 Red. masses --      2.2382                 2.1519                 1.8332
 Frc consts  --      1.4313                 1.4389                 1.2264
 IR Inten    --      1.3158                 2.0984                10.1019

                     37                     38                     39
                      A                      A                      A
 Frequencies --   1099.4123              1118.2213              1130.0223
 Red. masses --      2.2337                 2.1790                 1.9738
 Frc consts  --      1.5908                 1.6053                 1.4850
 IR Inten    --      2.8631                 2.5252                 2.0492

                     40                     41                     42
                      A                      A                      A
 Frequencies --   1141.6687              1158.6210              1183.3655
 Red. masses --      2.3694                 1.6130                 1.2202
 Frc consts  --      1.8196                 1.2757                 1.0068
 IR Inten    --      0.6310                 3.9662                 1.3623

                     43                     44                     45
                      A                      A                      A
 Frequencies --   1197.6063              1232.8655              1237.8005
 Red. masses --      1.2557                 1.3016                 1.2939
 Frc consts  --      1.0611                 1.1657                 1.1680
 IR Inten    --      0.9762                 4.8002                 0.3212

                     46                     47                     48
                      A                      A                      A
 Frequencies --   1250.7483              1272.9137              1307.0338
 Red. masses --      1.2773                 1.1865                 1.2356
 Frc consts  --      1.1773                 1.1327                 1.2436
 IR Inten    --      1.1070                 0.3513                 1.6645

                     49                     50                     51
                      A                      A                      A
 Frequencies --   1317.3938              1341.3143              1342.5040
 Red. masses --      1.1734                 1.1365                 1.2224
 Frc consts  --      1.1998                 1.2047                 1.2981
 IR Inten    --      2.1490                 1.1306                 5.3472

                     52                     53                     54
                      A                      A                      A
 Frequencies --   1357.6311              1373.8122              1377.8395
 Red. masses --      1.3148                 1.3387                 1.4179
 Frc consts  --      1.4279                 1.4886                 1.5860
 IR Inten    --      0.7165                 1.0926                 0.9688

                     55                     56                     57
                      A                      A                      A
 Frequencies --   1386.2399              1398.3003              1402.4899
 Red. masses --      1.3084                 1.3701                 1.3550
 Frc consts  --      1.4814                 1.5783                 1.5703
 IR Inten    --      4.2473                 2.0484                 5.0465

                     58                     59                     60
                      A                      A                      A
 Frequencies --   1416.9222              1421.9507              1424.6379
 Red. masses --      1.4184                 1.4495                 1.4379
 Frc consts  --      1.6778                 1.7268                 1.7194
 IR Inten    --      1.3259                 3.1526                 1.5689

                     61                     62                     63
                      A                      A                      A
 Frequencies --   1444.5157              1503.6230              1507.1788
 Red. masses --      1.4216                 1.1026                 1.0834
 Frc consts  --      1.7478                 1.4688                 1.4500
 IR Inten    --      8.3977                 5.2637                 0.7371

                     64                     65                     66
                      A                      A                      A
 Frequencies --   1508.9165              1517.4157              1520.0244
 Red. masses --      1.0846                 1.1046                 1.0912
 Frc consts  --      1.4550                 1.4985                 1.4854
 IR Inten    --      1.7099                 2.2038                 2.5248

                     67                     68                     69
                      A                      A                      A
 Frequencies --   1525.0120              1526.7664              1546.6616
 Red. masses --      1.0853                 1.0962                 1.0879
 Frc consts  --      1.4872                 1.5055                 1.5334
 IR Inten    --      1.3569                 9.9253                15.1141

                     70                     71                     72
                      A                      A                      A
 Frequencies --   1551.9464              1685.8181              1744.8617
 Red. masses --      1.0849                 1.0941                 6.6757
 Frc consts  --      1.5395                 1.8321                11.9748
 IR Inten    --      0.2388                20.7052                 0.1874

                     73                     74                     75
                      A                      A                      A
 Frequencies --   2957.3049              3014.9008              3022.3405
 Red. masses --      1.0736                 1.0620                 1.0672
 Frc consts  --      5.5323                 5.6876                 5.7437
 IR Inten    --     69.7446                24.2235                26.6320

                     76                     77                     78
                      A                      A                      A
 Frequencies --   3024.1492              3034.4658              3037.5827
 Red. masses --      1.0627                 1.0669                 1.0695
 Frc consts  --      5.7263                 5.7879                 5.8140
 IR Inten    --     10.3916                17.4549                51.7145

                     79                     80                     81
                      A                      A                      A
 Frequencies --   3040.3054              3043.1546              3049.1724
 Red. masses --      1.0663                 1.0690                 1.0849
 Frc consts  --      5.8073                 5.8325                 5.9428
 IR Inten    --     28.1351                67.6652                13.6533

                     82                     83                     84
                      A                      A                      A
 Frequencies --   3050.1253              3062.7069              3064.4178
 Red. masses --      1.0752                 1.1004                 1.0876
 Frc consts  --      5.8933                 6.0813                 6.0176
 IR Inten    --     36.8692                29.6799                75.6965

                     85                     86                     87
                      A                      A                      A
 Frequencies --   3074.7198              3079.6332              3083.8672
 Red. masses --      1.1013                 1.0997                 1.0973
 Frc consts  --      6.1345                 6.1450                 6.1482
 IR Inten    --     20.7216                53.6396                62.4402

                     88                     89                     90
                      A                      A                      A
 Frequencies --   3090.6735              3094.8533              3119.7677
 Red. masses --      1.0942                 1.0959                 1.0880
 Frc consts  --      6.1581                 6.1846                 6.2389
 IR Inten    --     81.7652                27.9577                19.3342

                     91                     92                     93
                      A                      A                      A
 Frequencies --   3139.6794              3474.3995              3561.9886
 Red. masses --      1.0889                 1.0491                 1.0923
 Frc consts  --      6.3244                 7.4612                 8.1657
 IR Inten    --     45.7582                 2.8373                 0.6823

 - Thermochemistry -
 -------------------
 Temperature   298.150 Kelvin.  Pressure   1.00000 Atm.
 Atom     1 has atomic number  6 and mass  12.00000

 Molecular mass:   167.16740 amu.
 Principal axes and moments of inertia in atomic units:
                           1         2         3
     Eigenvalues --  1524.332512706.775472936.77191
           X            0.99995   0.00816  -0.00527
           Y           -0.00826   0.99978  -0.01950
           Z            0.00511   0.01954   0.99980
 This molecule is an asymmetric top.
 Rotational symmetry number  1.
 Warning -- assumption of classical behavior for rotation
           may cause significant error
 Rotational temperatures (Kelvin)      0.05682     0.03200     0.02949
 Rotational constants (GHZ):           1.18396     0.66675     0.61453
 Zero-point vibrational energy     812634.3 (Joules/Mol)
                                  194.22427 (Kcal/Mol)
 Warning -- explicit consideration of  18 degrees of freedom as
           vibrations may cause significant error
 Vibrational temperatures:     60.99   121.53   178.46   210.61   226.11
          (Kelvin)            290.63   301.11   328.49   374.68   419.57
                              454.61   538.82   544.13   592.30   638.84
                              667.87   712.55   793.89   908.33  1003.48
                             1113.76  1119.57  1170.37  1188.40  1227.11
                             1250.73  1270.42  1327.48  1342.62  1373.41
                             1379.97  1426.43  1477.21  1498.93  1532.76
                             1533.13  1581.81  1608.87  1625.85  1642.61
                             1667.00  1702.60  1723.09  1773.82  1780.92
                             1799.55  1831.44  1880.53  1895.44  1929.85
                             1931.56  1953.33  1976.61  1982.40  1994.49
                             2011.84  2017.87  2038.63  2045.87  2049.74
                             2078.34  2163.38  2168.49  2170.99  2183.22
                             2186.98  2194.15  2196.68  2225.30  2232.90
                             2425.52  2510.47  4254.90  4337.77  4348.47
                             4351.08  4365.92  4370.40  4374.32  4378.42
                             4387.08  4388.45  4406.55  4409.01  4423.84
                             4430.91  4437.00  4446.79  4452.80  4488.65
                             4517.30  4998.89  5124.91

 Zero-point correction=                           0.309516 (Hartree/Particle)
 Thermal correction to Energy=                    0.322222
 Thermal correction to Enthalpy=                  0.323166
 Thermal correction to Gibbs Free Energy=         0.271145
 Sum of electronic and zero-point Energies=           -486.294903
 Sum of electronic and thermal Energies=              -486.282197
 Sum of electronic and thermal Enthalpies=            -486.281253
 Sum of electronic and thermal Free Energies=         -486.333274

                     E (Thermal)             CV                S
                      KCal/Mol        Cal/Mol-Kelvin    Cal/Mol-Kelvin
 Total                  202.197             49.984            109.489
 Electronic               0.000              0.000              0.000
 Translational            0.889              2.981             41.250
 Rotational               0.889              2.981             30.872
 Vibrational            200.420             44.023             37.367
 Vibration     1          0.595              1.980              5.144
 Vibration     2          0.601              1.960              3.784
 Vibration     3          0.610              1.929              3.037
 Vibration     4          0.617              1.907              2.719
 Vibration     5          0.621              1.895              2.584
 Vibration     6          0.639              1.837              2.115
 Vibration     7          0.642              1.827              2.050
 Vibration     8          0.651              1.798              1.892
 Vibration     9          0.668              1.745              1.659
 Vibration    10          0.687              1.689              1.465
 Vibration    11          0.703              1.643              1.331
 Vibration    12          0.746              1.524              1.061
 Vibration    13          0.748              1.517              1.046
 Vibration    14          0.776              1.445              0.921
 Vibration    15          0.804              1.374              0.814
 Vibration    16          0.822              1.329              0.754
 Vibration    17          0.851              1.261              0.670
 Vibration    18          0.907              1.136              0.540

 Optimization completed.
    -- Stationary point found.
 Normal termination of Gaussian 16 at Wed Dec  9 17:39:54 2020.

 ----------------------------------------------------------------------
 # B3LYP/6-311++G(d,p) empiricaldispersion=gd3bj scf=xqc pop=npa geom=c
 heck
 ----------------------------------------------------------------------

 ---------------------------------------
 CID_131417642_JID_2427_Energie_neutraal
 ---------------------------------------
 Structure from the checkpoint file:  "JID_2427.chk"
 Charge =  0 Multiplicity = 1

 SCF Done:  E(RB3LYP) =  -486.745118674     A.U. after   13 cycles
 Normal termination of Gaussian 16 at Wed Dec  9 17:44:49 2020.

 ----------------------------------------------------------------------
 # B3LYP/6-311++G(d,p) empiricaldispersion=gd3bj scf=xqc pop=npa geom=c
 heck
 ----------------------------------------------------------------------

 -------------------------------------
 CID_131417642_JID_2427_Energie_kation
 -------------------------------------
 Structure from the checkpoint file:  "JID_2427.chk"
 Charge =  1 Multiplicity = 2

 SCF Done:  E(UB3LYP) =  -486.443205351     A.U. after   19 cycles
 Normal termination of Gaussian 16 at Wed Dec  9 17:53:41 2020.
 Gaussian 16:  ES64L-G16RevA.03 25-Dec-2016

 ----------------------------------------------------------------------
 # B3LYP/6-311++G(d,p) empiricaldispersion=gd3bj scf=xqc pop=npa geom=c
 heck
 ----------------------------------------------------------------------

 ------------------------------------
 CID_131417642_JID_2427_Energie_anion
 ------------------------------------
 Structure from the checkpoint file:  "JID_2427.chk"
 Charge = -1 Multiplicity = 2

                         Standard orientation:
 ---------------------------------------------------------------------
 Center     Atomic      Atomic             Coordinates (Angstroms)
 Number     Number       Type             X           Y           Z
 ---------------------------------------------------------------------
      1          6           0       -2.267112    1.155634    0.757257
      2          6           0       -1.797464   -0.189137    1.329254
      3          6           0       -2.145562   -1.453252    0.531290
      4          6           0       -1.310367   -1.691307   -0.750152
      5          6           0        0.168212   -1.624338   -0.496466
      6          6           0        0.992093   -0.616271   -0.818998
      7          6           0        0.546676    0.636872   -1.552509
      8          6           0       -0.157355    1.730613   -0.701816
      9          6           0       -1.698938    1.619121   -0.594867
     10          6           0        2.465335   -0.683210   -0.470239
     11          6           0        2.917276    0.410081    0.508910
     12          7           0        2.304806    0.195572    1.821607
     13          1           0       -2.035149    1.930052    1.502634
     14          1           0       -3.363485    1.137690    0.676440
     15          1           0       -0.713076   -0.163788    1.486806
     16          1           0       -2.241254   -0.287496    2.328685
     17          1           0       -3.211818   -1.443931    0.265352
     18          1           0       -2.001938   -2.318345    1.192438
     19          1           0       -1.597892   -0.974471   -1.523177
     20          1           0       -1.569581   -2.685479   -1.139646
     21          1           0        0.591108   -2.473209    0.042891
     22          1           0       -0.114118    0.372990   -2.387665
     23          1           0        1.435434    1.087463   -2.010513
     24          1           0        0.081378    2.697167   -1.161126
     25          1           0        0.288214    1.760632    0.300471
     26          1           0       -2.077137    0.980923   -1.401136
     27          1           0       -2.130825    2.609085   -0.789979
     28          1           0        2.704939   -1.658168   -0.031929
     29          1           0        3.057711   -0.579496   -1.391266
     30          1           0        4.006088    0.350249    0.628242
     31          1           0        2.703476    1.400126    0.067229
     32          1           0        2.483199    0.992151    2.430073
     33          1           0        1.294317    0.128008    1.713940
 ---------------------------------------------------------------------

 SCF Done:  E(UB3LYP) =  -486.728428005     A.U. after   33 cycles
 SCF Done:  E(UB3LYP) =  -486.728428005     a.u. after    1 cycles

 The electronic state is 2-A.
 Alpha  occ. eigenvalues --  -14.18602 -10.08664 -10.07073 -10.06800 -10.06732
 Alpha  occ. eigenvalues --  -10.06508 -10.06491 -10.06069 -10.05925 -10.05887
 Alpha  occ. eigenvalues --  -10.05885 -10.05855  -0.77974  -0.72707  -0.69218
 Alpha  occ. eigenvalues --   -0.67884  -0.63377  -0.59727  -0.58588  -0.52133
 Alpha  occ. eigenvalues --   -0.50814  -0.48068  -0.44846  -0.41613  -0.38980
 Alpha  occ. eigenvalues --   -0.38606  -0.36373  -0.35679  -0.34425  -0.33312
 Alpha  occ. eigenvalues --   -0.32580  -0.30797  -0.29899  -0.28871  -0.28207
 Alpha  occ. eigenvalues --   -0.27002  -0.26371  -0.25819  -0.24933  -0.24257
 Alpha  occ. eigenvalues --   -0.23235  -0.21489  -0.20898  -0.20800  -0.20063
 Alpha  occ. eigenvalues --   -0.14249  -0.13411   0.04693
 Alpha virt. eigenvalues --    0.06522   0.07206   0.07441   0.08694   0.09024
 Alpha virt. eigenvalues --    0.09363   0.09633   0.10301   0.11131   0.11375
 Alpha virt. eigenvalues --    0.11887   0.12111   0.12625   0.12903   0.13492

  Beta  occ. eigenvalues --  -14.18579 -10.08641 -10.07080 -10.06791 -10.06718
  Beta  occ. eigenvalues --  -10.06498 -10.06475 -10.06043 -10.05914 -10.05865
  Beta  occ. eigenvalues --  -10.05862 -10.05839  -0.77935  -0.72677  -0.69189
  Beta  occ. eigenvalues --   -0.67847  -0.63339  -0.59682  -0.58548  -0.52082
  Beta  occ. eigenvalues --   -0.50757  -0.48014  -0.44789  -0.41575  -0.38947
  Beta  occ. eigenvalues --   -0.38567  -0.36322  -0.35649  -0.34390  -0.33266
  Beta  occ. eigenvalues --   -0.32550  -0.30762  -0.29867  -0.28845  -0.28171
  Beta  occ. eigenvalues --   -0.26970  -0.26334  -0.25790  -0.24902  -0.24213
  Beta  occ. eigenvalues --   -0.23200  -0.21458  -0.20867  -0.20761  -0.20030
  Beta  occ. eigenvalues --   -0.14203  -0.13358
  Beta virt. eigenvalues --    0.06773   0.07270   0.07894   0.08060   0.09284
  Beta virt. eigenvalues --    0.09464   0.09825   0.10089   0.10599   0.11364
  Beta virt. eigenvalues --    0.11792   0.12254   0.12459   0.13001   0.13244

 Mulliken charges and spin densities:
               1          2
     1  C    0.945471  -1.790470
     2  C   -0.395710   0.563224
     3  C    0.321268  -0.934629
     4  C    0.015287  -0.089439
     5  C   -0.732814   0.455863
     6  C    0.358615   0.333766
     7  C   -0.380416  -0.455574
     8  C   -0.085180  -0.066820
     9  C    0.346337  -0.423952
    10  C   -0.039231  -0.499771
    11  C    0.986181  -1.356374
    12  N   -0.471576   0.063354
    13  H   -0.398468   0.557134
    14  H   -0.029965   0.154805
    15  H   -0.203679   0.315326
    16  H   -0.277309   0.473567
    17  H   -0.103330   0.247159
    18  H    0.050122   0.093124
    19  H    0.207557  -0.102493
    20  H   -0.074293   0.241937
    21  H   -0.070393   0.238845
    22  H   -0.097628   0.248404
    23  H   -0.014729   0.181690
    24  H   -0.553566   0.731005
    25  H    0.245224  -0.080120
    26  H    0.011017   0.088886
    27  H   -0.211758   0.391758
    28  H    0.121284   0.026059
    29  H   -0.140864   0.292242
    30  H   -0.361893   0.534140
    31  H   -0.246518   0.375535
    32  H   -0.146034   0.395412
    33  H    0.426991  -0.203591
 Sum of Mulliken charges =  -1.00000   1.00000

 Dipole moment (field-independent basis, Debye):
    X=             -1.3816    Y=             -4.1596    Z=             -2.0579  Tot=              4.8421
 Quadrupole moment (field-independent basis, Debye-Ang):
   XX=           -136.6176   YY=           -126.5678   ZZ=           -118.9920
   XY=              0.0593   XZ=              1.9654   YZ=              1.1192

 Summary of Natural Population Analysis:

                                       Natural Population
                Natural  -----------------------------------------------
    Atom  No    Charge         Core      Valence    Rydberg      Total
 -----------------------------------------------------------------------
      C    1   -0.18473      0.99962     2.17642    0.00869     3.18473
      C    2   -0.19354      0.99961     2.18524    0.00869     3.19354
      C    3   -0.18281      0.99962     2.17524    0.00795     3.18281
      C    4   -0.20680      0.99961     2.19892    0.00827     3.20680
      C    5   -0.09135      0.99944     2.08265    0.00926     3.09135
      C    6   -0.00690      0.99946     1.99607    0.01136     3.00690
      C    7   -0.20702      0.99958     2.19740    0.01004     3.20702
      C    8   -0.19220      0.99961     2.18265    0.00994     3.19220
      C    9   -0.19020      0.99962     2.18173    0.00885     3.19020
      C   10   -0.20190      0.99958     2.19197    0.01035     3.20190
      C   11   -0.08670      0.99963     2.07631    0.01075     3.08670
      N   12   -0.42436      0.99977     2.91397    0.01062     3.92436
      H   13    0.09717      0.00000     0.40120    0.00162     0.40283
      H   14    0.09348      0.00000     0.40527    0.00126     0.40652
      H   15    0.09308      0.00000     0.40462    0.00230     0.40692
      H   16    0.09897      0.00000     0.39984    0.00120     0.40103
      H   17    0.09408      0.00000     0.40483    0.00109     0.40592
      H   18    0.09430      0.00000     0.40459    0.00110     0.40570
      H   19    0.09739      0.00000     0.40088    0.00173     0.40261
      H   20    0.09817      0.00000     0.40087    0.00096     0.40183
      H   21    0.09248      0.00000     0.40630    0.00123     0.40752
      H   22    0.10019      0.00000     0.39862    0.00118     0.39981
      H   23    0.10207      0.00000     0.39632    0.00161     0.39793
      H   24    0.10088      0.00000     0.39732    0.00180     0.39912
      H   25    0.09594      0.00000     0.40139    0.00267     0.40406
      H   26    0.08953      0.00000     0.40898    0.00149     0.41047
      H   27    0.10007      0.00000     0.39857    0.00135     0.39993
      H   28    0.10057      0.00000     0.39815    0.00128     0.39943
      H   29    0.10077      0.00000     0.39800    0.00123     0.39923
      H   30    0.08944      0.00000     0.40917    0.00140     0.41056
      H   31    0.08020      0.00000     0.41756    0.00224     0.41980
      H   32    0.17628      0.00000     0.32187    0.00185     0.32372
      H   33    0.17346      0.00000     0.32359    0.00295     0.32654
 =======================================================================
   * Total *   -0.00000     11.99515    34.85654    0.14831    47.00000

 Normal termination of Gaussian 16 at Wed Dec  9 18:05:49 2020.
