 Gaussian 16, Revision A.03,

 -----------------------------------------------------------
 # opt freq B3LYP/6-31G(d) empiricaldispersion=gd3bj scf=xqc
 -----------------------------------------------------------

 -------------------------------
 CID_114742755_JID_7374_neutraal
 -------------------------------
 Symbolic Z-matrix:
 Charge =  0 Multiplicity = 1

 SCF Done:  E(RB3LYP) =  -747.566178126     A.U. after   14 cycles
 SCF Done:  E(RB3LYP) =  -747.571832515     A.U. after   12 cycles
 SCF Done:  E(RB3LYP) =  -747.573040032     A.U. after   12 cycles
 SCF Done:  E(RB3LYP) =  -747.573798288     A.U. after   12 cycles
 SCF Done:  E(RB3LYP) =  -747.574627703     A.U. after   12 cycles
 SCF Done:  E(RB3LYP) =  -747.575609039     A.U. after   12 cycles
 SCF Done:  E(RB3LYP) =  -747.575383543     A.U. after   14 cycles
 SCF Done:  E(RB3LYP) =  -747.576020584     A.U. after   12 cycles
 SCF Done:  E(RB3LYP) =  -747.576078400     A.U. after   11 cycles
 SCF Done:  E(RB3LYP) =  -747.576105319     A.U. after   10 cycles
 SCF Done:  E(RB3LYP) =  -747.576333540     A.U. after    9 cycles
 SCF Done:  E(RB3LYP) =  -747.576335706     A.U. after   10 cycles
 SCF Done:  E(RB3LYP) =  -747.576336187     A.U. after    9 cycles
 SCF Done:  E(RB3LYP) =  -747.576336238     A.U. after    6 cycles
 SCF Done:  E(RB3LYP) =  -747.576336253     A.U. after    6 cycles
 Optimization completed.
    -- Stationary point found.
 Normal termination of Gaussian 16 at Fri Dec 11 12:32:17 2020.

 --------------------------------------------------------------------
 #N Geom=AllCheck Guess=TCheck SCRF=Check GenChk RB3LYP/6-31G(d) Freq
 --------------------------------------------------------------------

 Structure from the checkpoint file:  "JID_7374.chk"
 -------------------------------
 CID_114742755_JID_7374_neutraal
 -------------------------------
 Charge =  0 Multiplicity = 1

 SCF Done:  E(RB3LYP) =  -747.576336253     A.U. after    1 cycles

  Exact polarizability: 181.671   1.888 166.237 -10.862   4.425 120.891
 Approx polarizability: 247.697   0.168 249.064 -23.153   9.796 181.518

                      1                      2                      3
                      A                      A                      A
 Frequencies --      9.1377                29.8061                40.8219
 Red. masses --      2.7545                 3.7155                 4.3467
 Frc consts  --      0.0001                 0.0019                 0.0043
 IR Inten    --      0.0670                 0.2778                 0.6554

                      4                      5                      6
                      A                      A                      A
 Frequencies --     79.4456                89.2243               107.9572
 Red. masses --      2.9618                 2.8439                 2.9483
 Frc consts  --      0.0110                 0.0133                 0.0202
 IR Inten    --      1.0261                 1.5319                 0.6560

                      7                      8                      9
                      A                      A                      A
 Frequencies --    136.5215               159.9422               186.8946
 Red. masses --      2.6919                 2.7895                 2.6700
 Frc consts  --      0.0296                 0.0420                 0.0549
 IR Inten    --      1.9698                 0.3434                 1.2230

                     10                     11                     12
                      A                      A                      A
 Frequencies --    220.8464               228.5851               238.6151
 Red. masses --      3.3020                 1.0777                 1.2862
 Frc consts  --      0.0949                 0.0332                 0.0431
 IR Inten    --      1.4531                 0.0992                 2.0233

                     13                     14                     15
                      A                      A                      A
 Frequencies --    253.8416               269.7027               295.6040
 Red. masses --      1.4612                 1.6879                 3.2242
 Frc consts  --      0.0555                 0.0723                 0.1660
 IR Inten    --      1.8859                 0.1685                 1.8938

                     16                     17                     18
                      A                      A                      A
 Frequencies --    319.7749               328.2485               364.1900
 Red. masses --      3.1304                 2.4870                 2.5938
 Frc consts  --      0.1886                 0.1579                 0.2027
 IR Inten    --      0.8135                 0.8997                 0.2733

                     19                     20                     21
                      A                      A                      A
 Frequencies --    382.9305               404.0588               446.2412
 Red. masses --      2.2747                 2.8186                 3.1957
 Frc consts  --      0.1965                 0.2711                 0.3749
 IR Inten    --      3.1056                 2.5952                 3.2330

                     22                     23                     24
                      A                      A                      A
 Frequencies --    465.9089               491.7295               515.1718
 Red. masses --      3.8309                 2.8157                 2.9265
 Frc consts  --      0.4899                 0.4011                 0.4576
 IR Inten    --      2.4372                10.9821                 9.6724

                     25                     26                     27
                      A                      A                      A
 Frequencies --    576.4736               593.6206               607.6798
 Red. masses --      3.4386                 3.7463                 3.4967
 Frc consts  --      0.6733                 0.7778                 0.7608
 IR Inten    --     21.1212                 2.7445                 0.5942

                     28                     29                     30
                      A                      A                      A
 Frequencies --    668.3594               690.7329               754.3644
 Red. masses --      2.6893                 3.7703                 3.9845
 Frc consts  --      0.7078                 1.0599                 1.3359
 IR Inten    --     32.2484                 1.0691                 1.9188

                     31                     32                     33
                      A                      A                      A
 Frequencies --    800.9428               835.0959               850.8368
 Red. masses --      2.7593                 2.0923                 3.1661
 Frc consts  --      1.0429                 0.8597                 1.3504
 IR Inten    --      7.1804                62.8124                14.0313

                     34                     35                     36
                      A                      A                      A
 Frequencies --    863.0387               917.7452               935.5253
 Red. masses --      3.0758                 2.5018                 2.2476
 Frc consts  --      1.3498                 1.2415                 1.1590
 IR Inten    --      2.4678                 2.9256                 1.8481

                     37                     38                     39
                      A                      A                      A
 Frequencies --    945.0606               950.1918               981.1235
 Red. masses --      1.3825                 2.2735                 1.5337
 Frc consts  --      0.7275                 1.2094                 0.8698
 IR Inten    --      5.0183                 4.2055                 0.5152

                     40                     41                     42
                      A                      A                      A
 Frequencies --    987.4712               998.4524              1016.4785
 Red. masses --      3.0690                 2.7411                 2.0919
 Frc consts  --      1.7632                 1.6100                 1.2735
 IR Inten    --     17.6885                23.2305                14.4285

                     43                     44                     45
                      A                      A                      A
 Frequencies --   1026.9633              1047.4940              1078.4571
 Red. masses --      2.0467                 2.1321                 2.1117
 Frc consts  --      1.2718                 1.3784                 1.4471
 IR Inten    --      9.4879                 4.5697                15.9437

                     46                     47                     48
                      A                      A                      A
 Frequencies --   1099.3377              1128.8842              1134.0503
 Red. masses --      2.0134                 2.0421                 2.0415
 Frc consts  --      1.4337                 1.5333                 1.5469
 IR Inten    --      2.0369                 3.0726                 7.9580

                     49                     50                     51
                      A                      A                      A
 Frequencies --   1159.7146              1174.7311              1191.5106
 Red. masses --      3.5154                 3.0632                 1.3090
 Frc consts  --      2.7856                 2.4906                 1.0949
 IR Inten    --     80.6720                15.9867                 3.4203

                     52                     53                     54
                      A                      A                      A
 Frequencies --   1201.4675              1202.7904              1211.3866
 Red. masses --      2.8748                 1.8875                 1.5273
 Frc consts  --      2.4450                 1.6089                 1.3205
 IR Inten    --      0.4966                 4.6846                 6.3681

                     55                     56                     57
                      A                      A                      A
 Frequencies --   1218.0522              1243.2283              1255.6954
 Red. masses --      1.1439                 1.5716                 1.5227
 Frc consts  --      0.9999                 1.4312                 1.4146
 IR Inten    --      3.1676                16.0484                22.8848

                     58                     59                     60
                      A                      A                      A
 Frequencies --   1275.5824              1299.2760              1320.2472
 Red. masses --      2.1515                 1.3315                 1.5152
 Frc consts  --      2.0625                 1.3243                 1.5561
 IR Inten    --      9.3554                 6.7289                 2.9766

                     61                     62                     63
                      A                      A                      A
 Frequencies --   1339.4059              1353.3448              1364.5462
 Red. masses --      1.3812                 1.5184                 1.3917
 Frc consts  --      1.4599                 1.6386                 1.5267
 IR Inten    --      3.1926                 8.3514                17.3620

                     64                     65                     66
                      A                      A                      A
 Frequencies --   1372.4953              1384.8997              1405.2885
 Red. masses --      1.4973                 1.6525                 2.1515
 Frc consts  --      1.6618                 1.8674                 2.5034
 IR Inten    --     38.1451                 8.5763                17.0625

                     67                     68                     69
                      A                      A                      A
 Frequencies --   1418.2651              1420.3109              1429.0631
 Red. masses --      1.3916                 1.4631                 1.5123
 Frc consts  --      1.6492                 1.7389                 1.8196
 IR Inten    --     14.7097                20.4122                11.7882

                     70                     71                     72
                      A                      A                      A
 Frequencies --   1445.1530              1454.9214              1464.9863
 Red. masses --      1.4094                 2.7863                 2.4746
 Frc consts  --      1.7343                 3.4751                 3.1292
 IR Inten    --      4.3206                60.9194                39.3871

                     73                     74                     75
                      A                      A                      A
 Frequencies --   1491.8340              1498.3516              1499.2162
 Red. masses --      1.2076                 1.1126                 1.1762
 Frc consts  --      1.5835                 1.4717                 1.5576
 IR Inten    --     17.5730                 1.3617                 0.6639

                     76                     77                     78
                      A                      A                      A
 Frequencies --   1505.7875              1511.6315              1514.2790
 Red. masses --      1.2895                 1.1062                 1.0426
 Frc consts  --      1.7226                 1.4893                 1.4085
 IR Inten    --      5.7398                 7.1760                 0.7444

                     79                     80                     81
                      A                      A                      A
 Frequencies --   1517.7074              1522.8189              1528.0696
 Red. masses --      1.0657                 1.0519                 1.1182
 Frc consts  --      1.4463                 1.4371                 1.5384
 IR Inten    --      9.1864                 3.5443                 2.5028

                     82                     83                     84
                      A                      A                      A
 Frequencies --   1529.6563              1535.4780              1543.8389
 Red. masses --      1.0521                 1.1274                 1.0710
 Frc consts  --      1.4504                 1.5661                 1.5040
 IR Inten    --      9.9547                 4.9986                 7.5046

                     85                     86                     87
                      A                      A                      A
 Frequencies --   1545.1026              1609.4819              1620.2670
 Red. masses --      1.0597                 7.1590                 8.7972
 Frc consts  --      1.4906                10.9264                13.6072
 IR Inten    --      7.7572               165.9549               104.1910

                     88                     89                     90
                      A                      A                      A
 Frequencies --   2923.2275              2931.2920              3005.9279
 Red. masses --      1.0741                 1.0732                 1.0396
 Frc consts  --      5.4080                 5.4330                 5.5345
 IR Inten    --     35.7753               105.7106                44.5270

                     91                     92                     93
                      A                      A                      A
 Frequencies --   3021.5511              3041.6599              3041.8754
 Red. masses --      1.0656                 1.0619                 1.0691
 Frc consts  --      5.7319                 5.7883                 5.8282
 IR Inten    --     35.5937                16.9072                15.7618

                     94                     95                     96
                      A                      A                      A
 Frequencies --   3047.5945              3054.7494              3067.3448
 Red. masses --      1.0344                 1.0377                 1.0989
 Frc consts  --      5.6603                 5.7054                 6.0917
 IR Inten    --     29.7760                22.6992                40.4583

                     97                     98                     99
                      A                      A                      A
 Frequencies --   3071.2073              3084.3797              3096.9893
 Red. masses --      1.0847                 1.0983                 1.0867
 Frc consts  --      6.0281                 6.1560                 6.1408
 IR Inten    --     18.0519                23.9788                24.6540

                    100                    101                    102
                      A                      A                      A
 Frequencies --   3098.1809              3102.1427              3114.0123
 Red. masses --      1.0897                 1.0980                 1.1030
 Frc consts  --      6.1626                 6.2256                 6.3020
 IR Inten    --     38.2027                50.8047                21.1639

                    103                    104                    105
                      A                      A                      A
 Frequencies --   3117.0884              3126.1695              3129.0736
 Red. masses --      1.1024                 1.0999                 1.1026
 Frc consts  --      6.3109                 6.3332                 6.3608
 IR Inten    --     52.4800                51.2072                20.9125

                    106                    107                    108
                      A                      A                      A
 Frequencies --   3130.7598              3148.1457              3515.9057
 Red. masses --      1.0945                 1.1005                 1.0749
 Frc consts  --      6.3206                 6.4259                 7.8288
 IR Inten    --     12.6315                22.0989                 0.6040

 - Thermochemistry -
 -------------------
 Temperature   298.150 Kelvin.  Pressure   1.00000 Atm.
 Atom     1 has atomic number  6 and mass  12.00000

 Molecular mass:   235.16846 amu.
 Principal axes and moments of inertia in atomic units:
                           1         2         3
     Eigenvalues --  3055.640225032.396826893.51227
           X            0.99998   0.00573   0.00192
           Y           -0.00574   0.99998   0.00212
           Z           -0.00191  -0.00213   1.00000
 This molecule is an asymmetric top.
 Rotational symmetry number  1.
 Warning -- assumption of classical behavior for rotation
           may cause significant error
 Rotational temperatures (Kelvin)      0.02835     0.01721     0.01256
 Rotational constants (GHZ):           0.59063     0.35862     0.26180
 Zero-point vibrational energy     879271.6 (Joules/Mol)
                                  210.15097 (Kcal/Mol)
 Warning -- explicit consideration of  27 degrees of freedom as
           vibrations may cause significant error
 Vibrational temperatures:     13.15    42.88    58.73   114.30   128.37
          (Kelvin)            155.33   196.42   230.12   268.90   317.75
                              328.88   343.31   365.22   388.04   425.31
                              460.08   472.28   523.99   550.95   581.35
                              642.04   670.34   707.49   741.22   829.42
                              854.09   874.32   961.62   993.81  1085.36
                             1152.38  1201.52  1224.16  1241.72  1320.43
                             1346.01  1359.73  1367.11  1411.62  1420.75
                             1436.55  1462.49  1477.57  1507.11  1551.66
                             1581.70  1624.21  1631.65  1668.57  1690.18
                             1714.32  1728.64  1730.55  1742.92  1752.51
                             1788.73  1806.67  1835.28  1869.37  1899.54
                             1927.11  1947.16  1963.28  1974.71  1992.56
                             2021.90  2040.57  2043.51  2056.10  2079.25
                             2093.31  2107.79  2146.42  2155.79  2157.04
                             2166.49  2174.90  2178.71  2183.64  2191.00
                             2198.55  2200.83  2209.21  2221.24  2223.06
                             2315.69  2331.20  4205.87  4217.48  4324.86
                             4347.34  4376.27  4376.58  4384.81  4395.10
                             4413.23  4418.78  4437.73  4455.88  4457.59
                             4463.29  4480.37  4484.80  4497.86  4502.04
                             4504.47  4529.48  5058.60

 Zero-point correction=                           0.334897 (Hartree/Particle)
 Thermal correction to Energy=                    0.352081
 Thermal correction to Enthalpy=                  0.353025
 Thermal correction to Gibbs Free Energy=         0.287879
 Sum of electronic and zero-point Energies=           -747.241439
 Sum of electronic and thermal Energies=              -747.224256
 Sum of electronic and thermal Enthalpies=            -747.223311
 Sum of electronic and thermal Free Energies=         -747.288457

                     E (Thermal)             CV                S
                      KCal/Mol        Cal/Mol-Kelvin    Cal/Mol-Kelvin
 Total                  220.934             64.558            137.110
 Electronic               0.000              0.000              0.000
 Translational            0.889              2.981             42.267
 Rotational               0.889              2.981             33.027
 Vibrational            219.156             58.597             61.816
 Vibration     1          0.593              1.987              8.190
 Vibration     2          0.594              1.984              5.842
 Vibration     3          0.594              1.981              5.219
 Vibration     4          0.600              1.963              3.905
 Vibration     5          0.602              1.957              3.677
 Vibration     6          0.606              1.943              3.305
 Vibration     7          0.614              1.917              2.852
 Vibration     8          0.622              1.891              2.550
 Vibration     9          0.632              1.858              2.258
 Vibration    10          0.648              1.809              1.952
 Vibration    11          0.651              1.797              1.890
 Vibration    12          0.657              1.781              1.813
 Vibration    13          0.665              1.756              1.704
 Vibration    14          0.674              1.729              1.598
 Vibration    15          0.690              1.682              1.442
 Vibration    16          0.706              1.636              1.311
 Vibration    17          0.711              1.619              1.269
 Vibration    18          0.738              1.546              1.104
 Vibration    19          0.752              1.507              1.028
 Vibration    20          0.769              1.461              0.948
 Vibration    21          0.805              1.369              0.807
 Vibration    22          0.823              1.326              0.749
 Vibration    23          0.847              1.268              0.679
 Vibration    24          0.870              1.216              0.621
 Vibration    25          0.933              1.082              0.492
 Vibration    26          0.951              1.045              0.461
 Vibration    27          0.966              1.016              0.437

 Optimization completed.
    -- Stationary point found.
 Normal termination of Gaussian 16 at Fri Dec 11 12:49:30 2020.

 ----------------------------------------------------------------------
 # B3LYP/6-311++G(d,p) empiricaldispersion=gd3bj scf=xqc pop=npa geom=c
 heck
 ----------------------------------------------------------------------

 ---------------------------------------
 CID_114742755_JID_7374_Energie_neutraal
 ---------------------------------------
 Structure from the checkpoint file:  "JID_7374.chk"
 Charge =  0 Multiplicity = 1

 SCF Done:  E(RB3LYP) =  -747.780818334     A.U. after   14 cycles
 Normal termination of Gaussian 16 at Fri Dec 11 12:57:44 2020.

 ----------------------------------------------------------------------
 # B3LYP/6-311++G(d,p) empiricaldispersion=gd3bj scf=xqc pop=npa geom=c
 heck
 ----------------------------------------------------------------------

 -------------------------------------
 CID_114742755_JID_7374_Energie_kation
 -------------------------------------
 Structure from the checkpoint file:  "JID_7374.chk"
 Charge =  1 Multiplicity = 2

 SCF Done:  E(UB3LYP) =  -747.482007035     A.U. after   27 cycles
 Normal termination of Gaussian 16 at Fri Dec 11 13:20:08 2020.
 Gaussian 16:  ES64L-G16RevA.03 25-Dec-2016

 ----------------------------------------------------------------------
 # B3LYP/6-311++G(d,p) empiricaldispersion=gd3bj scf=xqc pop=npa geom=c
 heck
 ----------------------------------------------------------------------

 ------------------------------------
 CID_114742755_JID_7374_Energie_anion
 ------------------------------------
 Structure from the checkpoint file:  "JID_7374.chk"
 Charge = -1 Multiplicity = 2

                         Standard orientation:
 ---------------------------------------------------------------------
 Center     Atomic      Atomic             Coordinates (Angstroms)
 Number     Number       Type             X           Y           Z
 ---------------------------------------------------------------------
      1          6           0        0.581109    3.069324    1.083910
      2          6           0       -0.584230    2.512417    0.254246
      3          6           0       -0.775138    3.315452   -1.045784
      4          6           0       -0.369349    1.049455   -0.087214
      5          7           0        0.848558    0.725244   -0.540093
      6          6           0        1.081431   -0.556012   -0.853944
      7          7           0        0.193576   -1.550836   -0.749298
      8          6           0       -1.028947   -1.223553   -0.307133
      9          6           0       -1.386936    0.087280    0.029832
     10          6           0       -2.793780    0.408619    0.486991
     11          6           0       -3.756850   -0.735186    0.159404
     12          7           0       -3.163435   -1.988488    0.618273
     13          6           0       -2.019211   -2.359518   -0.207466
     14          6           0        2.463218   -0.895121   -1.355236
     15          6           0        3.608232   -0.404895   -0.453007
     16          8           0        3.814079   -1.181759    0.711891
     17          6           0        2.831228   -1.013720    1.715173
     18          1           0        1.517495    2.992509    0.525578
     19          1           0        0.700658    2.513219    2.020468
     20          1           0        0.401623    4.121470    1.331272
     21          1           0       -1.499908    2.598795    0.849036
     22          1           0        0.117055    3.224820   -1.674161
     23          1           0       -1.633445    2.949473   -1.620939
     24          1           0       -0.938517    4.375954   -0.824022
     25          1           0       -3.148658    1.331925    0.014290
     26          1           0       -2.801192    0.579952    1.571360
     27          1           0       -3.967075   -0.735173   -0.928290
     28          1           0       -4.708501   -0.580969    0.677476
     29          1           0       -3.852920   -2.735200    0.596338
     30          1           0       -1.508602   -3.223394    0.230092
     31          1           0       -2.297812   -2.644521   -1.241929
     32          1           0        2.535905   -1.976545   -1.496687
     33          1           0        2.594884   -0.416889   -2.335910
     34          1           0        4.548486   -0.471380   -1.009479
     35          1           0        3.432526    0.649330   -0.190766
     36          1           0        2.630182    0.051226    1.909636
     37          1           0        1.882882   -1.503668    1.456308
     38          1           0        3.226729   -1.475548    2.624406
 ---------------------------------------------------------------------

 SCF Done:  E(UB3LYP) =  -747.774015720     A.U. after   33 cycles
 SCF Done:  E(UB3LYP) =  -747.774015720     a.u. after    1 cycles

 The electronic state is 2-A.
 Alpha  occ. eigenvalues --  -19.02851 -14.18765 -14.17538 -14.17322 -10.11848
 Alpha  occ. eigenvalues --  -10.11591 -10.11239 -10.08497 -10.08278 -10.08130
 Alpha  occ. eigenvalues --  -10.07901 -10.07123 -10.06615 -10.06307 -10.06200
 Alpha  occ. eigenvalues --  -10.05736 -10.05558  -0.93989  -0.85764  -0.80385
 Alpha  occ. eigenvalues --   -0.76218  -0.70748  -0.67469  -0.66507  -0.63466
 Alpha  occ. eigenvalues --   -0.59619  -0.58285  -0.56427  -0.53239  -0.51865
 Alpha  occ. eigenvalues --   -0.49870  -0.46127  -0.44474  -0.41950  -0.39237
 Alpha  occ. eigenvalues --   -0.39101  -0.36705  -0.36501  -0.36025  -0.35420
 Alpha  occ. eigenvalues --   -0.33597  -0.33349  -0.32087  -0.31639  -0.30853
 Alpha  occ. eigenvalues --   -0.30669  -0.29114  -0.28690  -0.28011  -0.27044
 Alpha  occ. eigenvalues --   -0.26644  -0.26284  -0.24679  -0.24152  -0.23814
 Alpha  occ. eigenvalues --   -0.23352  -0.22647  -0.21718  -0.17906  -0.17703
 Alpha  occ. eigenvalues --   -0.16327  -0.13467  -0.12660  -0.11629   0.04537
 Alpha virt. eigenvalues --    0.06785   0.06906   0.07641   0.08284   0.08864
 Alpha virt. eigenvalues --    0.09235   0.09679   0.09889   0.10237   0.10537
 Alpha virt. eigenvalues --    0.11023   0.11888   0.12063   0.12550   0.12774

  Beta  occ. eigenvalues --  -19.02851 -14.18732 -14.17397 -14.17139 -10.11848
  Beta  occ. eigenvalues --  -10.11625 -10.11238 -10.08271 -10.08254 -10.07916
  Beta  occ. eigenvalues --  -10.07865 -10.07140 -10.06615 -10.06298 -10.06272
  Beta  occ. eigenvalues --  -10.05724 -10.05508  -0.93989  -0.85476  -0.80308
  Beta  occ. eigenvalues --   -0.75844  -0.70590  -0.67414  -0.66490  -0.63327
  Beta  occ. eigenvalues --   -0.59580  -0.58220  -0.56179  -0.53190  -0.51731
  Beta  occ. eigenvalues --   -0.49790  -0.46054  -0.44338  -0.41815  -0.39207
  Beta  occ. eigenvalues --   -0.39081  -0.36636  -0.36372  -0.35961  -0.35376
  Beta  occ. eigenvalues --   -0.33455  -0.33251  -0.31917  -0.31462  -0.30815
  Beta  occ. eigenvalues --   -0.30613  -0.29010  -0.28615  -0.27903  -0.27006
  Beta  occ. eigenvalues --   -0.26538  -0.26127  -0.24554  -0.24048  -0.23709
  Beta  occ. eigenvalues --   -0.23291  -0.22534  -0.21655  -0.17592  -0.16823
  Beta  occ. eigenvalues --   -0.16070  -0.12977  -0.12508  -0.11481
  Beta virt. eigenvalues --    0.06869   0.07583   0.07858   0.08039   0.09029
  Beta virt. eigenvalues --    0.09362   0.09660   0.09953   0.10104   0.10405
  Beta virt. eigenvalues --    0.10660   0.11219   0.12070   0.12144   0.12828

 Mulliken charges and spin densities:
               1          2
     1  C   -0.620640  -0.028563
     2  C   -0.039074   0.384497
     3  C    0.168337  -0.813696
     4  C   -0.371281   0.112400
     5  N    0.279242   0.097667
     6  C   -0.588987  -0.046090
     7  N    0.092530   0.108401
     8  C   -0.150963  -0.223246
     9  C    1.460416  -0.785282
    10  C   -2.104165   1.532736
    11  C    1.585729  -2.123879
    12  N   -0.395445   0.275063
    13  C    0.032079  -0.222779
    14  C   -0.027476  -0.089077
    15  C   -0.393160   0.007876
    16  O   -0.130231  -0.000095
    17  C   -0.359970  -0.000505
    18  H    0.160662  -0.006427
    19  H    0.114592   0.004199
    20  H    0.094018   0.041855
    21  H   -0.055360   0.250620
    22  H    0.131979   0.036457
    23  H   -0.045960   0.173597
    24  H   -0.211811   0.350157
    25  H   -0.026999   0.168128
    26  H    0.229424  -0.048278
    27  H   -0.064012   0.179731
    28  H   -0.633752   0.818741
    29  H   -0.117305   0.385811
    30  H    0.187624  -0.034194
    31  H   -0.301722   0.489998
    32  H    0.201783  -0.002624
    33  H    0.130611   0.005154
    34  H    0.150948   0.001314
    35  H    0.159918  -0.001465
    36  H    0.123410  -0.002572
    37  H    0.178929   0.003115
    38  H    0.156078   0.001256
 Sum of Mulliken charges =  -1.00000   1.00000

 Dipole moment (field-independent basis, Debye):
    X=              7.0285    Y=              1.9466    Z=              1.5423  Tot=              7.4544
 Quadrupole moment (field-independent basis, Debye-Ang):
   XX=           -177.3086   YY=           -152.6761   ZZ=           -124.7997
   XY=             -5.5988   XZ=             -3.4270   YZ=              1.4342

 Summary of Natural Population Analysis:

                                       Natural Population
                Natural  -----------------------------------------------
    Atom  No    Charge         Core      Valence    Rydberg      Total
 -----------------------------------------------------------------------
      C    1   -0.27867      0.99966     2.27423    0.00478     3.27867
      C    2   -0.13065      0.99958     2.12139    0.00967     3.13065
      C    3   -0.27739      0.99965     2.27203    0.00572     3.27739
      C    4    0.17380      0.99948     1.81148    0.01523     2.82620
      N    5   -0.25726      0.99964     2.74743    0.01020     3.75726
      C    6    0.20669      0.99961     1.77284    0.02087     2.79331
      N    7   -0.24830      0.99965     2.73929    0.00936     3.74830
      C    8    0.16589      0.99948     1.82133    0.01329     2.83411
      C    9   -0.06864      0.99941     2.06016    0.00908     3.06864
      C   10   -0.19759      0.99960     2.18878    0.00920     3.19759
      C   11   -0.08490      0.99963     2.07283    0.01244     3.08490
      N   12   -0.33857      0.99974     2.82682    0.01201     3.83857
      C   13   -0.10162      0.99958     2.08900    0.01304     3.10162
      C   14   -0.21973      0.99958     2.21272    0.00743     3.21973
      C   15   -0.00413      0.99959     1.99389    0.01065     3.00413
      O   16   -0.30263      0.99989     3.29243    0.01031     4.30263
      C   17   -0.10218      0.99962     2.09390    0.00866     3.10218
      H   18    0.10455      0.00000     0.39448    0.00097     0.39545
      H   19    0.09634      0.00000     0.40289    0.00077     0.40366
      H   20    0.09259      0.00000     0.40672    0.00069     0.40741
      H   21    0.09689      0.00000     0.40115    0.00196     0.40311
      H   22    0.10024      0.00000     0.39876    0.00100     0.39976
      H   23    0.10067      0.00000     0.39850    0.00083     0.39933
      H   24    0.09478      0.00000     0.40420    0.00101     0.40522
      H   25    0.10174      0.00000     0.39680    0.00146     0.39826
      H   26    0.10038      0.00000     0.39810    0.00152     0.39962
      H   27    0.07844      0.00000     0.41904    0.00252     0.42156
      H   28    0.09541      0.00000     0.40321    0.00138     0.40459
      H   29    0.17749      0.00000     0.31872    0.00378     0.32251
      H   30    0.10159      0.00000     0.39712    0.00129     0.39841
      H   31    0.09059      0.00000     0.40700    0.00241     0.40941
      H   32    0.10825      0.00000     0.39076    0.00099     0.39175
      H   33    0.10396      0.00000     0.39452    0.00152     0.39604
      H   34    0.08303      0.00000     0.41592    0.00105     0.41697
      H   35    0.08615      0.00000     0.41270    0.00115     0.41385
      H   36    0.08086      0.00000     0.41811    0.00102     0.41914
      H   37    0.08918      0.00000     0.40973    0.00109     0.41082
      H   38    0.08273      0.00000     0.41643    0.00084     0.41727
 =======================================================================
   * Total *   -0.00000     16.99338    46.79542    0.21120    64.00000

 Normal termination of Gaussian 16 at Fri Dec 11 13:47:30 2020.
