 Gaussian 16, Revision A.03,

 -----------------------------------------------------------
 # opt freq B3LYP/6-31G(d) empiricaldispersion=gd3bj scf=xqc
 -----------------------------------------------------------

 -------------------------------
 CID_115023858_JID_5426_neutraal
 -------------------------------
 Symbolic Z-matrix:
 Charge =  0 Multiplicity = 1

 SCF Done:  E(RB3LYP) =  -706.233943462     A.U. after   15 cycles
 SCF Done:  E(RB3LYP) =  -706.238869056     A.U. after   12 cycles
 SCF Done:  E(RB3LYP) =  -706.240683203     A.U. after   12 cycles
 SCF Done:  E(RB3LYP) =  -706.241524153     A.U. after   13 cycles
 SCF Done:  E(RB3LYP) =  -706.241834343     A.U. after   12 cycles
 SCF Done:  E(RB3LYP) =  -706.242215699     A.U. after   12 cycles
 SCF Done:  E(RB3LYP) =  -706.242293195     A.U. after   15 cycles
 SCF Done:  E(RB3LYP) =  -706.242585445     A.U. after   15 cycles
 SCF Done:  E(RB3LYP) =  -706.243023023     A.U. after   12 cycles
 SCF Done:  E(RB3LYP) =  -706.243203695     A.U. after   11 cycles
 SCF Done:  E(RB3LYP) =  -706.243568046     A.U. after   11 cycles
 SCF Done:  E(RB3LYP) =  -706.243627186     A.U. after   11 cycles
 SCF Done:  E(RB3LYP) =  -706.243613530     A.U. after   11 cycles
 SCF Done:  E(RB3LYP) =  -706.243628448     A.U. after   11 cycles
 SCF Done:  E(RB3LYP) =  -706.243628670     A.U. after    8 cycles
 Optimization completed.
    -- Stationary point found.
 Normal termination of Gaussian 16 at Thu Dec 10 16:10:17 2020.

 --------------------------------------------------------------------
 #N Geom=AllCheck Guess=TCheck SCRF=Check GenChk RB3LYP/6-31G(d) Freq
 --------------------------------------------------------------------

 Structure from the checkpoint file:  "JID_5426.chk"
 -------------------------------
 CID_115023858_JID_5426_neutraal
 -------------------------------
 Charge =  0 Multiplicity = 1

 SCF Done:  E(RB3LYP) =  -706.243628670     A.U. after    1 cycles

  Exact polarizability: 198.244  -3.397 133.853   7.844  -0.754  58.555
 Approx polarizability: 271.608 -18.976 239.832  15.599  -2.735  89.214

                      1                      2                      3
                      A                      A                      A
 Frequencies --     28.5258                48.4245                95.9771
 Red. masses --      5.9126                 4.2823                 5.8208
 Frc consts  --      0.0028                 0.0059                 0.0316
 IR Inten    --      0.4523                 0.0782                 4.9350

                      4                      5                      6
                      A                      A                      A
 Frequencies --    102.0251               150.3679               162.6726
 Red. masses --      5.4608                 3.3212                 4.2472
 Frc consts  --      0.0335                 0.0442                 0.0662
 IR Inten    --      0.1309                 0.1789                 3.2539

                      7                      8                      9
                      A                      A                      A
 Frequencies --    218.0419               250.9647               300.3383
 Red. masses --      4.3525                 6.6233                 3.0182
 Frc consts  --      0.1219                 0.2458                 0.1604
 IR Inten    --      2.7397                 1.8225                 0.6367

                     10                     11                     12
                      A                      A                      A
 Frequencies --    339.3713               362.1934               370.7179
 Red. masses --      5.1964                 1.1938                 3.5894
 Frc consts  --      0.3526                 0.0923                 0.2906
 IR Inten    --      7.2152               106.7146                 1.5584

                     13                     14                     15
                      A                      A                      A
 Frequencies --    397.9063               454.2003               476.4816
 Red. masses --      5.7675                 1.1346                 2.9924
 Frc consts  --      0.5380                 0.1379                 0.4003
 IR Inten    --      5.9157               129.5363                 6.9183

                     16                     17                     18
                      A                      A                      A
 Frequencies --    486.1528               537.8240               555.3335
 Red. masses --      3.0733                 3.4006                 4.0421
 Frc consts  --      0.4280                 0.5795                 0.7344
 IR Inten    --     27.3054                 6.0835                 0.2555

                     19                     20                     21
                      A                      A                      A
 Frequencies --    572.6415               649.1319               674.8142
 Red. masses --      7.5393                 4.4163                 3.0318
 Frc consts  --      1.4566                 1.0964                 0.8134
 IR Inten    --      3.1285                 2.3126                 4.9800

                     22                     23                     24
                      A                      A                      A
 Frequencies --    700.0458               730.3417               749.5938
 Red. masses --      5.0323                 2.3750                 2.6647
 Frc consts  --      1.4530                 0.7464                 0.8822
 IR Inten    --     12.2865                18.6864                 1.6816

                     25                     26                     27
                      A                      A                      A
 Frequencies --    758.9380               773.7663               845.3194
 Red. masses --      1.6166                 2.4026                 6.2371
 Frc consts  --      0.5486                 0.8475                 2.6259
 IR Inten    --     66.2431                 1.0527                14.8356

                     28                     29                     30
                      A                      A                      A
 Frequencies --    852.9309               873.5266               941.0708
 Red. masses --      1.4337                 2.5140                 1.9736
 Frc consts  --      0.6145                 1.1302                 1.0298
 IR Inten    --      0.0509                11.0287                 4.2331

                     31                     32                     33
                      A                      A                      A
 Frequencies --    943.9230               960.1533               967.0620
 Red. masses --      1.3186                 5.4757                 5.5685
 Frc consts  --      0.6922                 2.9742                 3.0683
 IR Inten    --      1.4065                 0.7162                31.3444

                     34                     35                     36
                      A                      A                      A
 Frequencies --    983.3173              1071.9638              1077.1503
 Red. masses --      1.2697                 3.0596                 1.9921
 Frc consts  --      0.7233                 2.0714                 1.3618
 IR Inten    --      0.7170                19.0292                35.8365

                     37                     38                     39
                      A                      A                      A
 Frequencies --   1084.8282              1097.8308              1129.4701
 Red. masses --      2.9873                 4.7290                 3.6690
 Frc consts  --      2.0713                 3.3581                 2.7577
 IR Inten    --     18.3179                63.8691               115.2769

                     40                     41                     42
                      A                      A                      A
 Frequencies --   1148.9897              1193.7696              1208.7227
 Red. masses --      1.6669                 1.0971                 1.4517
 Frc consts  --      1.2966                 0.9212                 1.2496
 IR Inten    --     17.2993                 5.7809                 1.1793

                     43                     44                     45
                      A                      A                      A
 Frequencies --   1214.9432              1226.0420              1249.1009
 Red. masses --      1.6184                 1.2020                 1.4579
 Frc consts  --      1.4075                 1.0645                 1.3402
 IR Inten    --    130.4248                 4.4773                 2.6558

                     46                     47                     48
                      A                      A                      A
 Frequencies --   1294.0487              1317.3794              1334.6193
 Red. masses --      2.7794                 3.3124                 2.3043
 Frc consts  --      2.7423                 3.3870                 2.4183
 IR Inten    --     23.4047                45.5079                 0.1475

                     49                     50                     51
                      A                      A                      A
 Frequencies --   1358.4476              1381.1445              1386.5789
 Red. masses --      2.3980                 1.6184                 2.6805
 Frc consts  --      2.6073                 1.8190                 3.0363
 IR Inten    --     31.1070                 8.6971                31.8212

                     52                     53                     54
                      A                      A                      A
 Frequencies --   1411.3875              1453.0689              1489.4117
 Red. masses --      1.3225                 1.2246                 1.1030
 Frc consts  --      1.5521                 1.5234                 1.4416
 IR Inten    --      0.9528               112.4579                13.6261

                     55                     56                     57
                      A                      A                      A
 Frequencies --   1498.5981              1539.2663              1550.3721
 Red. masses --      2.5054                 1.0938                 2.5785
 Frc consts  --      3.3151                 1.5270                 3.6516
 IR Inten    --     55.1651                 0.5696                22.5350

                     58                     59                     60
                      A                      A                      A
 Frequencies --   1624.7585              1643.7179              1659.9975
 Red. masses --      6.6172                 7.0582                 7.8038
 Frc consts  --     10.2921                11.2356                12.6698
 IR Inten    --      9.8448                34.7008                37.2568

                     61                     62                     63
                      A                      A                      A
 Frequencies --   1675.0744              3000.4596              3059.5158
 Red. masses --      6.4347                 1.0719                 1.0650
 Frc consts  --     10.6377                 5.6856                 5.8736
 IR Inten    --      4.8504                58.1761                14.7874

                     64                     65                     66
                      A                      A                      A
 Frequencies --   3108.6430              3126.9552              3165.4109
 Red. masses --      1.0942                 1.0977                 1.0888
 Frc consts  --      6.2300                 6.3240                 6.4275
 IR Inten    --     52.5089                 8.3223                17.1788

                     67                     68                     69
                      A                      A                      A
 Frequencies --   3196.0854              3211.8175              3232.4644
 Red. masses --      1.0881                 1.0945                 1.0930
 Frc consts  --      6.5489                 6.6523                 6.7288
 IR Inten    --      8.7265                23.8088                 3.9574

                     70                     71                     72
                      A                      A                      A
 Frequencies --   3360.2391              3731.2318              3752.8056
 Red. masses --      1.0994                 1.0655                 1.0659
 Frc consts  --      7.3137                 8.7395                 8.8446
 IR Inten    --      3.5344                60.2606                46.7144

 - Thermochemistry -
 -------------------
 Temperature   298.150 Kelvin.  Pressure   1.00000 Atm.
 Atom     1 has atomic number  6 and mass  12.00000

 Molecular mass:   205.07389 amu.
 Principal axes and moments of inertia in atomic units:
                           1         2         3
     Eigenvalues --  1055.466776259.302657154.75208
           X            0.99998   0.00654  -0.00053
           Y           -0.00654   0.99998   0.00020
           Z            0.00054  -0.00020   1.00000
 This molecule is an asymmetric top.
 Rotational symmetry number  1.
 Warning -- assumption of classical behavior for rotation
           may cause significant error
 Rotational temperatures (Kelvin)      0.08206     0.01384     0.01211
 Rotational constants (GHZ):           1.70990     0.28833     0.25224
 Zero-point vibrational energy     541791.1 (Joules/Mol)
                                  129.49119 (Kcal/Mol)
 Warning -- explicit consideration of  19 degrees of freedom as
           vibrations may cause significant error
 Vibrational temperatures:     41.04    69.67   138.09   146.79   216.35
          (Kelvin)            234.05   313.71   361.08   432.12   488.28
                              521.12   533.38   572.50   653.49   685.55
                              699.47   773.81   799.00   823.90   933.96
                              970.91  1007.21  1050.80  1078.50  1091.94
                             1113.28  1216.23  1227.18  1256.81  1353.99
                             1358.09  1381.45  1391.39  1414.77  1542.32
                             1549.78  1560.83  1579.53  1625.06  1653.14
                             1717.57  1739.08  1748.03  1764.00  1797.18
                             1861.85  1895.42  1920.22  1954.50  1987.16
                             1994.98  2030.67  2090.64  2142.93  2156.15
                             2214.66  2230.64  2337.67  2364.94  2388.37
                             2410.06  4316.99  4401.96  4472.64  4498.99
                             4554.32  4598.45  4621.09  4650.80  4834.63
                             5368.41  5399.45

 Zero-point correction=                           0.206357 (Hartree/Particle)
 Thermal correction to Energy=                    0.219227
 Thermal correction to Enthalpy=                  0.220172
 Thermal correction to Gibbs Free Energy=         0.165920
 Sum of electronic and zero-point Energies=           -706.037271
 Sum of electronic and thermal Energies=              -706.024401
 Sum of electronic and thermal Enthalpies=            -706.023457
 Sum of electronic and thermal Free Energies=         -706.077709

                     E (Thermal)             CV                S
                      KCal/Mol        Cal/Mol-Kelvin    Cal/Mol-Kelvin
 Total                  137.567             49.762            114.183
 Electronic               0.000              0.000              0.000
 Translational            0.889              2.981             41.859
 Rotational               0.889              2.981             32.225
 Vibrational            135.790             43.801             40.099
 Vibration     1          0.593              1.984              5.929
 Vibration     2          0.595              1.978              4.881
 Vibration     3          0.603              1.952              3.534
 Vibration     4          0.604              1.948              3.415
 Vibration     5          0.618              1.902              2.668
 Vibration     6          0.623              1.888              2.518
 Vibration     7          0.646              1.814              1.975
 Vibration     8          0.663              1.761              1.724
 Vibration     9          0.693              1.673              1.415
 Vibration    10          0.719              1.597              1.215
 Vibration    11          0.736              1.550              1.113
 Vibration    12          0.743              1.532              1.077
 Vibration    13          0.764              1.475              0.970
 Vibration    14          0.813              1.352              0.783
 Vibration    15          0.833              1.302              0.720
 Vibration    16          0.842              1.281              0.694
 Vibration    17          0.893              1.166              0.570
 Vibration    18          0.911              1.128              0.533
 Vibration    19          0.929              1.090              0.499

                           ! Non-Optimized Parameters !
 Normal termination of Gaussian 16 at Thu Dec 10 16:16:54 2020.

 ----------------------------------------------------------------------
 # B3LYP/6-311++G(d,p) empiricaldispersion=gd3bj scf=xqc pop=npa geom=c
 heck
 ----------------------------------------------------------------------

 ---------------------------------------
 CID_115023858_JID_5426_Energie_neutraal
 ---------------------------------------
 Structure from the checkpoint file:  "JID_5426.chk"
 Charge =  0 Multiplicity = 1

 SCF Done:  E(RB3LYP) =  -706.452789475     A.U. after   15 cycles
 Normal termination of Gaussian 16 at Thu Dec 10 16:19:42 2020.

 ----------------------------------------------------------------------
 # B3LYP/6-311++G(d,p) empiricaldispersion=gd3bj scf=xqc pop=npa geom=c
 heck
 ----------------------------------------------------------------------

 -------------------------------------
 CID_115023858_JID_5426_Energie_kation
 -------------------------------------
 Structure from the checkpoint file:  "JID_5426.chk"
 Charge =  1 Multiplicity = 2

 SCF Done:  E(UB3LYP) =  -706.164641372     A.U. after   24 cycles
 Normal termination of Gaussian 16 at Thu Dec 10 16:26:09 2020.
 Gaussian 16:  ES64L-G16RevA.03 25-Dec-2016

 ----------------------------------------------------------------------
 # B3LYP/6-311++G(d,p) empiricaldispersion=gd3bj scf=xqc pop=npa geom=c
 heck
 ----------------------------------------------------------------------

 ------------------------------------
 CID_115023858_JID_5426_Energie_anion
 ------------------------------------
 Structure from the checkpoint file:  "JID_5426.chk"
 Charge = -1 Multiplicity = 2

                         Standard orientation:
 ---------------------------------------------------------------------
 Center     Atomic      Atomic             Coordinates (Angstroms)
 Number     Number       Type             X           Y           Z
 ---------------------------------------------------------------------
      1          6           0        3.377187   -1.758619    0.130942
      2          6           0        4.293435   -0.709745    0.213728
      3          6           0        3.844678    0.608978    0.171839
      4          6           0        2.482399    0.884059    0.047539
      5          6           0        1.542245   -0.160950   -0.037552
      6          6           0        2.019407   -1.479555    0.006846
      7          6           0        0.107556    0.087752   -0.167842
      8          6           0       -0.602242    1.249877   -0.235519
      9          8           0       -1.935264    0.927027   -0.359508
     10          6           0       -1.968652   -0.445580   -0.358095
     11          7           0       -0.797563   -0.982781   -0.244335
     12          6           0       -3.304309   -1.098528   -0.446710
     13          6           0       -4.282758   -0.602941    0.635199
     14          8           0       -4.699080    0.733975    0.430147
     15          8           0        2.011347    2.170867    0.003988
     16          1           0        3.718182   -2.788704    0.162612
     17          1           0        5.356215   -0.911170    0.310679
     18          1           0        4.552266    1.433763    0.235781
     19          1           0        1.291314   -2.280034   -0.059187
     20          1           0       -0.352615    2.294541   -0.218113
     21          1           0       -3.753903   -0.905036   -1.428898
     22          1           0       -3.143608   -2.176468   -0.352840
     23          1           0       -5.190919   -1.211957    0.598584
     24          1           0       -3.828139   -0.741457    1.629503
     25          1           0       -3.898820    1.283265    0.401423
     26          1           0        2.763266    2.779290    0.071532
 ---------------------------------------------------------------------

 SCF Done:  E(UB3LYP) =  -706.439884900     A.U. after   33 cycles
 SCF Done:  E(UB3LYP) =  -706.443941451     a.u. after    8 cycles

 The electronic state is 2-A.
 Alpha  occ. eigenvalues --  -19.09751 -19.04765 -19.03495 -14.21126 -10.16436
 Alpha  occ. eigenvalues --  -10.13636 -10.13130 -10.11415 -10.10183 -10.09947
 Alpha  occ. eigenvalues --  -10.07694 -10.06923 -10.06656 -10.06607 -10.06532
 Alpha  occ. eigenvalues --   -1.03106  -0.95836  -0.93896  -0.82540  -0.75090
 Alpha  occ. eigenvalues --   -0.71247  -0.66613  -0.63691  -0.62650  -0.55881
 Alpha  occ. eigenvalues --   -0.53822  -0.52465  -0.49087  -0.46990  -0.44108
 Alpha  occ. eigenvalues --   -0.43212  -0.41774  -0.39175  -0.37738  -0.36950
 Alpha  occ. eigenvalues --   -0.36206  -0.35584  -0.33272  -0.32304  -0.31384
 Alpha  occ. eigenvalues --   -0.31144  -0.30647  -0.30204  -0.28459  -0.25843
 Alpha  occ. eigenvalues --   -0.24941  -0.24404  -0.24296  -0.22592  -0.19692
 Alpha  occ. eigenvalues --   -0.19468  -0.17287  -0.13576  -0.11369   0.04358
 Alpha virt. eigenvalues --    0.05719   0.06595   0.07556   0.08362   0.08501
 Alpha virt. eigenvalues --    0.08875   0.09326   0.09803   0.10572   0.11009
 Alpha virt. eigenvalues --    0.11676   0.12663   0.13606   0.14429   0.14597

  Beta  occ. eigenvalues --  -19.09662 -19.04699 -19.03492 -14.21129 -10.16426
  Beta  occ. eigenvalues --  -10.13613 -10.13119 -10.11263 -10.10191 -10.09938
  Beta  occ. eigenvalues --  -10.07643 -10.06842 -10.06625 -10.06570 -10.06540
  Beta  occ. eigenvalues --   -1.02966  -0.95708  -0.93890  -0.82504  -0.74996
  Beta  occ. eigenvalues --   -0.71169  -0.66508  -0.63595  -0.62507  -0.55805
  Beta  occ. eigenvalues --   -0.53683  -0.52377  -0.48993  -0.46898  -0.44007
  Beta  occ. eigenvalues --   -0.43156  -0.41697  -0.39094  -0.37551  -0.36809
  Beta  occ. eigenvalues --   -0.36147  -0.35501  -0.33212  -0.32242  -0.31290
  Beta  occ. eigenvalues --   -0.31036  -0.30544  -0.30157  -0.28384  -0.25791
  Beta  occ. eigenvalues --   -0.24889  -0.24251  -0.24203  -0.22385  -0.19662
  Beta  occ. eigenvalues --   -0.19445  -0.17000  -0.13323  -0.10916
  Beta virt. eigenvalues --    0.06371   0.07292   0.07483   0.08179   0.08581
  Beta virt. eigenvalues --    0.08814   0.09082   0.09554   0.10191   0.10728
  Beta virt. eigenvalues --    0.11319   0.11822   0.12820   0.13982   0.14399

 Mulliken charges and spin densities:
               1          2
     1  C   -1.034843   0.572046
     2  C    0.752656  -0.893405
     3  C   -0.911243   0.413616
     4  C   -0.184121  -0.249165
     5  C    2.043491  -1.153036
     6  C   -0.523716   0.104693
     7  C    1.701836  -1.757323
     8  C   -0.521757   0.583254
     9  O   -0.118464   0.009914
    10  C    0.411653  -0.320662
    11  N   -0.001608   0.045809
    12  C   -1.083455   0.907292
    13  C    0.507093  -0.851723
    14  O   -0.282857   0.036997
    15  O   -0.296446   0.075974
    16  H    0.044017   0.098257
    17  H    0.087523   0.044055
    18  H   -1.222386   1.374332
    19  H    0.134993   0.023842
    20  H   -0.061321   0.281788
    21  H    0.081483   0.113618
    22  H   -0.002430   0.150557
    23  H   -0.347024   0.534211
    24  H    0.036199   0.107871
    25  H    0.208973   0.040687
    26  H   -0.418247   0.706501
 Sum of Mulliken charges =  -1.00000   1.00000

 Dipole moment (field-independent basis, Debye):
    X=             -3.5886    Y=             -4.5745    Z=             -1.0971  Tot=              5.9168
 Quadrupole moment (field-independent basis, Debye-Ang):
   XX=           -184.1028   YY=           -127.5213   ZZ=           -106.9845
   XY=            -22.6654   XZ=              0.7525   YZ=             -1.7517

 Summary of Natural Population Analysis:

                                       Natural Population
                Natural  -----------------------------------------------
    Atom  No    Charge         Core      Valence    Rydberg      Total
 -----------------------------------------------------------------------
      C    1   -0.12394      0.99956     2.11509    0.00929     3.12394
      C    2   -0.08409      0.99957     2.07362    0.01090     3.08409
      C    3   -0.13642      0.99952     2.12614    0.01076     3.13642
      C    4    0.17393      0.99936     1.81344    0.01327     2.82607
      C    5   -0.05639      0.99945     2.04680    0.01014     3.05639
      C    6   -0.07827      0.99955     2.07035    0.00837     3.07827
      C    7    0.03011      0.99951     1.95689    0.01349     2.96989
      C    8    0.07986      0.99946     1.90740    0.01328     2.92014
      O    9   -0.24958      0.99986     3.24238    0.00735     4.24958
      C   10    0.26840      0.99960     1.71334    0.01865     2.73160
      N   11   -0.25230      0.99967     2.74468    0.00795     3.75230
      C   12   -0.23420      0.99958     2.22472    0.00991     3.23420
      C   13   -0.00609      0.99961     1.99358    0.01290     3.00609
      O   14   -0.37291      0.99990     3.36598    0.00703     4.37291
      O   15   -0.34341      0.99988     3.33535    0.00818     4.34341
      H   16    0.09667      0.00000     0.40259    0.00074     0.40333
      H   17    0.09714      0.00000     0.40207    0.00078     0.40286
      H   18    0.10460      0.00000     0.39210    0.00330     0.39540
      H   19    0.10858      0.00000     0.39018    0.00124     0.39142
      H   20    0.10883      0.00000     0.38993    0.00124     0.39117
      H   21    0.10938      0.00000     0.38943    0.00119     0.39062
      H   22    0.11593      0.00000     0.38279    0.00128     0.38407
      H   23    0.08782      0.00000     0.41040    0.00178     0.41218
      H   24    0.07766      0.00000     0.42101    0.00133     0.42234
      H   25    0.23555      0.00000     0.26117    0.00328     0.26445
      H   26    0.24313      0.00000     0.23660    0.02027     0.25687
 =======================================================================
   * Total *    0.00000     14.99408    38.80803    0.19789    54.00000

 Normal termination of Gaussian 16 at Thu Dec 10 17:07:10 2020.
