 Gaussian 16, Revision A.03,

 -----------------------------------------------------------
 # opt freq B3LYP/6-31G(d) empiricaldispersion=gd3bj scf=xqc
 -----------------------------------------------------------

 ------------------------------
 CID_84144477_JID_7982_neutraal
 ------------------------------
 Symbolic Z-matrix:
 Charge =  0 Multiplicity = 1

 SCF Done:  E(RB3LYP) =  -766.256104531     A.U. after   15 cycles
 SCF Done:  E(RB3LYP) =  -766.261624632     A.U. after   12 cycles
 SCF Done:  E(RB3LYP) =  -766.262786268     A.U. after   12 cycles
 SCF Done:  E(RB3LYP) =  -766.262678422     A.U. after   12 cycles
 SCF Done:  E(RB3LYP) =  -766.263230185     A.U. after   12 cycles
 SCF Done:  E(RB3LYP) =  -766.263610488     A.U. after   11 cycles
 SCF Done:  E(RB3LYP) =  -766.263830923     A.U. after   12 cycles
 SCF Done:  E(RB3LYP) =  -766.263951423     A.U. after   11 cycles
 SCF Done:  E(RB3LYP) =  -766.263985049     A.U. after   11 cycles
 SCF Done:  E(RB3LYP) =  -766.264032625     A.U. after   10 cycles
 SCF Done:  E(RB3LYP) =  -766.265009770     A.U. after   10 cycles
 SCF Done:  E(RB3LYP) =  -766.265011534     A.U. after    8 cycles
 SCF Done:  E(RB3LYP) =  -766.265011434     A.U. after    9 cycles
 SCF Done:  E(RB3LYP) =  -766.265012704     A.U. after    9 cycles
 SCF Done:  E(RB3LYP) =  -766.265012762     A.U. after    7 cycles
 Optimization completed.
    -- Stationary point found.
 Normal termination of Gaussian 16 at Sun Dec 13 20:36:12 2020.

 --------------------------------------------------------------------
 #N Geom=AllCheck Guess=TCheck SCRF=Check GenChk RB3LYP/6-31G(d) Freq
 --------------------------------------------------------------------

 Structure from the checkpoint file:  "JID_7982.chk"
 ------------------------------
 CID_84144477_JID_7982_neutraal
 ------------------------------
 Charge =  0 Multiplicity = 1

 SCF Done:  E(RB3LYP) =  -766.265012762     A.U. after    1 cycles

  Exact polarizability: 173.461  -2.857 126.242   0.582 -15.727 139.461
 Approx polarizability: 255.748  -1.417 194.151   0.085 -35.704 218.313

                      1                      2                      3
                      A                      A                      A
 Frequencies --     51.9611                69.6125                77.3166
 Red. masses --      3.7579                 4.5040                 4.6965
 Frc consts  --      0.0060                 0.0129                 0.0165
 IR Inten    --      2.4322                 0.4744                 1.2565

                      4                      5                      6
                      A                      A                      A
 Frequencies --    100.8795               103.5765               144.6770
 Red. masses --      3.6605                 3.9733                 2.8079
 Frc consts  --      0.0219                 0.0251                 0.0346
 IR Inten    --      2.7613                 0.3276                 9.9669

                      7                      8                      9
                      A                      A                      A
 Frequencies --    164.1293               165.7668               192.6520
 Red. masses --      1.8183                 2.1839                 1.4840
 Frc consts  --      0.0289                 0.0354                 0.0325
 IR Inten    --      1.1161                 0.4857                 4.2274

                     10                     11                     12
                      A                      A                      A
 Frequencies --    207.4062               214.6798               231.3602
 Red. masses --      1.5837                 2.6527                 2.2696
 Frc consts  --      0.0401                 0.0720                 0.0716
 IR Inten    --      4.3891                 5.9757                12.2717

                     13                     14                     15
                      A                      A                      A
 Frequencies --    235.8333               254.3388               310.4231
 Red. masses --      1.5395                 2.0438                 2.9970
 Frc consts  --      0.0504                 0.0779                 0.1702
 IR Inten    --     30.4418                18.4690                 3.6699

                     16                     17                     18
                      A                      A                      A
 Frequencies --    321.4799               331.4795               387.1253
 Red. masses --      3.5621                 3.0452                 3.5588
 Frc consts  --      0.2169                 0.1971                 0.3142
 IR Inten    --      5.2910                 1.1016                 1.3930

                     19                     20                     21
                      A                      A                      A
 Frequencies --    432.4661               491.5865               517.9566
 Red. masses --      2.5421                 3.4910                 4.9973
 Frc consts  --      0.2801                 0.4971                 0.7899
 IR Inten    --      3.4388                 1.2092                 3.7914

                     22                     23                     24
                      A                      A                      A
 Frequencies --    527.6481               537.1573               565.5675
 Red. masses --      3.1909                 3.6140                 5.2705
 Frc consts  --      0.5234                 0.6144                 0.9933
 IR Inten    --      0.5065                 3.8819                 0.8058

                     25                     26                     27
                      A                      A                      A
 Frequencies --    583.8552               611.5709               705.4455
 Red. masses --      4.3152                 4.6013                 4.1189
 Frc consts  --      0.8667                 1.0140                 1.2077
 IR Inten    --      2.8758                 7.9535                 7.1406

                     28                     29                     30
                      A                      A                      A
 Frequencies --    734.7776               753.2747               758.1699
 Red. masses --      3.7288                 5.9115                 6.4005
 Frc consts  --      1.1861                 1.9763                 2.1677
 IR Inten    --      4.4653                 8.8618                11.3233

                     31                     32                     33
                      A                      A                      A
 Frequencies --    773.8962               790.2058               847.2691
 Red. masses --      4.7974                 1.2170                 2.4786
 Frc consts  --      1.6928                 0.4477                 1.0483
 IR Inten    --      3.4780                27.9039                 8.6760

                     34                     35                     36
                      A                      A                      A
 Frequencies --    890.0655               905.2327               910.9843
 Red. masses --      2.1427                 1.2981                 1.4220
 Frc consts  --      1.0001                 0.6267                 0.6953
 IR Inten    --      3.8572                 0.5269                80.0668

                     37                     38                     39
                      A                      A                      A
 Frequencies --    941.0147               953.9375               973.1719
 Red. masses --      2.7480                 2.3265                 1.3015
 Frc consts  --      1.4337                 1.2474                 0.7263
 IR Inten    --      5.2532                 3.5312                 1.2132

                     40                     41                     42
                      A                      A                      A
 Frequencies --    983.5322              1018.6020              1022.6197
 Red. masses --      3.3582                 2.1214                 1.7083
 Frc consts  --      1.9139                 1.2968                 1.0525
 IR Inten    --     32.7695                34.1563                 3.0052

                     43                     44                     45
                      A                      A                      A
 Frequencies --   1053.4950              1067.0465              1077.3266
 Red. masses --      1.8990                 1.7239                 1.5436
 Frc consts  --      1.2417                 1.1564                 1.0556
 IR Inten    --     17.6682                 3.7897                 9.3859

                     46                     47                     48
                      A                      A                      A
 Frequencies --   1081.6198              1093.7565              1117.0588
 Red. masses --      1.5009                 4.6400                 2.0847
 Frc consts  --      1.0346                 3.2704                 1.5327
 IR Inten    --      1.5647                38.6226                 3.0364

                     49                     50                     51
                      A                      A                      A
 Frequencies --   1128.1430              1149.1744              1155.3441
 Red. masses --      2.0690                 2.2126                 2.1661
 Frc consts  --      1.5514                 1.7216                 1.7035
 IR Inten    --     26.2434                69.8842                14.6338

                     52                     53                     54
                      A                      A                      A
 Frequencies --   1203.0878              1204.1892              1231.6523
 Red. masses --      1.2585                 1.3849                 2.0442
 Frc consts  --      1.0732                 1.1832                 1.8270
 IR Inten    --     16.6084                43.4469                73.1291

                     55                     56                     57
                      A                      A                      A
 Frequencies --   1254.3767              1277.9218              1281.9796
 Red. masses --      1.5945                 1.8149                 2.0686
 Frc consts  --      1.4782                 1.7463                 2.0031
 IR Inten    --     39.1574                 3.0692                34.3133

                     58                     59                     60
                      A                      A                      A
 Frequencies --   1292.1450              1317.6034              1343.1100
 Red. masses --      1.6615                 2.1089                 7.1249
 Frc consts  --      1.6345                 2.1571                 7.5728
 IR Inten    --      2.4447                31.7284                 2.9681

                     61                     62                     63
                      A                      A                      A
 Frequencies --   1359.5786              1380.9240              1396.9499
 Red. masses --      1.5156                 1.1826                 1.4770
 Frc consts  --      1.6506                 1.3287                 1.6982
 IR Inten    --     42.5391                 7.4023                 4.4229

                     64                     65                     66
                      A                      A                      A
 Frequencies --   1418.2532              1435.8975              1442.0532
 Red. masses --      1.5163                 1.4085                 1.2326
 Frc consts  --      1.7970                 1.7111                 1.5102
 IR Inten    --      3.3452                10.4936                 6.2080

                     67                     68                     69
                      A                      A                      A
 Frequencies --   1445.9340              1451.7542              1492.0591
 Red. masses --      1.2812                 1.7510                 2.1227
 Frc consts  --      1.5782                 2.1743                 2.7842
 IR Inten    --      2.5558               130.1519                39.0254

                     70                     71                     72
                      A                      A                      A
 Frequencies --   1500.4936              1509.1658              1512.2984
 Red. masses --      1.1325                 1.0801                 1.7320
 Frc consts  --      1.5022                 1.4494                 2.3338
 IR Inten    --      2.0495                11.3171                 0.1380

                     73                     74                     75
                      A                      A                      A
 Frequencies --   1518.0299              1533.3827              1536.4736
 Red. masses --      1.0854                 1.0921                 1.2556
 Frc consts  --      1.4737                 1.5129                 1.7465
 IR Inten    --      7.7952                 6.0614                19.5384

                     76                     77                     78
                      A                      A                      A
 Frequencies --   1541.3332              1548.4529              1646.4233
 Red. masses --      1.2816                 1.0968                 6.7732
 Frc consts  --      1.7939                 1.5494                10.8175
 IR Inten    --     48.3668                 5.2959                 1.5298

                     79                     80                     81
                      A                      A                      A
 Frequencies --   1652.6463              1706.2513              1868.3125
 Red. masses --      5.2105                 1.0861                12.4171
 Frc consts  --      8.3847                 1.8630                25.5370
 IR Inten    --      0.1830                12.3129               452.8958

                     82                     83                     84
                      A                      A                      A
 Frequencies --   3035.3822              3039.9788              3042.7324
 Red. masses --      1.0595                 1.0646                 1.0446
 Frc consts  --      5.7514                 5.7968                 5.6979
 IR Inten    --     17.9962                21.6697                24.1308

                     85                     86                     87
                      A                      A                      A
 Frequencies --   3061.4765              3063.2883              3077.1559
 Red. masses --      1.0360                 1.0662                 1.0980
 Frc consts  --      5.7213                 5.8947                 6.1258
 IR Inten    --     21.8674                46.8340                20.2147

                     88                     89                     90
                      A                      A                      A
 Frequencies --   3090.0238              3105.9849              3122.4469
 Red. masses --      1.1036                 1.0911                 1.0886
 Frc consts  --      6.2084                 6.2019                 6.2531
 IR Inten    --     57.6177                17.0469                36.7159

                     91                     92                     93
                      A                      A                      A
 Frequencies --   3123.9138              3135.1210              3137.8488
 Red. masses --      1.0972                 1.1027                 1.1026
 Frc consts  --      6.3087                 6.3861                 6.3966
 IR Inten    --      4.4437                29.4380                 8.1765

                     94                     95                     96
                      A                      A                      A
 Frequencies --   3139.7644              3181.4602              3189.7797
 Red. masses --      1.1031                 1.0860                 1.0906
 Frc consts  --      6.4071                 6.4761                 6.5380
 IR Inten    --     10.3922                 0.6415                21.6986

                     97                     98                     99
                      A                      A                      A
 Frequencies --   3207.2946              3478.6817              3559.3415
 Red. masses --      1.0966                 1.0507                 1.0918
 Frc consts  --      6.6463                 7.4910                 8.1499
 IR Inten    --     28.0105                 6.6747                 3.2816

 - Thermochemistry -
 -------------------
 Temperature   298.150 Kelvin.  Pressure   1.00000 Atm.
 Atom     1 has atomic number  6 and mass  12.00000

 Molecular mass:   234.13683 amu.
 Principal axes and moments of inertia in atomic units:
                           1         2         3
     Eigenvalues --  2879.085694062.957674695.44967
           X            0.99927  -0.03815  -0.00237
           Y            0.03805   0.99866  -0.03519
           Z            0.00371   0.03508   0.99938
 This molecule is an asymmetric top.
 Rotational symmetry number  1.
 Warning -- assumption of classical behavior for rotation
           may cause significant error
 Rotational temperatures (Kelvin)      0.03008     0.02132     0.01845
 Rotational constants (GHZ):           0.62685     0.44419     0.38436
 Zero-point vibrational energy     788411.3 (Joules/Mol)
                                  188.43483 (Kcal/Mol)
 Warning -- explicit consideration of  26 degrees of freedom as
           vibrations may cause significant error
 Vibrational temperatures:     74.76   100.16   111.24   145.14   149.02
          (Kelvin)            208.16   236.15   238.50   277.18   298.41
                              308.88   332.88   339.31   365.94   446.63
                              462.54   476.93   556.99   622.22   707.28
                              745.22   759.17   772.85   813.73   840.04
                              879.91  1014.98  1057.18  1083.79  1090.84
                             1113.46  1136.93  1219.03  1280.61  1302.43
                             1310.70  1353.91  1372.50  1400.18  1415.08
                             1465.54  1471.32  1515.74  1535.24  1550.03
                             1556.21  1573.67  1607.20  1623.15  1653.41
                             1662.28  1730.98  1732.56  1772.07  1804.77
                             1838.64  1844.48  1859.11  1895.74  1932.44
                             1956.13  1986.84  2009.90  2040.55  2065.94
                             2074.79  2080.38  2088.75  2146.74  2158.88
                             2171.35  2175.86  2184.11  2206.20  2210.64
                             2217.63  2227.88  2368.84  2377.79  2454.92
                             2688.09  4367.24  4373.85  4377.81  4404.78
                             4407.39  4427.34  4445.86  4468.82  4492.50
                             4494.62  4510.74  4514.66  4517.42  4577.41
                             4589.38  4614.58  5005.05  5121.10

 Zero-point correction=                           0.300290 (Hartree/Particle)
 Thermal correction to Energy=                    0.316640
 Thermal correction to Enthalpy=                  0.317584
 Thermal correction to Gibbs Free Energy=         0.257161
 Sum of electronic and zero-point Energies=           -765.964723
 Sum of electronic and thermal Energies=              -765.948373
 Sum of electronic and thermal Enthalpies=            -765.947429
 Sum of electronic and thermal Free Energies=         -766.007852

                     E (Thermal)             CV                S
                      KCal/Mol        Cal/Mol-Kelvin    Cal/Mol-Kelvin
 Total                  198.694             62.532            127.171
 Electronic               0.000              0.000              0.000
 Translational            0.889              2.981             42.254
 Rotational               0.889              2.981             32.374
 Vibrational            196.917             56.571             52.544
 Vibration     1          0.596              1.977              4.741
 Vibration     2          0.598              1.969              4.164
 Vibration     3          0.599              1.964              3.958
 Vibration     4          0.604              1.948              3.437
 Vibration     5          0.605              1.946              3.386
 Vibration     6          0.616              1.908              2.741
 Vibration     7          0.623              1.886              2.502
 Vibration     8          0.624              1.885              2.483
 Vibration     9          0.635              1.850              2.202
 Vibration    10          0.641              1.829              2.066
 Vibration    11          0.645              1.819              2.004
 Vibration    12          0.653              1.793              1.868
 Vibration    13          0.655              1.786              1.834
 Vibration    14          0.665              1.755              1.700
 Vibration    15          0.699              1.654              1.360
 Vibration    16          0.707              1.632              1.303
 Vibration    17          0.714              1.613              1.253
 Vibration    18          0.756              1.498              1.011
 Vibration    19          0.793              1.399              0.851
 Vibration    20          0.847              1.269              0.679
 Vibration    21          0.873              1.210              0.615
 Vibration    22          0.883              1.189              0.592
 Vibration    23          0.892              1.168              0.571
 Vibration    24          0.921              1.106              0.513
 Vibration    25          0.941              1.066              0.478
 Vibration    26          0.971              1.007              0.430

                           ! Non-Optimized Parameters !
 Normal termination of Gaussian 16 at Sun Dec 13 20:52:00 2020.

 ----------------------------------------------------------------------
 # B3LYP/6-311++G(d,p) empiricaldispersion=gd3bj scf=xqc pop=npa geom=c
 heck
 ----------------------------------------------------------------------

 --------------------------------------
 CID_84144477_JID_7982_Energie_neutraal
 --------------------------------------
 Structure from the checkpoint file:  "JID_7982.chk"
 Charge =  0 Multiplicity = 1

 SCF Done:  E(RB3LYP) =  -766.481578438     A.U. after   16 cycles
 Normal termination of Gaussian 16 at Sun Dec 13 21:00:20 2020.

 ----------------------------------------------------------------------
 # B3LYP/6-311++G(d,p) empiricaldispersion=gd3bj scf=xqc pop=npa geom=c
 heck
 ----------------------------------------------------------------------

 ------------------------------------
 CID_84144477_JID_7982_Energie_kation
 ------------------------------------
 Structure from the checkpoint file:  "JID_7982.chk"
 Charge =  1 Multiplicity = 2

 SCF Done:  E(UB3LYP) =  -766.176238365     A.U. after   28 cycles
 Normal termination of Gaussian 16 at Sun Dec 13 21:19:18 2020.
 Gaussian 16:  ES64L-G16RevA.03 25-Dec-2016

 ----------------------------------------------------------------------
 # B3LYP/6-311++G(d,p) empiricaldispersion=gd3bj scf=xqc pop=npa geom=c
 heck
 ----------------------------------------------------------------------

 -----------------------------------
 CID_84144477_JID_7982_Energie_anion
 -----------------------------------
 Structure from the checkpoint file:  "JID_7982.chk"
 Charge = -1 Multiplicity = 2

                         Standard orientation:
 ---------------------------------------------------------------------
 Center     Atomic      Atomic             Coordinates (Angstroms)
 Number     Number       Type             X           Y           Z
 ---------------------------------------------------------------------
      1          6           0        0.704060    0.557085   -2.558614
      2          6           0        1.382355    0.073825   -1.300050
      3          6           0        0.645674   -0.417400   -0.204358
      4          6           0        1.288876   -0.920997    0.944309
      5          6           0        2.686125   -0.898005    0.982358
      6          6           0        3.429586   -0.387086   -0.078752
      7          6           0        2.779092    0.092081   -1.211737
      8          6           0        0.510973   -1.473207    2.109690
      9          7           0       -0.777817   -0.381759   -0.265321
     10          6           0       -1.581239    0.846287   -0.284871
     11          6           0       -2.948527    0.253587   -0.678536
     12          8           0       -2.875478   -1.141829   -0.349762
     13          6           0       -1.562629   -1.516295   -0.243354
     14          8           0       -1.207755   -2.666834   -0.146156
     15          6           0       -1.618906    1.611516    1.042665
     16          6           0       -0.276021    2.207458    1.489586
     17          7           0        0.365467    2.953878    0.395422
     18          1           0       -0.194591   -0.028463   -2.774443
     19          1           0        0.402779    1.610233   -2.484792
     20          1           0        1.381550    0.473257   -3.413235
     21          1           0        3.192385   -1.280545    1.864443
     22          1           0        4.514484   -0.372441   -0.026389
     23          1           0        3.355090    0.468814   -2.052880
     24          1           0       -0.324508   -0.819343    2.381830
     25          1           0        0.081426   -2.447303    1.856778
     26          1           0        1.156270   -1.586424    2.985408
     27          1           0       -1.220711    1.528158   -1.057463
     28          1           0       -3.778334    0.693677   -0.121337
     29          1           0       -3.142865    0.349301   -1.752915
     30          1           0       -2.331184    2.435597    0.903541
     31          1           0       -2.019183    0.959411    1.830359
     32          1           0       -0.477181    2.905226    2.310101
     33          1           0        0.366776    1.417430    1.900009
     34          1           0        0.982998    3.662995    0.784028
     35          1           0        0.970595    2.321792   -0.126429
 ---------------------------------------------------------------------

 SCF Done:  E(UB3LYP) =  -766.470492880     A.U. after   33 cycles
 SCF Done:  E(UB3LYP) =  -766.470492880     a.u. after    1 cycles

 The electronic state is 2-A.
 Alpha  occ. eigenvalues --  -19.07554 -19.00825 -14.26272 -14.19565 -10.22919
 Alpha  occ. eigenvalues --  -10.14865 -10.13340 -10.12804 -10.10183 -10.10101
 Alpha  occ. eigenvalues --  -10.09839 -10.08824 -10.08550 -10.08479 -10.08070
 Alpha  occ. eigenvalues --  -10.08050 -10.07647  -1.02686  -0.93716  -0.86713
 Alpha  occ. eigenvalues --   -0.78771  -0.77291  -0.70444  -0.70177  -0.67117
 Alpha  occ. eigenvalues --   -0.63450  -0.61750  -0.59612  -0.56398  -0.54267
 Alpha  occ. eigenvalues --   -0.50972  -0.49342  -0.47964  -0.44587  -0.42190
 Alpha  occ. eigenvalues --   -0.40848  -0.40047  -0.39418  -0.39100  -0.36307
 Alpha  occ. eigenvalues --   -0.35587  -0.34594  -0.34141  -0.33691  -0.32829
 Alpha  occ. eigenvalues --   -0.32449  -0.32309  -0.31945  -0.31573  -0.29473
 Alpha  occ. eigenvalues --   -0.29057  -0.28367  -0.27080  -0.26257  -0.25911
 Alpha  occ. eigenvalues --   -0.25765  -0.25295  -0.21141  -0.19777  -0.18389
 Alpha  occ. eigenvalues --   -0.16083  -0.15154  -0.14886   0.03996
 Alpha virt. eigenvalues --    0.05896   0.06240   0.06683   0.07027   0.07163
 Alpha virt. eigenvalues --    0.07820   0.08233   0.09418   0.09561   0.10260
 Alpha virt. eigenvalues --    0.10626   0.11149   0.12092   0.12151   0.12686

  Beta  occ. eigenvalues --  -19.07554 -19.00821 -14.26270 -14.19527 -10.22916
  Beta  occ. eigenvalues --  -10.14842 -10.13334 -10.12800 -10.10183 -10.10100
  Beta  occ. eigenvalues --  -10.09816 -10.08813 -10.08542 -10.08463 -10.08041
  Beta  occ. eigenvalues --  -10.08031 -10.07638  -1.02680  -0.93709  -0.86708
  Beta  occ. eigenvalues --   -0.78717  -0.77277  -0.70418  -0.70160  -0.67094
  Beta  occ. eigenvalues --   -0.63399  -0.61722  -0.59581  -0.56355  -0.54250
  Beta  occ. eigenvalues --   -0.50918  -0.49309  -0.47942  -0.44556  -0.42169
  Beta  occ. eigenvalues --   -0.40800  -0.40016  -0.39377  -0.39080  -0.36270
  Beta  occ. eigenvalues --   -0.35553  -0.34560  -0.34114  -0.33668  -0.32802
  Beta  occ. eigenvalues --   -0.32423  -0.32286  -0.31920  -0.31550  -0.29440
  Beta  occ. eigenvalues --   -0.29034  -0.28337  -0.27049  -0.26236  -0.25893
  Beta  occ. eigenvalues --   -0.25735  -0.25261  -0.21126  -0.19770  -0.18380
  Beta  occ. eigenvalues --   -0.16064  -0.15142  -0.14848
  Beta virt. eigenvalues --    0.06182   0.06662   0.06713   0.07001   0.07204
  Beta virt. eigenvalues --    0.07878   0.08320   0.08818   0.09884   0.10131
  Beta virt. eigenvalues --    0.10597   0.10991   0.11393   0.12394   0.12492

 Mulliken charges and spin densities:
               1          2
     1  C    1.142236  -1.623196
     2  C   -1.054916   1.124291
     3  C   -0.025942   0.040817
     4  C   -0.213396   0.507342
     5  C   -0.488958   0.061354
     6  C    0.705933  -1.097759
     7  C    0.140913  -0.429978
     8  C    0.288971  -0.794420
     9  N    0.014979   0.081973
    10  C   -0.734585   1.117841
    11  C    0.885334  -1.657335
    12  O   -0.099384   0.032874
    13  C    0.373031  -0.017522
    14  O   -0.327607   0.002250
    15  C   -0.188127  -0.207128
    16  C    0.838348  -1.302870
    17  N   -0.563754   0.097066
    18  H    0.130781   0.046628
    19  H   -0.346990   0.538501
    20  H   -0.257264   0.423479
    21  H   -0.080810   0.238061
    22  H   -0.474056   0.643443
    23  H   -0.542002   0.721421
    24  H    0.145852  -0.017436
    25  H    0.226365  -0.012731
    26  H   -0.056505   0.194211
    27  H    0.220668   0.004908
    28  H   -0.164150   0.385929
    29  H   -0.148730   0.337325
    30  H   -0.225692   0.372559
    31  H   -0.019365   0.179763
    32  H   -0.583626   0.786771
    33  H    0.101404   0.032618
    34  H   -0.339118   0.625066
    35  H    0.720161  -0.436117
 Sum of Mulliken charges =  -1.00000   1.00000

 Dipole moment (field-independent basis, Debye):
    X=             -1.6287    Y=             -3.4193    Z=              1.0038  Tot=              3.9181
 Quadrupole moment (field-independent basis, Debye-Ang):
   XX=           -164.0594   YY=           -168.6164   ZZ=           -144.8969
   XY=             -4.0862   XZ=              5.1511   YZ=             -6.0623

 Summary of Natural Population Analysis:

                                       Natural Population
                Natural  -----------------------------------------------
    Atom  No    Charge         Core      Valence    Rydberg      Total
 -----------------------------------------------------------------------
      C    1   -0.29685      0.99963     2.29127    0.00596     3.29685
      C    2   -0.01747      0.99947     2.00790    0.01009     3.01747
      C    3    0.07292      0.99937     1.91458    0.01313     2.92708
      C    4   -0.00638      0.99947     1.99734    0.00958     3.00638
      C    5   -0.10154      0.99951     2.09236    0.00967     3.10154
      C    6   -0.09135      0.99956     2.08165    0.01015     3.09135
      C    7   -0.10145      0.99951     2.09156    0.01038     3.10145
      C    8   -0.30079      0.99963     2.29544    0.00573     3.30079
      N    9   -0.27273      0.99960     2.76135    0.01178     3.77273
      C   10   -0.01839      0.99957     2.00661    0.01220     3.01839
      C   11   -0.00683      0.99956     1.99537    0.01189     3.00683
      O   12   -0.27962      0.99987     3.27287    0.00688     4.27962
      C   13    0.46795      0.99966     1.50659    0.02579     2.53205
      O   14   -0.31490      0.99986     3.30999    0.00505     4.31490
      C   15   -0.19471      0.99960     2.18551    0.00959     3.19471
      C   16   -0.09286      0.99962     2.08184    0.01139     3.09286
      N   17   -0.42747      0.99977     2.91737    0.01033     3.92747
      H   18    0.10575      0.00000     0.39303    0.00122     0.39425
      H   19    0.10872      0.00000     0.38998    0.00130     0.39128
      H   20    0.10728      0.00000     0.39174    0.00099     0.39272
      H   21    0.10009      0.00000     0.39900    0.00091     0.39991
      H   22    0.10270      0.00000     0.39618    0.00113     0.39730
      H   23    0.10338      0.00000     0.39519    0.00143     0.39662
      H   24    0.10392      0.00000     0.39479    0.00129     0.39608
      H   25    0.11983      0.00000     0.37916    0.00101     0.38017
      H   26    0.10091      0.00000     0.39831    0.00079     0.39909
      H   27    0.10891      0.00000     0.38843    0.00266     0.39109
      H   28    0.09459      0.00000     0.40409    0.00132     0.40541
      H   29    0.08885      0.00000     0.40972    0.00143     0.41115
      H   30    0.10328      0.00000     0.39519    0.00153     0.39672
      H   31    0.09737      0.00000     0.40120    0.00143     0.40263
      H   32    0.09470      0.00000     0.40349    0.00181     0.40530
      H   33    0.08456      0.00000     0.41313    0.00231     0.41544
      H   34    0.18085      0.00000     0.31631    0.00283     0.31915
      H   35    0.17678      0.00000     0.32044    0.00278     0.32322
 =======================================================================
   * Total *    0.00000     16.99326    45.79896    0.20777    63.00000

 Normal termination of Gaussian 16 at Sun Dec 13 21:40:28 2020.
