 Gaussian 16, Revision A.03,

 -----------------------------------------------------------
 # opt freq B3LYP/6-31G(d) empiricaldispersion=gd3bj scf=xqc
 -----------------------------------------------------------

 -------------------------------
 CID_147256889_JID_9856_neutraal
 -------------------------------
 Symbolic Z-matrix:
 Charge =  0 Multiplicity = 1

 SCF Done:  E(RB3LYP) =  -748.596673728     A.U. after   14 cycles
 SCF Done:  E(RB3LYP) =  -748.605088222     A.U. after   13 cycles
 SCF Done:  E(RB3LYP) =  -748.604663568     A.U. after   12 cycles
 SCF Done:  E(RB3LYP) =  -748.608246585     A.U. after   12 cycles
 SCF Done:  E(RB3LYP) =  -748.608311761     A.U. after   12 cycles
 SCF Done:  E(RB3LYP) =  -748.608667432     A.U. after   10 cycles
 SCF Done:  E(RB3LYP) =  -748.608689960     A.U. after   10 cycles
 SCF Done:  E(RB3LYP) =  -748.608734054     A.U. after   11 cycles
 SCF Done:  E(RB3LYP) =  -748.606228848     A.U. after   13 cycles
 SCF Done:  E(RB3LYP) =  -748.609339058     A.U. after   13 cycles
 SCF Done:  E(RB3LYP) =  -748.609774405     A.U. after   11 cycles
 SCF Done:  E(RB3LYP) =  -748.609777171     A.U. after    8 cycles
 SCF Done:  E(RB3LYP) =  -748.609778131     A.U. after    8 cycles
 SCF Done:  E(RB3LYP) =  -748.609778501     A.U. after    8 cycles
 SCF Done:  E(RB3LYP) =  -748.609778621     A.U. after    7 cycles
 Optimization completed.
    -- Stationary point found.
 Normal termination of Gaussian 16 at Sat Dec 12 10:07:35 2020.

 --------------------------------------------------------------------
 #N Geom=AllCheck Guess=TCheck SCRF=Check GenChk RB3LYP/6-31G(d) Freq
 --------------------------------------------------------------------

 Structure from the checkpoint file:  "JID_9856.chk"
 -------------------------------
 CID_147256889_JID_9856_neutraal
 -------------------------------
 Charge =  0 Multiplicity = 1

 SCF Done:  E(RB3LYP) =  -748.609778621     A.U. after    1 cycles

  Exact polarizability: 269.495   2.225 259.217  -4.223   3.270  67.407
 Approx polarizability: 446.850  -0.526 449.706 -12.032  10.647 110.899

                      1                      2                      3
                      A                      A                      A
 Frequencies --     42.2846                66.0821               117.7071
 Red. masses --      3.9312                 3.7315                 4.2015
 Frc consts  --      0.0041                 0.0096                 0.0343
 IR Inten    --      0.4656                 0.2377                 1.6983

                      4                      5                      6
                      A                      A                      A
 Frequencies --    124.1410               190.5844               247.8384
 Red. masses --      4.2684                 3.3381                 4.6819
 Frc consts  --      0.0388                 0.0714                 0.1694
 IR Inten    --      0.3476                 1.7584                 2.7414

                      7                      8                      9
                      A                      A                      A
 Frequencies --    253.3875               278.1249               312.7870
 Red. masses --      4.3693                 4.6335                 2.2810
 Frc consts  --      0.1653                 0.2112                 0.1315
 IR Inten    --      0.2818                 0.2428                 0.2023

                     10                     11                     12
                      A                      A                      A
 Frequencies --    340.0634               345.0440               404.5413
 Red. masses --      1.4008                 3.9761                 6.6978
 Frc consts  --      0.0954                 0.2789                 0.6458
 IR Inten    --      0.0460                 0.8272                 1.4720

                     13                     14                     15
                      A                      A                      A
 Frequencies --    416.7026               436.1970               450.3390
 Red. masses --      5.9611                 3.5943                 3.9784
 Frc consts  --      0.6099                 0.4029                 0.4754
 IR Inten    --      0.1987                 1.2081                 1.9840

                     16                     17                     18
                      A                      A                      A
 Frequencies --    466.8814               492.0145               552.0007
 Red. masses --      4.4116                 3.8063                 4.8023
 Frc consts  --      0.5666                 0.5429                 0.8621
 IR Inten    --      0.4937                 0.2236                 1.9184

                     19                     20                     21
                      A                      A                      A
 Frequencies --    564.0626               583.5680               589.1994
 Red. masses --      3.4562                 3.4765                 3.8217
 Frc consts  --      0.6479                 0.6976                 0.7817
 IR Inten    --      0.5750                 0.5567                 1.1980

                     22                     23                     24
                      A                      A                      A
 Frequencies --    606.7996               635.2745               638.8995
 Red. masses --      4.3843                 7.3776                 7.4257
 Frc consts  --      0.9511                 1.7542                 1.7859
 IR Inten    --      0.8819                 4.3626                 3.2557

                     25                     26                     27
                      A                      A                      A
 Frequencies --    687.5247               734.2209               747.9700
 Red. masses --      6.2678                 2.0482                 3.4710
 Frc consts  --      1.7456                 0.6505                 1.1441
 IR Inten    --      0.2558                 3.2055                 1.0221

                     28                     29                     30
                      A                      A                      A
 Frequencies --    773.3800               783.4114               802.0030
 Red. masses --      1.2386                 6.1306                 2.6117
 Frc consts  --      0.4365                 2.2168                 0.9897
 IR Inten    --     94.5672                 1.7712                 3.4379

                     31                     32                     33
                      A                      A                      A
 Frequencies --    810.5600               813.1246               834.1618
 Red. masses --      2.6996                 2.2213                 2.8667
 Frc consts  --      1.0450                 0.8653                 1.1753
 IR Inten    --      2.3057                 3.2982                 3.4181

                     34                     35                     36
                      A                      A                      A
 Frequencies --    881.3251               889.5667               898.2266
 Red. masses --      1.8036                 4.9050                 1.3377
 Frc consts  --      0.8254                 2.2869                 0.6359
 IR Inten    --      0.1141                 1.7601                 0.2369

                     37                     38                     39
                      A                      A                      A
 Frequencies --    954.0237               961.4016               968.4654
 Red. masses --      1.3247                 1.3862                 1.2907
 Frc consts  --      0.7103                 0.7549                 0.7133
 IR Inten    --      0.2926                 0.3909                 0.6866

                     40                     41                     42
                      A                      A                      A
 Frequencies --    983.4393              1001.3775              1017.2174
 Red. masses --      1.3185                 1.2968                 6.6229
 Frc consts  --      0.7513                 0.7662                 4.0377
 IR Inten    --      0.5739                 0.3445                 6.7590

                     43                     44                     45
                      A                      A                      A
 Frequencies --   1032.6952              1049.7358              1071.2359
 Red. masses --      1.7116                 6.2071                 1.7625
 Frc consts  --      1.0755                 4.0299                 1.1917
 IR Inten    --      0.6202                 1.6410                 1.0324

                     46                     47                     48
                      A                      A                      A
 Frequencies --   1074.8573              1105.4522              1108.5813
 Red. masses --      2.0882                 2.6327                 1.9947
 Frc consts  --      1.4214                 1.8955                 1.4443
 IR Inten    --      6.9449                 0.8436                 2.3115

                     49                     50                     51
                      A                      A                      A
 Frequencies --   1140.4121              1156.5858              1176.3008
 Red. masses --      2.1211                 1.7554                 1.3807
 Frc consts  --      1.6253                 1.3835                 1.1256
 IR Inten    --      1.7072                 2.9267                 0.7716

                     52                     53                     54
                      A                      A                      A
 Frequencies --   1200.7005              1218.4755              1240.8428
 Red. masses --      1.1132                 1.4661                 1.6355
 Frc consts  --      0.9456                 1.2825                 1.4837
 IR Inten    --      0.8296                 0.6999                 3.1263

                     55                     56                     57
                      A                      A                      A
 Frequencies --   1273.9116              1280.5137              1308.1808
 Red. masses --      3.2889                 1.7648                 1.8303
 Frc consts  --      3.1447                 1.7049                 1.8455
 IR Inten    --      0.0392                 4.9266                 2.1533

                     58                     59                     60
                      A                      A                      A
 Frequencies --   1328.7887              1338.0796              1351.5161
 Red. masses --      5.5679                 2.5830                 7.1614
 Frc consts  --      5.7924                 2.7249                 7.7071
 IR Inten    --      2.6650                 1.9991                 2.1637

                     61                     62                     63
                      A                      A                      A
 Frequencies --   1372.9030              1393.2598              1443.6546
 Red. masses --      2.8990                 4.4304                 1.4968
 Frc consts  --      3.2195                 5.0671                 1.8380
 IR Inten    --      0.4935                 2.5998                 3.1658

                     64                     65                     66
                      A                      A                      A
 Frequencies --   1448.9229              1456.4446              1488.5702
 Red. masses --      2.1070                 2.3209                 2.1922
 Frc consts  --      2.6062                 2.9007                 2.8621
 IR Inten    --      8.3383                53.6185                19.3542

                     67                     68                     69
                      A                      A                      A
 Frequencies --   1512.9948              1525.1767              1529.3956
 Red. masses --      2.6862                 2.3765                 1.0809
 Frc consts  --      3.6230                 3.2571                 1.4896
 IR Inten    --      3.1554                 4.2383                 7.4515

                     70                     71                     72
                      A                      A                      A
 Frequencies --   1537.5078              1544.6641              1596.2503
 Red. masses --      1.3680                 2.0532                 4.1058
 Frc consts  --      1.9054                 2.8864                 6.1638
 IR Inten    --     21.2014                 9.5602                 9.9616

                     73                     74                     75
                      A                      A                      A
 Frequencies --   1629.9257              1640.3210              1646.4527
 Red. masses --      6.5405                 6.4860                 5.9693
 Frc consts  --     10.2376                10.2822                 9.5339
 IR Inten    --      5.6688                 1.7847                14.9192

                     76                     77                     78
                      A                      A                      A
 Frequencies --   1656.4474              1669.2323              3042.4205
 Red. masses --      4.9506                 5.8613                 1.0441
 Frc consts  --      8.0033                 9.6223                 5.6944
 IR Inten    --      8.7643                 0.4590                27.8148

                     79                     80                     81
                      A                      A                      A
 Frequencies --   3104.4020              3133.8257              3167.4175
 Red. masses --      1.0920                 1.1025                 1.0893
 Frc consts  --      6.2004                 6.3792                 6.4390
 IR Inten    --     21.8395                15.9357                33.3481

                     82                     83                     84
                      A                      A                      A
 Frequencies --   3181.8167              3187.3427              3201.2154
 Red. masses --      1.0872                 1.0865                 1.0925
 Frc consts  --      6.4852                 6.5033                 6.5963
 IR Inten    --      9.7131                 4.7293                42.6640

                     85                     86                     87
                      A                      A                      A
 Frequencies --   3204.1123              3209.0445              3222.8210
 Red. masses --      1.0930                 1.0935                 1.0941
 Frc consts  --      6.6116                 6.6344                 6.6957
 IR Inten    --     22.7708                24.2788                 1.9760

                     88                     89                     90
                      A                      A                      A
 Frequencies --   3241.1570              3245.4494              3294.1490
 Red. masses --      1.0919                 1.0887                 1.0894
 Frc consts  --      6.7583                 6.7560                 6.9651
 IR Inten    --      5.4678                28.5947                 6.6218

 - Thermochemistry -
 -------------------
 Temperature   298.150 Kelvin.  Pressure   1.00000 Atm.
 Atom     1 has atomic number  6 and mass  12.00000

 Molecular mass:   243.10480 amu.
 Principal axes and moments of inertia in atomic units:
                           1         2         3
     Eigenvalues --  3530.942874270.103967712.78851
           X            0.99915   0.04105   0.00234
           Y           -0.04105   0.99916   0.00043
           Z           -0.00232  -0.00052   1.00000
 This molecule is an asymmetric top.
 Rotational symmetry number  1.
 Warning -- assumption of classical behavior for rotation
           may cause significant error
 Rotational temperatures (Kelvin)      0.02453     0.02028     0.01123
 Rotational constants (GHZ):           0.51112     0.42265     0.23399
 Zero-point vibrational energy     679957.9 (Joules/Mol)
                                  162.51384 (Kcal/Mol)
 Warning -- explicit consideration of  22 degrees of freedom as
           vibrations may cause significant error
 Vibrational temperatures:     60.84    95.08   169.35   178.61   274.21
          (Kelvin)            356.58   364.57   400.16   450.03   489.28
                              496.44   582.04   599.54   627.59   647.94
                              671.74   707.90   794.21   811.56   839.62
                              847.73   873.05   914.02   919.23   989.19
                             1056.38  1076.16  1112.72  1127.15  1153.90
                             1166.22  1169.90  1200.17  1268.03  1279.89
                             1292.35  1372.63  1383.24  1393.41  1414.95
                             1440.76  1463.55  1485.82  1510.34  1541.27
                             1546.48  1590.50  1595.00  1640.80  1664.07
                             1692.43  1727.54  1753.11  1785.30  1832.87
                             1842.37  1882.18  1911.83  1925.20  1944.53
                             1975.30  2004.59  2077.10  2084.68  2095.50
                             2141.72  2176.86  2194.39  2200.46  2212.13
                             2222.43  2296.65  2345.10  2360.06  2368.88
                             2383.26  2401.65  4377.36  4466.54  4508.88
                             4557.21  4577.92  4585.88  4605.83  4610.00
                             4617.10  4636.92  4663.30  4669.48  4739.55

 Zero-point correction=                           0.258982 (Hartree/Particle)
 Thermal correction to Energy=                    0.272357
 Thermal correction to Enthalpy=                  0.273301
 Thermal correction to Gibbs Free Energy=         0.218986
 Sum of electronic and zero-point Energies=           -748.350796
 Sum of electronic and thermal Energies=              -748.337421
 Sum of electronic and thermal Enthalpies=            -748.336477
 Sum of electronic and thermal Free Energies=         -748.390792

                     E (Thermal)             CV                S
                      KCal/Mol        Cal/Mol-Kelvin    Cal/Mol-Kelvin
 Total                  170.907             56.543            114.316
 Electronic               0.000              0.000              0.000
 Translational            0.889              2.981             42.366
 Rotational               0.889              2.981             33.119
 Vibrational            169.129             50.581             38.831
 Vibration     1          0.595              1.980              5.149
 Vibration     2          0.597              1.970              4.267
 Vibration     3          0.608              1.935              3.138
 Vibration     4          0.610              1.929              3.035
 Vibration     5          0.634              1.853              2.222
 Vibration     6          0.661              1.766              1.746
 Vibration     7          0.665              1.757              1.707
 Vibration     8          0.679              1.714              1.545
 Vibration     9          0.701              1.649              1.348
 Vibration    10          0.720              1.595              1.212
 Vibration    11          0.723              1.585              1.189
 Vibration    12          0.770              1.460              0.946
 Vibration    13          0.780              1.434              0.903
 Vibration    14          0.797              1.391              0.839
 Vibration    15          0.809              1.360              0.795
 Vibration    16          0.824              1.324              0.746
 Vibration    17          0.848              1.268              0.678
 Vibration    18          0.907              1.135              0.540
 Vibration    19          0.920              1.109              0.516
 Vibration    20          0.940              1.067              0.479
 Vibration    21          0.946              1.055              0.469
 Vibration    22          0.966              1.017              0.438

 Optimization completed.
    -- Stationary point found.
 Normal termination of Gaussian 16 at Sat Dec 12 10:23:47 2020.

 ----------------------------------------------------------------------
 # B3LYP/6-311++G(d,p) empiricaldispersion=gd3bj scf=xqc pop=npa geom=c
 heck
 ----------------------------------------------------------------------

 ---------------------------------------
 CID_147256889_JID_9856_Energie_neutraal
 ---------------------------------------
 Structure from the checkpoint file:  "JID_9856.chk"
 Charge =  0 Multiplicity = 1

 SCF Done:  E(RB3LYP) =  -748.786521196     A.U. after   15 cycles
 Normal termination of Gaussian 16 at Sat Dec 12 10:30:13 2020.

 ----------------------------------------------------------------------
 # B3LYP/6-311++G(d,p) empiricaldispersion=gd3bj scf=xqc pop=npa geom=c
 heck
 ----------------------------------------------------------------------

 -------------------------------------
 CID_147256889_JID_9856_Energie_kation
 -------------------------------------
 Structure from the checkpoint file:  "JID_9856.chk"
 Charge =  1 Multiplicity = 2

 SCF Done:  E(UB3LYP) =  -748.503962856     A.U. after   33 cycles
 SCF Done:  E(UB3LYP) =  -748.503962856     a.u. after    2 cycles
 Normal termination of Gaussian 16 at Sat Dec 12 11:08:36 2020.
 Gaussian 16:  ES64L-G16RevA.03 25-Dec-2016

 ----------------------------------------------------------------------
 # B3LYP/6-311++G(d,p) empiricaldispersion=gd3bj scf=xqc pop=npa geom=c
 heck
 ----------------------------------------------------------------------

 ------------------------------------
 CID_147256889_JID_9856_Energie_anion
 ------------------------------------
 Structure from the checkpoint file:  "JID_9856.chk"
 Charge = -1 Multiplicity = 2

                         Standard orientation:
 ---------------------------------------------------------------------
 Center     Atomic      Atomic             Coordinates (Angstroms)
 Number     Number       Type             X           Y           Z
 ---------------------------------------------------------------------
      1          6           0        3.687845    0.248893    0.498783
      2          6           0        2.568879   -0.708801    0.143370
      3          6           0        1.199042   -0.339176   -0.025183
      4          6           0        0.736418    1.053870   -0.075855
      5          6           0       -0.646174    1.351748    0.065659
      6          6           0       -1.631971    0.279183    0.097531
      7          6           0       -3.000803    0.584020    0.230551
      8          6           0       -3.955057   -0.414815    0.185759
      9          6           0       -3.553113   -1.745736   -0.001269
     10          6           0       -2.210473   -2.058107   -0.125796
     11          6           0       -1.212215   -1.060058   -0.070948
     12          6           0        0.220340   -1.375819   -0.126801
     13          6           0        0.643226   -2.715340   -0.223652
     14          6           0        1.980565   -3.052030   -0.161020
     15          6           0        2.926795   -2.051590    0.059209
     16          7           0       -1.126802    2.613393    0.109719
     17          6           0       -0.290104    3.627731   -0.050248
     18          6           0        1.070392    3.449385   -0.320708
     19          6           0        1.573626    2.160092   -0.335963
     20          1           0        4.125195    0.742234   -0.378464
     21          1           0        4.497517   -0.306153    0.981732
     22          1           0        3.361597    1.030193    1.190920
     23          1           0       -3.276283    1.623960    0.355948
     24          1           0       -5.008228   -0.169923    0.288977
     25          1           0       -4.294157   -2.538982   -0.045168
     26          1           0       -1.938433   -3.097580   -0.259982
     27          1           0       -0.086076   -3.507483   -0.332577
     28          1           0        2.288444   -4.090773   -0.237636
     29          1           0        3.971428   -2.321694    0.189042
     30          1           0       -0.721472    4.625858    0.009051
     31          1           0        1.712725    4.300617   -0.523489
     32          1           0        2.612063    2.015260   -0.586898
 ---------------------------------------------------------------------

 SCF Done:  E(UB3LYP) =  -748.793872258     A.U. after   29 cycles

 The electronic state is 2-A.
 Alpha  occ. eigenvalues --  -14.14678 -10.06730 -10.06172 -10.05935 -10.05722
 Alpha  occ. eigenvalues --  -10.05119 -10.05077 -10.04737 -10.04652 -10.04415
 Alpha  occ. eigenvalues --  -10.04367 -10.04283 -10.04233 -10.03949 -10.03830
 Alpha  occ. eigenvalues --  -10.03508 -10.03269 -10.03156 -10.02953  -0.80004
 Alpha  occ. eigenvalues --   -0.74430  -0.72102  -0.67383  -0.66296  -0.65100
 Alpha  occ. eigenvalues --   -0.62471  -0.60108  -0.59098  -0.56749  -0.50600
 Alpha  occ. eigenvalues --   -0.50172  -0.49783  -0.46052  -0.44435  -0.43079
 Alpha  occ. eigenvalues --   -0.40342  -0.37374  -0.36576  -0.36323  -0.33160
 Alpha  occ. eigenvalues --   -0.32589  -0.32102  -0.31354  -0.30547  -0.29302
 Alpha  occ. eigenvalues --   -0.28919  -0.28681  -0.28032  -0.27322  -0.25433
 Alpha  occ. eigenvalues --   -0.25134  -0.24533  -0.23475  -0.22926  -0.22454
 Alpha  occ. eigenvalues --   -0.20675  -0.19482  -0.17190  -0.16217  -0.15196
 Alpha  occ. eigenvalues --   -0.12001  -0.11137  -0.09624  -0.09161   0.04394
 Alpha virt. eigenvalues --    0.07883   0.08397   0.08499   0.08538   0.08759
 Alpha virt. eigenvalues --    0.09577   0.10143   0.11002   0.11495   0.11891
 Alpha virt. eigenvalues --    0.13152   0.13181   0.13640   0.14365   0.14570

  Beta  occ. eigenvalues --  -14.14291 -10.06750 -10.06241 -10.05883 -10.05716
  Beta  occ. eigenvalues --  -10.05161 -10.04943 -10.04635 -10.04631 -10.04435
  Beta  occ. eigenvalues --  -10.04346 -10.04220 -10.04107 -10.03789 -10.03723
  Beta  occ. eigenvalues --  -10.03558 -10.03202 -10.02954 -10.02635  -0.79515
  Beta  occ. eigenvalues --   -0.74173  -0.71918  -0.67071  -0.66108  -0.64765
  Beta  occ. eigenvalues --   -0.62269  -0.59802  -0.58923  -0.56584  -0.50350
  Beta  occ. eigenvalues --   -0.50038  -0.49375  -0.45830  -0.44362  -0.42844
  Beta  occ. eigenvalues --   -0.40242  -0.37240  -0.36467  -0.36156  -0.33005
  Beta  occ. eigenvalues --   -0.32478  -0.31970  -0.31298  -0.30436  -0.29240
  Beta  occ. eigenvalues --   -0.28851  -0.28598  -0.27508  -0.27054  -0.25306
  Beta  occ. eigenvalues --   -0.24934  -0.23801  -0.23353  -0.22519  -0.22264
  Beta  occ. eigenvalues --   -0.20528  -0.19354  -0.16358  -0.14993  -0.14488
  Beta  occ. eigenvalues --   -0.11228  -0.10683  -0.08716  -0.08481
  Beta virt. eigenvalues --    0.07833   0.08410   0.08670   0.08730   0.08911
  Beta virt. eigenvalues --    0.09431   0.09554   0.10107   0.11008   0.11449
  Beta virt. eigenvalues --    0.11879   0.13106   0.13509   0.13968   0.14452

 Mulliken charges and spin densities:
               1          2
     1  C   -0.823271  -0.018523
     2  C    0.225892  -0.063863
     3  C    0.397694   0.115904
     4  C    0.398591  -0.050236
     5  C   -0.461659  -0.021742
     6  C    0.482153   0.147836
     7  C   -0.446740  -0.029714
     8  C   -0.442237   0.092713
     9  C   -0.490710   0.052662
    10  C   -0.786943  -0.000474
    11  C    0.842458   0.070364
    12  C    0.905105   0.047623
    13  C   -0.542691   0.016588
    14  C   -0.513274   0.019048
    15  C   -0.344411   0.148291
    16  N    0.036920   0.176340
    17  C   -0.020556   0.035130
    18  C   -0.524407   0.101725
    19  C   -0.290728   0.195639
    20  H    0.143467   0.010495
    21  H    0.122226   0.000720
    22  H    0.152699  -0.001610
    23  H    0.162544   0.000750
    24  H    0.116382  -0.007259
    25  H    0.125799  -0.005091
    26  H    0.024919   0.002284
    27  H    0.027933  -0.000264
    28  H    0.134401  -0.001341
    29  H    0.086839  -0.010440
    30  H    0.129620  -0.005170
    31  H    0.106145   0.007966
    32  H    0.065841  -0.026350
 Sum of Mulliken charges =  -1.00000   1.00000

 Dipole moment (field-independent basis, Debye):
    X=              2.2861    Y=             -1.8724    Z=              0.0456  Tot=              2.9554
 Quadrupole moment (field-independent basis, Debye-Ang):
   XX=           -137.1071   YY=           -137.7288   ZZ=           -124.1032
   XY=              4.3503   XZ=              0.7803   YZ=             -0.0342

 Summary of Natural Population Analysis:

                                       Natural Population
                Natural  -----------------------------------------------
    Atom  No    Charge         Core      Valence    Rydberg      Total
 -----------------------------------------------------------------------
      C    1   -0.28781      0.99959     2.28334    0.00489     3.28781
      C    2   -0.03223      0.99953     2.02315    0.00955     3.03223
      C    3    0.01232      0.99940     1.97855    0.00972     2.98768
      C    4   -0.06356      0.99945     2.05085    0.01325     3.06356
      C    5    0.15494      0.99940     1.83555    0.01011     2.84506
      C    6   -0.01516      0.99953     1.99835    0.01729     3.01516
      C    7   -0.10074      0.99954     2.08927    0.01192     3.10074
      C    8   -0.09376      0.99957     2.08464    0.00955     3.09376
      C    9   -0.10369      0.99959     2.09407    0.01003     3.10369
      C   10   -0.09563      0.99945     2.08725    0.00893     3.09563
      C   11    0.00397      0.99940     1.98674    0.00990     2.99603
      C   12   -0.00632      0.99944     1.99414    0.01274     3.00632
      C   13   -0.06041      0.99957     2.05581    0.00502     3.06041
      C   14   -0.12433      0.99963     2.10966    0.01503     3.12433
      C   15   -0.07728      0.99942     2.06746    0.01039     3.07728
      N   16   -0.18794      0.99971     2.67774    0.01049     3.68794
      C   17    0.02241      0.99963     1.95590    0.02206     2.97759
      C   18   -0.12265      0.99956     2.11299    0.01010     3.12265
      C   19   -0.03255      0.99956     2.02276    0.01024     3.03255
      H   20    0.09581      0.00000     0.40293    0.00125     0.40419
      H   21    0.09441      0.00000     0.40419    0.00140     0.40559
      H   22    0.10667      0.00000     0.39217    0.00116     0.39333
      H   23    0.11278      0.00000     0.38643    0.00079     0.38722
      H   24    0.08954      0.00000     0.40934    0.00113     0.41046
      H   25    0.08937      0.00000     0.40950    0.00112     0.41063
      H   26    0.09017      0.00000     0.40749    0.00234     0.40983
      H   27    0.09341      0.00000     0.40585    0.00074     0.40659
      H   28    0.08922      0.00000     0.40823    0.00255     0.41078
      H   29    0.09068      0.00000     0.40873    0.00059     0.40932
      H   30    0.07655      0.00000     0.42159    0.00186     0.42345
      H   31    0.09092      0.00000     0.40784    0.00124     0.40908
      H   32    0.09167      0.00000     0.40677    0.00156     0.40833
 =======================================================================
   * Total *    0.00079     18.99098    44.77927    0.22896    63.99921

 Normal termination of Gaussian 16 at Sat Dec 12 11:26:32 2020.
