 Gaussian 16, Revision A.03,

 -----------------------------------------------------------
 # opt freq B3LYP/6-31G(d) empiricaldispersion=gd3bj scf=xqc
 -----------------------------------------------------------

 ---------------------------
 CID_351353_JID_261_neutraal
 ---------------------------
 Symbolic Z-matrix:
 Charge =  0 Multiplicity = 1

 SCF Done:  E(RB3LYP) =  -1155.37503911     A.U. after   15 cycles
 SCF Done:  E(RB3LYP) =  -1155.38152668     A.U. after   13 cycles
 SCF Done:  E(RB3LYP) =  -1155.38123122     A.U. after   14 cycles
 SCF Done:  E(RB3LYP) =  -1155.38220054     A.U. after   13 cycles
 SCF Done:  E(RB3LYP) =  -1155.38257982     A.U. after   13 cycles
 SCF Done:  E(RB3LYP) =  -1155.38262176     A.U. after   11 cycles
 SCF Done:  E(RB3LYP) =  -1155.38263417     A.U. after   10 cycles
 SCF Done:  E(RB3LYP) =  -1155.38263791     A.U. after    9 cycles
 SCF Done:  E(RB3LYP) =  -1155.38263905     A.U. after    8 cycles
 Optimization completed.
    -- Stationary point found.
 Normal termination of Gaussian 16 at Tue Dec  8 10:20:29 2020.

 --------------------------------------------------------------------
 #N Geom=AllCheck Guess=TCheck SCRF=Check GenChk RB3LYP/6-31G(d) Freq
 --------------------------------------------------------------------

 Structure from the checkpoint file:  "JID_261.chk"
 ---------------------------
 CID_351353_JID_261_neutraal
 ---------------------------
 Charge =  0 Multiplicity = 1

 SCF Done:  E(RB3LYP) =  -1155.38263905     A.U. after    1 cycles

  Exact polarizability: 119.460  -2.497  91.629  -0.202  -5.176  84.617
 Approx polarizability: 169.143  -0.120 157.401  -3.342 -19.731 156.875

                      1                      2                      3
                      A                      A                      A
 Frequencies --     54.2187                77.8720               125.5614
 Red. masses --      6.0925                11.8706                 9.2135
 Frc consts  --      0.0106                 0.0424                 0.0856
 IR Inten    --      0.9911                 0.1972                 4.6272

                      4                      5                      6
                      A                      A                      A
 Frequencies --    154.4509               202.8810               258.3719
 Red. masses --      3.8057                 7.2172                 3.2525
 Frc consts  --      0.0535                 0.1750                 0.1279
 IR Inten    --      5.6245                 1.0115                 3.4408

                      7                      8                      9
                      A                      A                      A
 Frequencies --    292.1634               322.4898               374.3742
 Red. masses --      1.1340                 6.4568                 2.2374
 Frc consts  --      0.0570                 0.3956                 0.1848
 IR Inten    --      0.4698                 2.2187                28.5413

                     10                     11                     12
                      A                      A                      A
 Frequencies --    396.4278               401.0352               430.1007
 Red. masses --      1.4867                 9.3521                 4.0179
 Frc consts  --      0.1377                 0.8862                 0.4379
 IR Inten    --     28.3492                 1.6687                22.8924

                     13                     14                     15
                      A                      A                      A
 Frequencies --    469.2161               539.4483               561.7902
 Red. masses --      5.9190                 1.7896                 5.5876
 Frc consts  --      0.7678                 0.3068                 1.0390
 IR Inten    --      5.1470               167.5400                 0.0343

                     16                     17                     18
                      A                      A                      A
 Frequencies --    609.8334               644.7314               659.7638
 Red. masses --      6.1525                 3.8617                 5.7085
 Frc consts  --      1.3481                 0.9458                 1.4640
 IR Inten    --     13.4985               101.1074                22.5628

                     19                     20                     21
                      A                      A                      A
 Frequencies --    683.6609               709.6926               826.8958
 Red. masses --      3.9789                 9.7325                 3.7112
 Frc consts  --      1.0957                 2.8881                 1.4951
 IR Inten    --     13.3170                 4.4182                19.2170

                     22                     23                     24
                      A                      A                      A
 Frequencies --    843.1841               932.8865              1068.3850
 Red. masses --      3.3707                 2.5207                 2.0219
 Frc consts  --      1.4119                 1.2925                 1.3598
 IR Inten    --     13.6445                46.0017                14.2682

                     25                     26                     27
                      A                      A                      A
 Frequencies --   1085.7185              1131.7622              1210.6989
 Red. masses --      1.4611                 2.3260                 2.2392
 Frc consts  --      1.0148                 1.7554                 1.9338
 IR Inten    --     10.0542                13.8990                15.7968

                     28                     29                     30
                      A                      A                      A
 Frequencies --   1232.9777              1293.1937              1298.9637
 Red. masses --      1.1944                 1.3461                 1.5079
 Frc consts  --      1.0698                 1.3263                 1.4991
 IR Inten    --     16.1087                26.7879                26.1573

                     31                     32                     33
                      A                      A                      A
 Frequencies --   1351.9402              1381.3308              1437.2228
 Red. masses --      1.9848                 1.3174                 1.2492
 Frc consts  --      2.1374                 1.4811                 1.5203
 IR Inten    --    108.5847                13.1266                 7.7718

                     34                     35                     36
                      A                      A                      A
 Frequencies --   1522.2639              1527.8115              1650.8735
 Red. masses --      1.0484                 1.0428                 1.2378
 Frc consts  --      1.4314                 1.4341                 1.9875
 IR Inten    --      8.1315                 8.0206                42.6035

                     37                     38                     39
                      A                      A                      A
 Frequencies --   1733.4347              2285.5554              3060.9809
 Red. masses --      6.0575                12.7514                 1.0855
 Frc consts  --     10.7241                39.2456                 5.9924
 IR Inten    --    323.4819                12.1119                18.5291

                     40                     41                     42
                      A                      A                      A
 Frequencies --   3071.8956              3088.3354              3145.8138
 Red. masses --      1.0347                 1.0860                 1.1030
 Frc consts  --      5.7530                 6.1028                 6.4312
 IR Inten    --      9.9927                10.9221                16.1007

                     43                     44                     45
                      A                      A                      A
 Frequencies --   3154.0170              3559.4852              3670.8692
 Red. masses --      1.1035                 1.0466                 1.1005
 Frc consts  --      6.4674                 7.8131                 8.7375
 IR Inten    --     13.5054                42.3010                28.5983

 - Thermochemistry -
 -------------------
 Temperature   298.150 Kelvin.  Pressure   1.00000 Atm.
 Atom     1 has atomic number  6 and mass  12.00000

 Molecular mass:   173.00814 amu.
 Principal axes and moments of inertia in atomic units:
                           1         2         3
     Eigenvalues --  1035.922622547.007712744.02019
           X            0.99988  -0.01521   0.00370
           Y            0.01496   0.99813   0.05923
           Z           -0.00460  -0.05917   0.99824
 This molecule is an asymmetric top.
 Rotational symmetry number  1.
 Warning -- assumption of classical behavior for rotation
           may cause significant error
 Rotational temperatures (Kelvin)      0.08361     0.03401     0.03156
 Rotational constants (GHZ):           1.74216     0.70857     0.65770
 Zero-point vibrational energy     326189.2 (Joules/Mol)
                                   77.96110 (Kcal/Mol)
 Warning -- explicit consideration of  16 degrees of freedom as
           vibrations may cause significant error
 Vibrational temperatures:     78.01   112.04   180.65   222.22   291.90
          (Kelvin)            371.74   420.36   463.99   538.64   570.37
                              577.00   618.82   675.10   776.15   808.29
                              877.41   927.62   949.25   983.64  1021.09
                             1189.72  1213.15  1342.22  1537.17  1562.11
                             1628.35  1741.93  1773.98  1860.62  1868.92
                             1945.14  1987.43  2067.84  2190.20  2198.18
                             2375.24  2494.03  3288.40  4404.07  4419.77
                             4443.43  4526.12  4537.93  5121.31  5281.56

 Zero-point correction=                           0.124239 (Hartree/Particle)
 Thermal correction to Energy=                    0.134718
 Thermal correction to Enthalpy=                  0.135662
 Thermal correction to Gibbs Free Energy=         0.087746
 Sum of electronic and zero-point Energies=          -1155.258400
 Sum of electronic and thermal Energies=             -1155.247921
 Sum of electronic and thermal Enthalpies=           -1155.246977
 Sum of electronic and thermal Free Energies=        -1155.294893

                     E (Thermal)             CV                S
                      KCal/Mol        Cal/Mol-Kelvin    Cal/Mol-Kelvin
 Total                   84.537             38.361            100.849
 Electronic               0.000              0.000              0.000
 Translational            0.889              2.981             41.352
 Rotational               0.889              2.981             30.361
 Vibrational             82.759             32.399             29.136
 Vibration     1          0.596              1.976              4.657
 Vibration     2          0.599              1.964              3.944
 Vibration     3          0.611              1.928              3.013
 Vibration     4          0.620              1.898              2.617
 Vibration     5          0.639              1.836              2.107
 Vibration     6          0.667              1.749              1.673
 Vibration     7          0.688              1.688              1.461
 Vibration     8          0.707              1.630              1.297
 Vibration     9          0.745              1.525              1.062
 Vibration    10          0.763              1.478              0.976
 Vibration    11          0.767              1.468              0.959
 Vibration    12          0.791              1.405              0.858
 Vibration    13          0.826              1.318              0.740
 Vibration    14          0.895              1.163              0.566
 Vibration    15          0.917              1.114              0.520
 Vibration    16          0.969              1.011              0.433

                           ! Non-Optimized Parameters !
 Normal termination of Gaussian 16 at Tue Dec  8 10:23:32 2020.

 ----------------------------------------------------------------------
 # B3LYP/6-311++G(d,p) empiricaldispersion=gd3bj scf=xqc pop=npa geom=c
 heck
 ----------------------------------------------------------------------

 -----------------------------------
 CID_351353_JID_261_Energie_neutraal
 -----------------------------------
 Structure from the checkpoint file:  "JID_261.chk"
 Charge =  0 Multiplicity = 1

 SCF Done:  E(RB3LYP) =  -1155.54312301     A.U. after   16 cycles
 Normal termination of Gaussian 16 at Tue Dec  8 10:24:42 2020.

 ----------------------------------------------------------------------
 # B3LYP/6-311++G(d,p) empiricaldispersion=gd3bj scf=xqc pop=npa geom=c
 heck
 ----------------------------------------------------------------------

 ---------------------------------
 CID_351353_JID_261_Energie_kation
 ---------------------------------
 Structure from the checkpoint file:  "JID_261.chk"
 Charge =  1 Multiplicity = 2

 SCF Done:  E(UB3LYP) =  -1155.22158489     A.U. after   25 cycles
 Normal termination of Gaussian 16 at Tue Dec  8 10:27:50 2020.
 Gaussian 16:  ES64L-G16RevA.03 25-Dec-2016

 ----------------------------------------------------------------------
 # B3LYP/6-311++G(d,p) empiricaldispersion=gd3bj scf=xqc pop=npa geom=c
 heck
 ----------------------------------------------------------------------

 --------------------------------
 CID_351353_JID_261_Energie_anion
 --------------------------------
 Structure from the checkpoint file:  "JID_261.chk"
 Charge = -1 Multiplicity = 2

                         Standard orientation:
 ---------------------------------------------------------------------
 Center     Atomic      Atomic             Coordinates (Angstroms)
 Number     Number       Type             X           Y           Z
 ---------------------------------------------------------------------
      1          6           0       -0.258882    1.963625    0.744691
      2          6           0        0.408334    1.351880   -0.488052
      3          6           0       -0.193431   -0.006033   -0.973877
      4         16           0        0.709776   -1.306388   -0.039994
      5          6           0        2.057927   -0.105652    0.096675
      6          7           0        1.821436    1.108357   -0.216820
      7          7           0        3.248886   -0.571592    0.585796
      8         16           0       -2.024656   -0.196875   -0.971734
      9          6           0       -2.380027   -0.373116    0.681868
     10          7           0       -2.697678   -0.510502    1.794824
     11          1           0       -1.291313    2.260336    0.538486
     12          1           0        0.306394    2.852247    1.038386
     13          1           0       -0.255057    1.261687    1.582962
     14          1           0        0.324743    2.056843   -1.323450
     15          1           0        0.025778   -0.136334   -2.038516
     16          1           0        3.513189   -1.515103    0.335200
     17          1           0        4.002295    0.104474    0.540150
 ---------------------------------------------------------------------

 SCF Done:  E(UB3LYP) =  -1155.53923110     A.U. after   31 cycles

 The electronic state is 2-A.
 Alpha  occ. eigenvalues --  -88.77802 -88.75060 -14.23008 -14.18990 -14.18660
 Alpha  occ. eigenvalues --  -10.16361 -10.12918 -10.10893 -10.10172 -10.05498
 Alpha  occ. eigenvalues --   -7.86198  -7.83702  -5.82650  -5.82193  -5.81595
 Alpha  occ. eigenvalues --   -5.80049  -5.79755  -5.79089  -0.86709  -0.79603
 Alpha  occ. eigenvalues --   -0.78929  -0.71614  -0.65304  -0.64199  -0.56691
 Alpha  occ. eigenvalues --   -0.49773  -0.46840  -0.42146  -0.39619  -0.36780
 Alpha  occ. eigenvalues --   -0.35735  -0.33717  -0.29901  -0.28474  -0.27957
 Alpha  occ. eigenvalues --   -0.27388  -0.26132  -0.25444  -0.24721  -0.23108
 Alpha  occ. eigenvalues --   -0.21269  -0.16946  -0.15833  -0.14264  -0.12544
 Alpha  occ. eigenvalues --    0.04428
 Alpha virt. eigenvalues --    0.06057   0.08235   0.08954   0.09720   0.10364
 Alpha virt. eigenvalues --    0.11328   0.11624   0.12180   0.12879   0.13358
 Alpha virt. eigenvalues --    0.14137   0.14633   0.15081   0.15975   0.16375

  Beta  occ. eigenvalues --  -88.77782 -88.75049 -14.22956 -14.18782 -14.18655
  Beta  occ. eigenvalues --  -10.16358 -10.12694 -10.10878 -10.10132 -10.05495
  Beta  occ. eigenvalues --   -7.86178  -7.83692  -5.82574  -5.82180  -5.81587
  Beta  occ. eigenvalues --   -5.80020  -5.79747  -5.79083  -0.86664  -0.79474
  Beta  occ. eigenvalues --   -0.78658  -0.71319  -0.65242  -0.64029  -0.56537
  Beta  occ. eigenvalues --   -0.49519  -0.46743  -0.42035  -0.39447  -0.36654
  Beta  occ. eigenvalues --   -0.35585  -0.33516  -0.29848  -0.28348  -0.27796
  Beta  occ. eigenvalues --   -0.27125  -0.25979  -0.25313  -0.24391  -0.22963
  Beta  occ. eigenvalues --   -0.20556  -0.16878  -0.15782  -0.14163  -0.12502
  Beta virt. eigenvalues --    0.07333   0.07845   0.08821   0.09645   0.10088
  Beta virt. eigenvalues --    0.10938   0.11602   0.12216   0.12539   0.12916
  Beta virt. eigenvalues --    0.13531   0.14315   0.14738   0.15210   0.16084

 Mulliken charges and spin densities:
               1          2
     1  C   -0.270336  -0.112367
     2  C    0.028230  -0.973014
     3  C    1.449278  -0.850395
     4  S    0.148164  -0.291878
     5  C   -0.171393  -0.035831
     6  N   -0.008621  -0.023642
     7  N   -0.324357   0.116410
     8  S   -0.226677   0.339630
     9  C   -0.143380   0.039542
    10  N   -0.316847   0.103376
    11  H    0.129155  -0.008471
    12  H    0.095548   0.048755
    13  H    0.180527   0.008078
    14  H   -0.166947   0.358509
    15  H   -0.893199   1.259697
    16  H   -0.302370   0.549347
    17  H   -0.206775   0.472256
 Sum of Mulliken charges =  -1.00000   1.00000

 Dipole moment (field-independent basis, Debye):
    X=             -1.9074    Y=              1.3875    Z=              0.8248  Tot=              2.4988
 Quadrupole moment (field-independent basis, Debye-Ang):
   XX=           -127.3638   YY=            -94.1786   ZZ=           -109.9532
   XY=             -0.8084   XZ=              7.1948   YZ=              2.5667

 Summary of Natural Population Analysis:

                                       Natural Population
                Natural  -----------------------------------------------
    Atom  No    Charge         Core      Valence    Rydberg      Total
 -----------------------------------------------------------------------
      C    1   -0.29502      0.99963     2.28875    0.00663     3.29502
      C    2   -0.02543      0.99955     2.00905    0.01683     3.02543
      C    3   -0.21642      0.99953     2.19995    0.01693     3.21642
      S    4    0.10475      4.99949     2.87745    0.01831     7.89525
      C    5    0.16068      0.99957     1.81756    0.02219     2.83932
      N    6   -0.28318      0.99963     2.76934    0.01421     3.78318
      N    7   -0.39969      0.99968     2.88843    0.01158     3.89969
      S    8    0.16771      4.99936     2.81155    0.02137     7.83229
      C    9    0.02553      0.99957     1.95394    0.02095     2.97447
      N   10   -0.16117      0.99979     2.64839    0.01299     3.66117
      H   11    0.10218      0.00000     0.39700    0.00082     0.39782
      H   12    0.10287      0.00000     0.39626    0.00086     0.39713
      H   13    0.10839      0.00000     0.39077    0.00084     0.39161
      H   14    0.10071      0.00000     0.39758    0.00171     0.39929
      H   15    0.11781      0.00000     0.37496    0.00722     0.38219
      H   16    0.19463      0.00000     0.30079    0.00459     0.30537
      H   17    0.19564      0.00000     0.30030    0.00405     0.30436
 =======================================================================
   * Total *   -0.00000     17.99580    26.82209    0.18211    45.00000

 Normal termination of Gaussian 16 at Tue Dec  8 10:31:43 2020.
