 Gaussian 16, Revision A.03,

 -----------------------------------------------------------
 # opt freq B3LYP/6-31G(d) empiricaldispersion=gd3bj scf=xqc
 -----------------------------------------------------------

 ------------------------------
 CID_84149189_JID_7469_neutraal
 ------------------------------
 Symbolic Z-matrix:
 Charge =  0 Multiplicity = 1

 SCF Done:  E(RB3LYP) =  -807.178600305     A.U. after   15 cycles
 SCF Done:  E(RB3LYP) =  -807.182850336     A.U. after   13 cycles
 SCF Done:  E(RB3LYP) =  -807.182065944     A.U. after   13 cycles
 SCF Done:  E(RB3LYP) =  -807.184063185     A.U. after   11 cycles
 SCF Done:  E(RB3LYP) =  -807.183755758     A.U. after   12 cycles
 SCF Done:  E(RB3LYP) =  -807.184291834     A.U. after   12 cycles
 SCF Done:  E(RB3LYP) =  -807.184396709     A.U. after   11 cycles
 SCF Done:  E(RB3LYP) =  -807.184437617     A.U. after   10 cycles
 SCF Done:  E(RB3LYP) =  -807.184506531     A.U. after   11 cycles
 SCF Done:  E(RB3LYP) =  -807.184618384     A.U. after   12 cycles
 SCF Done:  E(RB3LYP) =  -807.188116604     A.U. after    8 cycles
 SCF Done:  E(RB3LYP) =  -807.188116715     A.U. after    7 cycles
 SCF Done:  E(RB3LYP) =  -807.188116777     A.U. after    7 cycles
 SCF Done:  E(RB3LYP) =  -807.188116804     A.U. after    7 cycles
 SCF Done:  E(RB3LYP) =  -807.188116812     A.U. after    6 cycles
 Optimization completed.
    -- Stationary point found.
 Normal termination of Gaussian 16 at Fri Dec 11 12:24:15 2020.

 --------------------------------------------------------------------
 #N Geom=AllCheck Guess=TCheck SCRF=Check GenChk RB3LYP/6-31G(d) Freq
 --------------------------------------------------------------------

 Structure from the checkpoint file:  "JID_7469.chk"
 ------------------------------
 CID_84149189_JID_7469_neutraal
 ------------------------------
 Charge =  0 Multiplicity = 1

 SCF Done:  E(RB3LYP) =  -807.188116812     A.U. after    1 cycles

  Exact polarizability: 192.175  -3.406 149.210  15.870   1.234 100.613
 Approx polarizability: 261.302  -8.977 242.879  32.582  -1.973 147.180

                      1                      2                      3
                      A                      A                      A
 Frequencies --     27.5320                37.9966                43.7449
 Red. masses --      3.3794                 3.6937                 5.3517
 Frc consts  --      0.0015                 0.0031                 0.0060
 IR Inten    --      0.0184                 0.4385                 0.6227

                      4                      5                      6
                      A                      A                      A
 Frequencies --     52.4457                82.2803               103.6972
 Red. masses --      4.7998                 4.3167                 6.9279
 Frc consts  --      0.0078                 0.0172                 0.0439
 IR Inten    --      0.2370                 1.8581                 0.9447

                      7                      8                      9
                      A                      A                      A
 Frequencies --    130.0688               159.3007               169.9148
 Red. masses --      4.2754                 3.3335                 3.6620
 Frc consts  --      0.0426                 0.0498                 0.0623
 IR Inten    --      2.5545                 0.6261                 0.6802

                     10                     11                     12
                      A                      A                      A
 Frequencies --    209.6935               236.0407               240.0368
 Red. masses --      2.3955                 1.0876                 2.2564
 Frc consts  --      0.0621                 0.0357                 0.0766
 IR Inten    --      0.8237                 0.1932                 0.9786

                     13                     14                     15
                      A                      A                      A
 Frequencies --    253.1104               265.2044               289.4340
 Red. masses --      1.6849                 1.3304                 3.9289
 Frc consts  --      0.0636                 0.0551                 0.1939
 IR Inten    --      0.5410                 1.9976                 9.6329

                     16                     17                     18
                      A                      A                      A
 Frequencies --    291.5557               318.5182               335.3490
 Red. masses --      2.6458                 3.2262                 3.1797
 Frc consts  --      0.1325                 0.1928                 0.2107
 IR Inten    --      2.9647                 0.9465                 2.1039

                     19                     20                     21
                      A                      A                      A
 Frequencies --    354.4922               411.0218               421.2068
 Red. masses --      2.7288                 1.5294                 2.2211
 Frc consts  --      0.2020                 0.1522                 0.2322
 IR Inten    --      0.7429                68.2015                33.3425

                     22                     23                     24
                      A                      A                      A
 Frequencies --    450.8237               472.0768               488.7702
 Red. masses --      3.0878                 4.4310                 3.1558
 Frc consts  --      0.3698                 0.5818                 0.4442
 IR Inten    --      1.2502                11.2456                 1.7746

                     25                     26                     27
                      A                      A                      A
 Frequencies --    530.5674               557.6337               596.6207
 Red. masses --      4.0547                 4.3304                 3.2181
 Frc consts  --      0.6725                 0.7934                 0.6749
 IR Inten    --      3.8362                 8.8292                 1.1994

                     28                     29                     30
                      A                      A                      A
 Frequencies --    612.9656               656.9432               667.4661
 Red. masses --      1.3086                 4.3854                 3.8427
 Frc consts  --      0.2897                 1.1151                 1.0086
 IR Inten    --     93.0388                10.9963                34.5952

                     31                     32                     33
                      A                      A                      A
 Frequencies --    718.9726               744.9564               766.6811
 Red. masses --      3.8518                 3.6390                 3.3508
 Frc consts  --      1.1731                 1.1899                 1.1605
 IR Inten    --      2.2225                23.0885                36.7335

                     34                     35                     36
                      A                      A                      A
 Frequencies --    806.0493               817.0808               844.0924
 Red. masses --      2.6717                 3.2119                 1.6255
 Frc consts  --      1.0227                 1.2634                 0.6824
 IR Inten    --      9.0459                 3.9998                19.9445

                     37                     38                     39
                      A                      A                      A
 Frequencies --    867.5321               881.0154               942.8223
 Red. masses --      1.5543                 3.3076                 1.1713
 Frc consts  --      0.6892                 1.5126                 0.6135
 IR Inten    --     14.0143                 2.4313                 0.6842

                     40                     41                     42
                      A                      A                      A
 Frequencies --    949.8737               960.2149               975.1352
 Red. masses --      1.3211                 2.8741                 1.4934
 Frc consts  --      0.7023                 1.5613                 0.8366
 IR Inten    --      0.2354                10.0228                 0.0700

                     43                     44                     45
                      A                      A                      A
 Frequencies --    992.0443              1041.1700              1084.2788
 Red. masses --      2.0557                 4.3936                 4.7370
 Frc consts  --      1.1920                 2.8062                 3.2812
 IR Inten    --     57.2171                 7.1559                38.4499

                     46                     47                     48
                      A                      A                      A
 Frequencies --   1089.0507              1108.1810              1135.6083
 Red. masses --      1.5647                 4.4772                 2.3004
 Frc consts  --      1.0934                 3.2395                 1.7479
 IR Inten    --      7.0118               175.0543                 0.5569

                     49                     50                     51
                      A                      A                      A
 Frequencies --   1155.1119              1185.2769              1186.1658
 Red. masses --      1.9074                 1.9278                 1.2811
 Frc consts  --      1.4995                 1.5957                 1.0620
 IR Inten    --     37.6373                98.8931                 1.5215

                     52                     53                     54
                      A                      A                      A
 Frequencies --   1189.2510              1202.8269              1212.6885
 Red. masses --      1.6957                 1.3668                 1.6684
 Frc consts  --      1.4130                 1.1651                 1.4456
 IR Inten    --      8.7473                31.0985                13.6051

                     55                     56                     57
                      A                      A                      A
 Frequencies --   1233.0909              1241.0452              1281.9326
 Red. masses --      1.7224                 1.6817                 1.3262
 Frc consts  --      1.5431                 1.5260                 1.2841
 IR Inten    --     10.2742                 7.3753                28.5891

                     58                     59                     60
                      A                      A                      A
 Frequencies --   1306.1124              1323.1793              1334.2863
 Red. masses --      3.5559                 1.5930                 1.6970
 Frc consts  --      3.5740                 1.6433                 1.7800
 IR Inten    --    109.7845                21.4001                21.9412

                     61                     62                     63
                      A                      A                      A
 Frequencies --   1361.6572              1362.8414              1375.8987
 Red. masses --      2.0364                 1.3272                 1.4324
 Frc consts  --      2.2246                 1.4524                 1.5977
 IR Inten    --      1.6680                 3.0229                23.6214

                     64                     65                     66
                      A                      A                      A
 Frequencies --   1387.6994              1393.3785              1426.3617
 Red. masses --      1.5865                 2.1968                 1.2292
 Frc consts  --      1.8001                 2.5129                 1.4734
 IR Inten    --     76.1702                23.7862                 2.9632

                     67                     68                     69
                      A                      A                      A
 Frequencies --   1447.0294              1471.7942              1487.6343
 Red. masses --      1.2302                 1.9863                 1.6048
 Frc consts  --      1.5177                 2.5350                 2.0924
 IR Inten    --      0.2076                62.4981                21.7187

                     70                     71                     72
                      A                      A                      A
 Frequencies --   1505.0348              1514.5303              1517.2641
 Red. masses --      1.2868                 1.2077                 1.0440
 Frc consts  --      1.7173                 1.6322                 1.4160
 IR Inten    --      2.1499                 7.4606                 0.0240

                     73                     74                     75
                      A                      A                      A
 Frequencies --   1519.9382              1520.9705              1532.3937
 Red. masses --      1.0490                 1.0487                 1.0502
 Frc consts  --      1.4279                 1.4294                 1.4529
 IR Inten    --      4.6023                 2.4797                13.3836

                     76                     77                     78
                      A                      A                      A
 Frequencies --   1534.2875              1538.7209              1563.1573
 Red. masses --      1.1000                 1.0713                 2.5155
 Frc consts  --      1.5257                 1.4944                 3.6214
 IR Inten    --     44.2625                 3.4321                31.8418

                     79                     80                     81
                      A                      A                      A
 Frequencies --   1640.0679              1672.2885              1831.3924
 Red. masses --      6.4544                 6.3037                 9.5872
 Frc consts  --     10.2289                10.3866                18.9454
 IR Inten    --     25.1298                40.6156               272.1739

                     82                     83                     84
                      A                      A                      A
 Frequencies --   3023.5072              3030.9387              3045.1365
 Red. masses --      1.0355                 1.0841                 1.0347
 Frc consts  --      5.5775                 5.8680                 5.6528
 IR Inten    --     45.8401                21.3878                26.1698

                     85                     86                     87
                      A                      A                      A
 Frequencies --   3049.3059              3074.1164              3082.4677
 Red. masses --      1.0352                 1.0596                 1.1055
 Frc consts  --      5.6714                 5.8996                 6.1890
 IR Inten    --     34.2225                17.4586                41.9718

                     88                     89                     90
                      A                      A                      A
 Frequencies --   3089.2589              3110.2434              3116.3490
 Red. masses --      1.0860                 1.1026                 1.1019
 Frc consts  --      6.1062                 6.2842                 6.3049
 IR Inten    --     16.5068                 0.1869                84.2867

                     91                     92                     93
                      A                      A                      A
 Frequencies --   3121.5766              3123.5222              3125.1033
 Red. masses --      1.1029                 1.1023                 1.1052
 Frc consts  --      6.3317                 6.3364                 6.3594
 IR Inten    --     23.5362                32.0171                12.7745

                     94                     95                     96
                      A                      A                      A
 Frequencies --   3161.2820              3175.5682              3199.1340
 Red. masses --      1.0998                 1.0877                 1.0929
 Frc consts  --      6.4755                 6.4623                 6.5902
 IR Inten    --     18.6233                14.6274                20.7994

                     97                     98                     99
                      A                      A                      A
 Frequencies --   3210.9311              3670.5487              3677.8281
 Red. masses --      1.0890                 1.0650                 1.0638
 Frc consts  --      6.6150                 8.4538                 8.4784
 IR Inten    --      9.2214                57.2592                27.5833

 - Thermochemistry -
 -------------------
 Temperature   298.150 Kelvin.  Pressure   1.00000 Atm.
 Atom     1 has atomic number  6 and mass  12.00000

 Molecular mass:   238.12051 amu.
 Principal axes and moments of inertia in atomic units:
                           1         2         3
     Eigenvalues --  1994.367066983.298447672.50426
           X            0.99996  -0.00175   0.00913
           Y            0.00181   0.99998  -0.00610
           Z           -0.00912   0.00612   0.99994
 This molecule is an asymmetric top.
 Rotational symmetry number  1.
 Warning -- assumption of classical behavior for rotation
           may cause significant error
 Rotational temperatures (Kelvin)      0.04343     0.01240     0.01129
 Rotational constants (GHZ):           0.90492     0.25844     0.23522
 Zero-point vibrational energy     775978.0 (Joules/Mol)
                                  185.46320 (Kcal/Mol)
 Warning -- explicit consideration of  28 degrees of freedom as
           vibrations may cause significant error
 Vibrational temperatures:     39.61    54.67    62.94    75.46   118.38
          (Kelvin)            149.20   187.14   229.20   244.47   301.70
                              339.61   345.36   364.17   381.57   416.43
                              419.48   458.28   482.49   510.04   591.37
                              606.02   648.63   679.21   703.23   763.37
                              802.31   858.40   881.92   945.19   960.33
                             1034.44  1071.83  1103.08  1159.73  1175.60
                             1214.46  1248.19  1267.58  1356.51  1366.66
                             1381.54  1403.00  1427.33  1498.01  1560.04
                             1566.90  1594.43  1633.89  1661.95  1705.35
                             1706.63  1711.07  1730.60  1744.79  1774.14
                             1785.59  1844.42  1879.20  1903.76  1919.74
                             1959.12  1960.82  1979.61  1996.59  2004.76
                             2052.22  2081.95  2117.58  2140.37  2165.41
                             2179.07  2183.00  2186.85  2188.34  2204.77
                             2207.50  2213.88  2249.03  2359.69  2406.05
                             2634.97  4350.15  4360.84  4381.27  4387.27
                             4422.97  4434.98  4444.75  4474.95  4483.73
                             4491.25  4494.05  4496.33  4548.38  4568.93
                             4602.84  4619.81  5281.10  5291.57

 Zero-point correction=                           0.295554 (Hartree/Particle)
 Thermal correction to Energy=                    0.313260
 Thermal correction to Enthalpy=                  0.314205
 Thermal correction to Gibbs Free Energy=         0.248980
 Sum of electronic and zero-point Energies=           -806.892562
 Sum of electronic and thermal Energies=              -806.874856
 Sum of electronic and thermal Enthalpies=            -806.873912
 Sum of electronic and thermal Free Energies=         -806.939137

                     E (Thermal)             CV                S
                      KCal/Mol        Cal/Mol-Kelvin    Cal/Mol-Kelvin
 Total                  196.574             66.091            137.277
 Electronic               0.000              0.000              0.000
 Translational            0.889              2.981             42.304
 Rotational               0.889              2.981             33.035
 Vibrational            194.796             60.129             61.937
 Vibration     1          0.593              1.984              6.000
 Vibration     2          0.594              1.982              5.361
 Vibration     3          0.595              1.980              5.082
 Vibration     4          0.596              1.977              4.723
 Vibration     5          0.600              1.961              3.836
 Vibration     6          0.605              1.946              3.384
 Vibration     7          0.612              1.923              2.945
 Vibration     8          0.621              1.892              2.558
 Vibration     9          0.625              1.880              2.436
 Vibration    10          0.642              1.826              2.046
 Vibration    11          0.655              1.786              1.833
 Vibration    12          0.657              1.779              1.803
 Vibration    13          0.664              1.758              1.709
 Vibration    14          0.671              1.737              1.627
 Vibration    15          0.686              1.693              1.477
 Vibration    16          0.687              1.689              1.465
 Vibration    17          0.705              1.638              1.318
 Vibration    18          0.716              1.605              1.234
 Vibration    19          0.730              1.566              1.146
 Vibration    20          0.775              1.446              0.923
 Vibration    21          0.784              1.424              0.888
 Vibration    22          0.810              1.359              0.793
 Vibration    23          0.829              1.312              0.732
 Vibration    24          0.845              1.275              0.687
 Vibration    25          0.886              1.182              0.586
 Vibration    26          0.913              1.123              0.529
 Vibration    27          0.954              1.039              0.456
 Vibration    28          0.972              1.004              0.428

 Optimization completed.
    -- Stationary point found.
 Normal termination of Gaussian 16 at Fri Dec 11 12:37:22 2020.

 ----------------------------------------------------------------------
 # B3LYP/6-311++G(d,p) empiricaldispersion=gd3bj scf=xqc pop=npa geom=c
 heck
 ----------------------------------------------------------------------

 --------------------------------------
 CID_84149189_JID_7469_Energie_neutraal
 --------------------------------------
 Structure from the checkpoint file:  "JID_7469.chk"
 Charge =  0 Multiplicity = 1

 SCF Done:  E(RB3LYP) =  -807.431776191     A.U. after   16 cycles
 Normal termination of Gaussian 16 at Fri Dec 11 12:44:25 2020.

 ----------------------------------------------------------------------
 # B3LYP/6-311++G(d,p) empiricaldispersion=gd3bj scf=xqc pop=npa geom=c
 heck
 ----------------------------------------------------------------------

 ------------------------------------
 CID_84149189_JID_7469_Energie_kation
 ------------------------------------
 Structure from the checkpoint file:  "JID_7469.chk"
 Charge =  1 Multiplicity = 2

 SCF Done:  E(UB3LYP) =  -807.142061595     A.U. after   23 cycles
 Normal termination of Gaussian 16 at Fri Dec 11 13:00:57 2020.
 Gaussian 16:  ES64L-G16RevA.03 25-Dec-2016

 ----------------------------------------------------------------------
 # B3LYP/6-311++G(d,p) empiricaldispersion=gd3bj scf=xqc pop=npa geom=c
 heck
 ----------------------------------------------------------------------

 -----------------------------------
 CID_84149189_JID_7469_Energie_anion
 -----------------------------------
 Structure from the checkpoint file:  "JID_7469.chk"
 Charge = -1 Multiplicity = 2

                         Standard orientation:
 ---------------------------------------------------------------------
 Center     Atomic      Atomic             Coordinates (Angstroms)
 Number     Number       Type             X           Y           Z
 ---------------------------------------------------------------------
      1          6           0        4.142134   -0.148865    1.704720
      2          6           0        3.758452    0.295312    0.283262
      3          6           0        4.754141   -0.250583   -0.753766
      4          6           0        2.329472   -0.095233   -0.055461
      5          6           0        1.378552    0.895117   -0.331761
      6          6           0        0.061705    0.551591   -0.641230
      7          6           0       -0.342316   -0.794443   -0.689694
      8          6           0        0.616607   -1.768629   -0.415701
      9          6           0        1.933546   -1.434562   -0.100346
     10          6           0       -1.771751   -1.153608   -0.999648
     11          6           0       -2.723871   -1.178035    0.226908
     12          6           0       -2.882033    0.204327    0.842754
     13          8           0       -3.789053    0.955563    0.545978
     14          8           0       -1.935305    0.504958    1.749789
     15          8           0       -4.000871   -1.646566   -0.152997
     16          8           0       -0.922594    1.463533   -0.914043
     17          6           0       -0.639734    2.838924   -0.736209
     18          1           0        4.121059   -1.240935    1.794720
     19          1           0        3.447791    0.260157    2.446221
     20          1           0        5.154484    0.188304    1.956270
     21          1           0        3.814040    1.391825    0.251625
     22          1           0        4.756349   -1.346547   -0.758036
     23          1           0        4.496154    0.086480   -1.763225
     24          1           0        5.772797    0.085300   -0.527262
     25          1           0        1.682383    1.935782   -0.301410
     26          1           0        0.321207   -2.814806   -0.452062
     27          1           0        2.651117   -2.222809    0.107379
     28          1           0       -2.196862   -0.461131   -1.732593
     29          1           0       -1.822728   -2.160221   -1.426186
     30          1           0       -2.317830   -1.859713    0.981136
     31          1           0       -2.113872    1.419627    2.039801
     32          1           0       -4.517399   -0.848709   -0.370029
     33          1           0        0.123681    3.190211   -1.442227
     34          1           0       -1.578340    3.362497   -0.924754
     35          1           0       -0.300877    3.046905    0.287860
 ---------------------------------------------------------------------

 SCF Done:  E(UB3LYP) =  -807.422605478     A.U. after   33 cycles
 SCF Done:  E(UB3LYP) =  -807.422605478     a.u. after    1 cycles

 The electronic state is 2-A.
 Alpha  occ. eigenvalues --  -19.08498 -19.06005 -19.04612 -19.03642 -10.22374
 Alpha  occ. eigenvalues --  -10.15601 -10.14062 -10.12111 -10.09427 -10.08788
 Alpha  occ. eigenvalues --  -10.08759 -10.08592 -10.08521 -10.07551 -10.07442
 Alpha  occ. eigenvalues --  -10.06799 -10.06545  -1.02979  -0.97645  -0.95874
 Alpha  occ. eigenvalues --   -0.93420  -0.77183  -0.72436  -0.68985  -0.65935
 Alpha  occ. eigenvalues --   -0.64461  -0.60578  -0.59246  -0.58277  -0.53120
 Alpha  occ. eigenvalues --   -0.51346  -0.50339  -0.47098  -0.45796  -0.42464
 Alpha  occ. eigenvalues --   -0.41514  -0.40863  -0.39040  -0.38889  -0.37892
 Alpha  occ. eigenvalues --   -0.36696  -0.35874  -0.34572  -0.34128  -0.33068
 Alpha  occ. eigenvalues --   -0.32499  -0.32421  -0.31974  -0.30524  -0.29593
 Alpha  occ. eigenvalues --   -0.28815  -0.27553  -0.27331  -0.26331  -0.26054
 Alpha  occ. eigenvalues --   -0.25315  -0.24195  -0.23648  -0.22945  -0.22280
 Alpha  occ. eigenvalues --   -0.21093  -0.20257  -0.15568  -0.12942   0.04093
 Alpha virt. eigenvalues --    0.06074   0.06762   0.07262   0.07616   0.07974
 Alpha virt. eigenvalues --    0.08324   0.08557   0.08949   0.09095   0.09820
 Alpha virt. eigenvalues --    0.10058   0.10279   0.11302   0.11602   0.12054

  Beta  occ. eigenvalues --  -19.08445 -19.05998 -19.04610 -19.03630 -10.22373
  Beta  occ. eigenvalues --  -10.15593 -10.14062 -10.12049 -10.09426 -10.08789
  Beta  occ. eigenvalues --  -10.08759 -10.08580 -10.08519 -10.07535 -10.07434
  Beta  occ. eigenvalues --  -10.06778 -10.06521  -1.02918  -0.97628  -0.95848
  Beta  occ. eigenvalues --   -0.93385  -0.77174  -0.72418  -0.68963  -0.65911
  Beta  occ. eigenvalues --   -0.64430  -0.60514  -0.59198  -0.58233  -0.53069
  Beta  occ. eigenvalues --   -0.51307  -0.50294  -0.47052  -0.45752  -0.42441
  Beta  occ. eigenvalues --   -0.41480  -0.40831  -0.39016  -0.38864  -0.37867
  Beta  occ. eigenvalues --   -0.36664  -0.35842  -0.34545  -0.34094  -0.33038
  Beta  occ. eigenvalues --   -0.32473  -0.32389  -0.31946  -0.30506  -0.29570
  Beta  occ. eigenvalues --   -0.28795  -0.27529  -0.27314  -0.26314  -0.26013
  Beta  occ. eigenvalues --   -0.25286  -0.24159  -0.23609  -0.22916  -0.22257
  Beta  occ. eigenvalues --   -0.21068  -0.20234  -0.15556  -0.12932
  Beta virt. eigenvalues --    0.06227   0.06968   0.07168   0.07519   0.07998
  Beta virt. eigenvalues --    0.08247   0.08501   0.08976   0.09120   0.09311
  Beta virt. eigenvalues --    0.10131   0.10308   0.10585   0.11564   0.11917

 Mulliken charges and spin densities:
               1          2
     1  C    0.641575  -1.349928
     2  C   -2.348299   2.482804
     3  C    0.213362  -0.919156
     4  C    2.776982  -1.796552
     5  C   -0.892728   0.634972
     6  C   -2.142132   0.900303
     7  C    1.759870  -0.836844
     8  C   -0.141040  -0.187106
     9  C   -0.164750  -0.248653
    10  C    0.646724  -0.571208
    11  C   -0.556417  -0.088552
    12  C    0.364649  -0.436333
    13  O   -0.303938   0.034165
    14  O   -0.051919  -0.007255
    15  O   -0.187622   0.001218
    16  O   -0.175140   0.065263
    17  C    0.907746  -1.209043
    18  H   -0.034414   0.175631
    19  H   -0.043852   0.190724
    20  H   -0.256432   0.403843
    21  H   -0.528832   0.717273
    22  H   -0.038432   0.180273
    23  H   -0.004282   0.141236
    24  H   -0.242433   0.390778
    25  H    0.386559  -0.201422
    26  H    0.016461   0.124466
    27  H    0.085066   0.038095
    28  H    0.224130  -0.001649
    29  H    0.168216   0.013286
    30  H    0.191353   0.034054
    31  H   -0.246835   0.542383
    32  H    0.244012   0.004586
    33  H   -0.468824   0.624458
    34  H   -0.296141   0.474280
    35  H   -0.502243   0.679608
 Sum of Mulliken charges =  -1.00000   1.00000

 Dipole moment (field-independent basis, Debye):
    X=             -3.3004    Y=             -6.8294    Z=             -2.5232  Tot=              7.9937
 Quadrupole moment (field-independent basis, Debye-Ang):
   XX=           -187.8669   YY=           -152.2934   ZZ=           -137.4819
   XY=             -3.5460   XZ=              0.4553   YZ=             -3.8283

 Summary of Natural Population Analysis:

                                       Natural Population
                Natural  -----------------------------------------------
    Atom  No    Charge         Core      Valence    Rydberg      Total
 -----------------------------------------------------------------------
      C    1   -0.27990      0.99965     2.27395    0.00630     3.27990
      C    2   -0.11990      0.99958     2.10923    0.01109     3.11990
      C    3   -0.27968      0.99965     2.27372    0.00631     3.27968
      C    4    0.00257      0.99951     1.98601    0.01192     2.99743
      C    5   -0.13586      0.99946     2.12722    0.00918     3.13586
      C    6    0.17349      0.99933     1.81341    0.01377     2.82651
      C    7   -0.04880      0.99946     2.03857    0.01077     3.04880
      C    8   -0.08823      0.99953     2.08030    0.00840     3.08823
      C    9   -0.11610      0.99950     2.10852    0.00808     3.11610
      C   10   -0.20240      0.99958     2.19274    0.01008     3.20240
      C   11    0.02558      0.99952     1.95959    0.01530     2.97442
      C   12    0.39849      0.99970     1.57409    0.02772     2.60151
      O   13   -0.31479      0.99987     3.30818    0.00674     4.31479
      O   14   -0.33242      0.99987     3.32523    0.00731     4.33242
      O   15   -0.37039      0.99990     3.36375    0.00674     4.37039
      O   16   -0.27827      0.99986     3.26825    0.01017     4.27827
      C   17   -0.10126      0.99960     2.09201    0.00966     3.10126
      H   18    0.09447      0.00000     0.40455    0.00099     0.40553
      H   19    0.10402      0.00000     0.39496    0.00102     0.39598
      H   20    0.09897      0.00000     0.40001    0.00102     0.40103
      H   21    0.09921      0.00000     0.39830    0.00249     0.40079
      H   22    0.09471      0.00000     0.40435    0.00094     0.40529
      H   23    0.10140      0.00000     0.39775    0.00085     0.39860
      H   24    0.09924      0.00000     0.39984    0.00093     0.40076
      H   25    0.10951      0.00000     0.38825    0.00224     0.39049
      H   26    0.09652      0.00000     0.40258    0.00090     0.40348
      H   27    0.09935      0.00000     0.39944    0.00120     0.40065
      H   28    0.11125      0.00000     0.38734    0.00141     0.38875
      H   29    0.10553      0.00000     0.39334    0.00114     0.39447
      H   30    0.09701      0.00000     0.40162    0.00137     0.40299
      H   31    0.24691      0.00000     0.24441    0.00868     0.25309
      H   32    0.23748      0.00000     0.25957    0.00295     0.26252
      H   33    0.08605      0.00000     0.41208    0.00187     0.41395
      H   34    0.09594      0.00000     0.40285    0.00121     0.40406
      H   35    0.09031      0.00000     0.40550    0.00419     0.40969
 =======================================================================
   * Total *    0.00000     16.99355    46.79152    0.21492    64.00000

 Normal termination of Gaussian 16 at Fri Dec 11 13:22:21 2020.
