 Gaussian 16, Revision A.03,

 -----------------------------------------------------------
 # opt freq B3LYP/6-31G(d) empiricaldispersion=gd3bj scf=xqc
 -----------------------------------------------------------

 -------------------------------
 CID_127014745_JID_2410_neutraal
 -------------------------------
 Symbolic Z-matrix:
 Charge =  0 Multiplicity = 1

 SCF Done:  E(RB3LYP) =  -565.791674517     A.U. after   15 cycles
 SCF Done:  E(RB3LYP) =  -565.793965349     A.U. after   12 cycles
 SCF Done:  E(RB3LYP) =  -565.794385016     A.U. after   11 cycles
 SCF Done:  E(RB3LYP) =  -565.794485382     A.U. after   11 cycles
 SCF Done:  E(RB3LYP) =  -565.794542394     A.U. after   11 cycles
 SCF Done:  E(RB3LYP) =  -565.794559564     A.U. after   10 cycles
 SCF Done:  E(RB3LYP) =  -565.794569007     A.U. after    9 cycles
 SCF Done:  E(RB3LYP) =  -565.794576885     A.U. after   10 cycles
 SCF Done:  E(RB3LYP) =  -565.794581941     A.U. after   10 cycles
 SCF Done:  E(RB3LYP) =  -565.794587510     A.U. after   10 cycles
 SCF Done:  E(RB3LYP) =  -565.794601697     A.U. after    9 cycles
 SCF Done:  E(RB3LYP) =  -565.794612321     A.U. after   10 cycles
 SCF Done:  E(RB3LYP) =  -565.794618482     A.U. after   10 cycles
 SCF Done:  E(RB3LYP) =  -565.794621610     A.U. after   10 cycles
 SCF Done:  E(RB3LYP) =  -565.794621808     A.U. after    8 cycles
 Optimization completed.
    -- Stationary point found.
 Normal termination of Gaussian 16 at Wed Dec  9 17:18:30 2020.

 --------------------------------------------------------------------
 #N Geom=AllCheck Guess=TCheck SCRF=Check GenChk RB3LYP/6-31G(d) Freq
 --------------------------------------------------------------------

 Structure from the checkpoint file:  "JID_2410.chk"
 -------------------------------
 CID_127014745_JID_2410_neutraal
 -------------------------------
 Charge =  0 Multiplicity = 1

 SCF Done:  E(RB3LYP) =  -565.794621808     A.U. after    1 cycles

  Exact polarizability: 123.669   2.915  96.908   3.253   1.264  55.497
 Approx polarizability: 169.486   3.755 164.279   1.832  10.219  90.571

                      1                      2                      3
                      A                      A                      A
 Frequencies --     52.0882                62.8877                70.1010
 Red. masses --      3.6442                 4.8241                 1.2267
 Frc consts  --      0.0058                 0.0112                 0.0036
 IR Inten    --      1.4074                 1.8854                 0.8370

                      4                      5                      6
                      A                      A                      A
 Frequencies --     98.2071               192.1165               241.2526
 Red. masses --      3.9835                 4.7032                 3.6714
 Frc consts  --      0.0226                 0.1023                 0.1259
 IR Inten    --      2.0279                 1.2243                15.0273

                      7                      8                      9
                      A                      A                      A
 Frequencies --    266.0030               335.3092               360.4303
 Red. masses --      3.9207                 2.7953                 6.5164
 Frc consts  --      0.1635                 0.1852                 0.4988
 IR Inten    --      4.8263                 2.9763                 0.3012

                     10                     11                     12
                      A                      A                      A
 Frequencies --    404.9185               602.5987               634.4295
 Red. masses --      3.6494                 3.0847                 4.3505
 Frc consts  --      0.3525                 0.6600                 1.0317
 IR Inten    --      0.1061                29.5011                 0.7238

                     13                     14                     15
                      A                      A                      A
 Frequencies --    663.5310               672.3535               693.0544
 Red. masses --      4.9017                 2.8372                 2.1643
 Frc consts  --      1.2715                 0.7557                 0.6125
 IR Inten    --      2.9380                37.0039                13.1534

                     16                     17                     18
                      A                      A                      A
 Frequencies --    714.0884               734.7927               767.4990
 Red. masses --      1.6808                 1.7301                 4.0627
 Frc consts  --      0.5050                 0.5504                 1.4100
 IR Inten    --      0.4291                54.8106                 7.3436

                     19                     20                     21
                      A                      A                      A
 Frequencies --    816.5026               847.8261               900.7088
 Red. masses --      5.9416                 1.2690                 7.8164
 Frc consts  --      2.3338                 0.5374                 3.7361
 IR Inten    --     32.4320                13.0841                18.4614

                     22                     23                     24
                      A                      A                      A
 Frequencies --    940.9721               956.5144               999.4881
 Red. masses --      6.6978                 2.2364                 2.6951
 Frc consts  --      3.4941                 1.2056                 1.5863
 IR Inten    --      3.5355                 5.4465                 3.3557

                     25                     26                     27
                      A                      A                      A
 Frequencies --   1006.8442              1028.6202              1079.4248
 Red. masses --      2.2766                 6.3044                 4.0549
 Frc consts  --      1.3597                 3.9301                 2.7836
 IR Inten    --      3.6764                 1.2720                 4.4626

                     28                     29                     30
                      A                      A                      A
 Frequencies --   1082.8540              1116.8565              1141.7911
 Red. masses --      1.5673                 1.5528                 1.7798
 Frc consts  --      1.0828                 1.1412                 1.3670
 IR Inten    --      5.0216                33.0767                 5.5543

                     31                     32                     33
                      A                      A                      A
 Frequencies --   1182.4050              1211.2320              1299.8592
 Red. masses --      2.1177                 1.5203                 1.7692
 Frc consts  --      1.7444                 1.3141                 1.7613
 IR Inten    --      0.8447                 0.9712                27.8276

                     34                     35                     36
                      A                      A                      A
 Frequencies --   1319.0698              1336.7665              1391.7843
 Red. masses --      4.1105                 1.7341                 5.5448
 Frc consts  --      4.2139                 1.8257                 6.3282
 IR Inten    --     52.1653                19.9090                71.3816

                     37                     38                     39
                      A                      A                      A
 Frequencies --   1414.2102              1438.5611              1477.3118
 Red. masses --      3.1611                 1.3340                 2.6623
 Frc consts  --      3.7249                 1.6265                 3.4234
 IR Inten    --      5.7257                 8.5272                39.0725

                     40                     41                     42
                      A                      A                      A
 Frequencies --   1496.2245              1503.3237              1504.5824
 Red. masses --      1.2311                 1.0427                 1.1082
 Frc consts  --      1.6239                 1.3884                 1.4781
 IR Inten    --      2.7810                 8.5774                20.9300

                     43                     44                     45
                      A                      A                      A
 Frequencies --   1520.4043              1579.6539              1601.6599
 Red. masses --      4.3699                 8.7278                 4.1762
 Frc consts  --      5.9517                12.8316                 6.3121
 IR Inten    --     10.2684                 8.0007                80.3557

                     46                     47                     48
                      A                      A                      A
 Frequencies --   1646.4508              3025.4136              3072.1666
 Red. masses --      7.6902                 1.0724                 1.0374
 Frc consts  --     12.2825                 5.7834                 5.7690
 IR Inten    --    104.5457                13.6833                 4.2870

                     49                     50                     51
                      A                      A                      A
 Frequencies --   3131.7748              3148.9011              3178.4038
 Red. masses --      1.1014                 1.0899                 1.1019
 Frc consts  --      6.3645                 6.3672                 6.5588
 IR Inten    --      3.2045                 0.2745                 2.5235

                     52                     53                     54
                      A                      A                      A
 Frequencies --   3262.2054              3293.7728              3599.0933
 Red. masses --      1.0923                 1.1033                 1.0819
 Frc consts  --      6.8486                 7.0524                 8.2572
 IR Inten    --      8.4320                 5.3496               143.8503

 - Thermochemistry -
 -------------------
 Temperature   298.150 Kelvin.  Pressure   1.00000 Atm.
 Atom     1 has atomic number  6 and mass  12.00000

 Molecular mass:   164.06981 amu.
 Principal axes and moments of inertia in atomic units:
                           1         2         3
     Eigenvalues --   751.668793362.623323936.55389
           X            0.99986   0.01654   0.00227
           Y           -0.01650   0.99969  -0.01847
           Z           -0.00257   0.01843   0.99983
 This molecule is an asymmetric top.
 Rotational symmetry number  1.
 Warning -- assumption of classical behavior for rotation
           may cause significant error
 Rotational temperatures (Kelvin)      0.11523     0.02576     0.02200
 Rotational constants (GHZ):           2.40098     0.53671     0.45846
 Zero-point vibrational energy     407443.9 (Joules/Mol)
                                   97.38142 (Kcal/Mol)
 Warning -- explicit consideration of  11 degrees of freedom as
           vibrations may cause significant error
 Vibrational temperatures:     74.94    90.48   100.86   141.30   276.41
          (Kelvin)            347.11   382.72   482.44   518.58   582.59
                              867.01   912.80   954.67   967.37   997.15
                             1027.41  1057.20  1104.26  1174.77  1219.83
                             1295.92  1353.85  1376.21  1438.04  1448.62
                             1479.96  1553.05  1557.99  1606.91  1642.78
                             1701.22  1742.69  1870.21  1897.85  1923.31
                             2002.47  2034.73  2069.77  2125.52  2152.73
                             2162.95  2164.76  2187.52  2272.77  2304.43
                             2368.88  4352.90  4420.16  4505.93  4530.57
                             4573.01  4693.59  4739.00  5178.29

 Zero-point correction=                           0.155187 (Hartree/Particle)
 Thermal correction to Energy=                    0.165329
 Thermal correction to Enthalpy=                  0.166273
 Thermal correction to Gibbs Free Energy=         0.117946
 Sum of electronic and zero-point Energies=           -565.639435
 Sum of electronic and thermal Energies=              -565.629293
 Sum of electronic and thermal Enthalpies=            -565.628348
 Sum of electronic and thermal Free Energies=         -565.676676

                     E (Thermal)             CV                S
                      KCal/Mol        Cal/Mol-Kelvin    Cal/Mol-Kelvin
 Total                  103.746             37.130            101.714
 Electronic               0.000              0.000              0.000
 Translational            0.889              2.981             41.194
 Rotational               0.889              2.981             30.676
 Vibrational            101.968             31.169             29.843
 Vibration     1          0.596              1.977              4.736
 Vibration     2          0.597              1.972              4.364
 Vibration     3          0.598              1.968              4.151
 Vibration     4          0.604              1.950              3.490
 Vibration     5          0.634              1.851              2.207
 Vibration     6          0.658              1.777              1.794
 Vibration     7          0.672              1.735              1.622
 Vibration     8          0.716              1.605              1.234
 Vibration     9          0.735              1.554              1.120
 Vibration    10          0.770              1.460              0.945
 Vibration    11          0.961              1.026              0.445

                           ! Non-Optimized Parameters !
 Normal termination of Gaussian 16 at Wed Dec  9 17:22:23 2020.

 ----------------------------------------------------------------------
 # B3LYP/6-311++G(d,p) empiricaldispersion=gd3bj scf=xqc pop=npa geom=c
 heck
 ----------------------------------------------------------------------

 ---------------------------------------
 CID_127014745_JID_2410_Energie_neutraal
 ---------------------------------------
 Structure from the checkpoint file:  "JID_2410.chk"
 Charge =  0 Multiplicity = 1

 SCF Done:  E(RB3LYP) =  -565.949479673     A.U. after   14 cycles
 Normal termination of Gaussian 16 at Wed Dec  9 17:24:15 2020.

 ----------------------------------------------------------------------
 # B3LYP/6-311++G(d,p) empiricaldispersion=gd3bj scf=xqc pop=npa geom=c
 heck
 ----------------------------------------------------------------------

 -------------------------------------
 CID_127014745_JID_2410_Energie_kation
 -------------------------------------
 Structure from the checkpoint file:  "JID_2410.chk"
 Charge =  1 Multiplicity = 2

 SCF Done:  E(UB3LYP) =  -565.638071602     A.U. after   22 cycles
 Normal termination of Gaussian 16 at Wed Dec  9 17:27:09 2020.
 Gaussian 16:  ES64L-G16RevA.03 25-Dec-2016

 ----------------------------------------------------------------------
 # B3LYP/6-311++G(d,p) empiricaldispersion=gd3bj scf=xqc pop=npa geom=c
 heck
 ----------------------------------------------------------------------

 ------------------------------------
 CID_127014745_JID_2410_Energie_anion
 ------------------------------------
 Structure from the checkpoint file:  "JID_2410.chk"
 Charge = -1 Multiplicity = 2

                         Standard orientation:
 ---------------------------------------------------------------------
 Center     Atomic      Atomic             Coordinates (Angstroms)
 Number     Number       Type             X           Y           Z
 ---------------------------------------------------------------------
      1          6           0        3.408420    1.575130   -0.039318
      2          6           0        2.425994    0.460405   -0.008386
      3          7           0        1.211912    0.456572    0.466467
      4          6           0        0.788032   -0.838235    0.210534
      5          7           0        1.678900   -1.589928   -0.380992
      6          8           0        2.786147   -0.722158   -0.528222
      7          6           0       -0.566716   -1.341915    0.604887
      8          6           0       -1.688159   -0.435110    0.187102
      9          7           0       -2.869965   -0.832175   -0.243421
     10          6           0       -3.591329    0.325589   -0.450412
     11          6           0       -2.834660    1.429452   -0.142411
     12          7           0       -1.618716    0.927880    0.273757
     13          1           0        4.325889    1.293154    0.487266
     14          1           0        3.678205    1.819961   -1.071940
     15          1           0        2.972964    2.453753    0.438310
     16          1           0       -0.734111   -2.325918    0.163260
     17          1           0       -0.574696   -1.470255    1.697553
     18          1           0       -4.610267    0.294097   -0.810974
     19          1           0       -3.034035    2.489428   -0.183140
     20          1           0       -0.777543    1.434700    0.522786
 ---------------------------------------------------------------------

 SCF Done:  E(UB3LYP) =  -565.941019869     A.U. after   33 cycles
 SCF Done:  E(UB3LYP) =  -565.941019869     a.u. after    1 cycles

 The electronic state is 2-A.
 Alpha  occ. eigenvalues --  -19.10623 -14.26109 -14.25572 -14.21551 -14.19530
 Alpha  occ. eigenvalues --  -10.16991 -10.13880 -10.13384 -10.10223 -10.10023
 Alpha  occ. eigenvalues --  -10.08620 -10.07887  -1.05581  -0.91678  -0.83530
 Alpha  occ. eigenvalues --   -0.77596  -0.77073  -0.69038  -0.64235  -0.61376
 Alpha  occ. eigenvalues --   -0.52076  -0.51521  -0.49301  -0.48714  -0.44058
 Alpha  occ. eigenvalues --   -0.40139  -0.39220  -0.36112  -0.34669  -0.33706
 Alpha  occ. eigenvalues --   -0.32728  -0.31927  -0.31668  -0.30656  -0.29421
 Alpha  occ. eigenvalues --   -0.29347  -0.23988  -0.22531  -0.19970  -0.18641
 Alpha  occ. eigenvalues --   -0.18472  -0.17913  -0.13168   0.04485
 Alpha virt. eigenvalues --    0.06810   0.07001   0.08119   0.08833   0.10281
 Alpha virt. eigenvalues --    0.10437   0.11043   0.11826   0.12099   0.13103
 Alpha virt. eigenvalues --    0.13535   0.14451   0.14912   0.15528   0.15642

  Beta  occ. eigenvalues --  -19.10514 -14.26089 -14.25440 -14.21559 -14.19527
  Beta  occ. eigenvalues --  -10.16855 -10.13839 -10.13381 -10.10224 -10.10006
  Beta  occ. eigenvalues --  -10.08618 -10.07823  -1.05395  -0.91659  -0.83437
  Beta  occ. eigenvalues --   -0.77397  -0.77037  -0.68998  -0.64081  -0.61319
  Beta  occ. eigenvalues --   -0.52004  -0.51430  -0.49245  -0.48600  -0.44000
  Beta  occ. eigenvalues --   -0.39958  -0.38865  -0.36021  -0.34630  -0.33652
  Beta  occ. eigenvalues --   -0.32622  -0.31818  -0.31571  -0.30517  -0.29351
  Beta  occ. eigenvalues --   -0.29282  -0.23838  -0.22250  -0.19879  -0.18607
  Beta  occ. eigenvalues --   -0.18158  -0.17573  -0.13147
  Beta virt. eigenvalues --    0.07140   0.07847   0.08018   0.08670   0.09347
  Beta virt. eigenvalues --    0.10843   0.11183   0.11521   0.12162   0.12604
  Beta virt. eigenvalues --    0.13228   0.13617   0.14635   0.14895   0.15574

 Mulliken charges and spin densities:
               1          2
     1  C    3.592998  -4.358181
     2  C   -2.200550   1.987531
     3  N   -0.176225   0.068405
     4  C    0.532809   0.262760
     5  N   -0.400101   0.081472
     6  O    0.179952   0.026510
     7  C    0.134183  -0.949453
     8  C   -0.350802   0.288764
     9  N   -0.148333   0.041863
    10  C    0.175841  -0.186693
    11  C   -0.003545  -0.087641
    12  N   -0.178622   0.070768
    13  H   -0.338222   0.506538
    14  H   -0.788515   0.986866
    15  H   -0.563058   0.739546
    16  H    0.173708   0.024418
    17  H    0.019100   0.175909
    18  H    0.014529   0.136332
    19  H   -0.850617   1.009156
    20  H    0.175469   0.175131
 Sum of Mulliken charges =  -1.00000   1.00000

 Dipole moment (field-independent basis, Debye):
    X=             -3.6484    Y=             -4.8535    Z=              1.8166  Tot=              6.3378
 Quadrupole moment (field-independent basis, Debye-Ang):
   XX=           -136.6477   YY=           -117.4819   ZZ=            -92.9027
   XY=            -10.9612   XZ=              4.5879   YZ=              0.0867

 Summary of Natural Population Analysis:

                                       Natural Population
                Natural  -----------------------------------------------
    Atom  No    Charge         Core      Valence    Rydberg      Total
 -----------------------------------------------------------------------
      C    1   -0.31709      0.99962     2.31137    0.00610     3.31709
      C    2    0.31817      0.99964     1.66359    0.01861     2.68183
      N    3   -0.29996      0.99966     2.78893    0.01137     3.79996
      C    4    0.18285      0.99964     1.79848    0.01903     2.81715
      N    5   -0.07928      0.99966     2.56740    0.01222     3.57928
      O    6   -0.16386      0.99985     3.15601    0.00800     4.16386
      C    7   -0.22762      0.99955     2.21975    0.00833     3.22762
      C    8    0.19049      0.99962     1.79091    0.01897     2.80951
      N    9   -0.26304      0.99970     2.75401    0.00934     3.76304
      C   10   -0.04108      0.99959     2.02738    0.01411     3.04108
      C   11   -0.03888      0.99957     2.02686    0.01245     3.03888
      N   12   -0.27443      0.99965     2.76590    0.00888     3.77443
      H   13    0.11217      0.00000     0.38675    0.00107     0.38783
      H   14    0.12231      0.00000     0.37067    0.00702     0.37769
      H   15    0.11891      0.00000     0.37751    0.00358     0.38109
      H   16    0.12360      0.00000     0.37507    0.00133     0.37640
      H   17    0.11512      0.00000     0.38364    0.00124     0.38488
      H   18    0.09431      0.00000     0.40476    0.00093     0.40569
      H   19    0.10517      0.00000     0.39314    0.00169     0.39483
      H   20    0.22216      0.00000     0.27444    0.00340     0.27784
 =======================================================================
   * Total *   -0.00000     11.99573    30.83658    0.16769    43.00000

 Normal termination of Gaussian 16 at Wed Dec  9 17:31:23 2020.
