 Gaussian 16, Revision A.03,

 -----------------------------------------------------------
 # opt freq B3LYP/6-31G(d) empiricaldispersion=gd3bj scf=xqc
 -----------------------------------------------------------

 -------------------------------
 CID_148909087_JID_4010_neutraal
 -------------------------------
 Symbolic Z-matrix:
 Charge =  0 Multiplicity = 1

 SCF Done:  E(RB3LYP) =  -669.359305709     A.U. after   14 cycles
 SCF Done:  E(RB3LYP) =  -669.366098622     A.U. after   12 cycles
 SCF Done:  E(RB3LYP) =  -669.366832691     A.U. after   12 cycles
 SCF Done:  E(RB3LYP) =  -669.367027892     A.U. after   12 cycles
 SCF Done:  E(RB3LYP) =  -669.367177925     A.U. after   11 cycles
 SCF Done:  E(RB3LYP) =  -669.367218622     A.U. after   11 cycles
 SCF Done:  E(RB3LYP) =  -669.367240177     A.U. after   10 cycles
 SCF Done:  E(RB3LYP) =  -669.367264264     A.U. after   10 cycles
 SCF Done:  E(RB3LYP) =  -669.367274821     A.U. after   10 cycles
 SCF Done:  E(RB3LYP) =  -669.367288181     A.U. after   11 cycles
 SCF Done:  E(RB3LYP) =  -669.367300192     A.U. after   11 cycles
 SCF Done:  E(RB3LYP) =  -669.367309694     A.U. after   10 cycles
 SCF Done:  E(RB3LYP) =  -669.367312748     A.U. after   10 cycles
 SCF Done:  E(RB3LYP) =  -669.367312887     A.U. after    7 cycles
 SCF Done:  E(RB3LYP) =  -669.367312921     A.U. after    7 cycles
 Optimization completed.
    -- Stationary point found.
 Normal termination of Gaussian 16 at Thu Dec 10 09:16:50 2020.

 --------------------------------------------------------------------
 #N Geom=AllCheck Guess=TCheck SCRF=Check GenChk RB3LYP/6-31G(d) Freq
 --------------------------------------------------------------------

 Structure from the checkpoint file:  "JID_4010.chk"
 -------------------------------
 CID_148909087_JID_4010_neutraal
 -------------------------------
 Charge =  0 Multiplicity = 1

 SCF Done:  E(RB3LYP) =  -669.367312921     A.U. after    1 cycles

  Exact polarizability: 117.389  -7.912 114.469   0.610   6.529  95.385
 Approx polarizability: 151.936 -18.469 197.570  -4.125  17.237 140.339

                      1                      2                      3
                      A                      A                      A
 Frequencies --     32.8005                60.8897                71.0396
 Red. masses --      3.6624                 3.3622                 3.6810
 Frc consts  --      0.0023                 0.0073                 0.0109
 IR Inten    --      0.4255                 0.4176                 0.2222

                      4                      5                      6
                      A                      A                      A
 Frequencies --     98.1767               113.8235               146.4301
 Red. masses --      3.0221                 2.5592                 6.9908
 Frc consts  --      0.0172                 0.0195                 0.0883
 IR Inten    --      1.8207                 2.2668                 7.8501

                      7                      8                      9
                      A                      A                      A
 Frequencies --    203.1340               231.3518               242.0003
 Red. masses --      1.4925                 2.9051                 3.6948
 Frc consts  --      0.0363                 0.0916                 0.1275
 IR Inten    --      1.1364                 3.9994                 3.2229

                     10                     11                     12
                      A                      A                      A
 Frequencies --    276.7950               357.2717               372.5034
 Red. masses --      3.6774                 6.7444                 2.7815
 Frc consts  --      0.1660                 0.5072                 0.2274
 IR Inten    --      2.2732                14.5224                 0.0503

                     13                     14                     15
                      A                      A                      A
 Frequencies --    389.3992               424.8634               488.2784
 Red. masses --      2.9166                 2.6641                 5.6761
 Frc consts  --      0.2606                 0.2833                 0.7973
 IR Inten    --      2.2448                10.3815                 3.8347

                     16                     17                     18
                      A                      A                      A
 Frequencies --    536.0134               586.9623               605.6643
 Red. masses --      5.0383                 4.3914                 4.4956
 Frc consts  --      0.8529                 0.8914                 0.9716
 IR Inten    --      7.5924                10.8838                21.2865

                     19                     20                     21
                      A                      A                      A
 Frequencies --    642.5294               675.9454               729.8046
 Red. masses --      3.4756                 1.7037                 4.1378
 Frc consts  --      0.8454                 0.4586                 1.2985
 IR Inten    --      1.1074                35.5701                19.0080

                     22                     23                     24
                      A                      A                      A
 Frequencies --    759.2567               766.5933               839.7379
 Red. masses --      4.7906                 4.3848                 2.5110
 Frc consts  --      1.6271                 1.5182                 1.0432
 IR Inten    --      9.0161                12.0417                 4.3022

                     25                     26                     27
                      A                      A                      A
 Frequencies --    866.4610               922.9310               946.6736
 Red. masses --      3.6911                 2.4786                 3.0916
 Frc consts  --      1.6327                 1.2439                 1.6324
 IR Inten    --      5.8459                 5.8602                32.4505

                     28                     29                     30
                      A                      A                      A
 Frequencies --    953.6456               967.4424              1001.0042
 Red. masses --      4.0763                 2.3244                 1.4102
 Frc consts  --      2.1842                 1.2818                 0.8325
 IR Inten    --     17.1958                 4.8073                 7.8309

                     31                     32                     33
                      A                      A                      A
 Frequencies --   1007.0240              1025.9831              1053.8764
 Red. masses --      1.8114                 2.6702                 3.8096
 Frc consts  --      1.0823                 1.6560                 2.4929
 IR Inten    --      6.0908                 9.8924                 8.1809

                     34                     35                     36
                      A                      A                      A
 Frequencies --   1086.0596              1126.3695              1146.5348
 Red. masses --      2.4103                 2.3297                 2.1276
 Frc consts  --      1.6751                 1.7414                 1.6478
 IR Inten    --      5.7920                34.9625                 2.0256

                     37                     38                     39
                      A                      A                      A
 Frequencies --   1151.1691              1188.9971              1200.1756
 Red. masses --      3.3057                 1.3118                 1.2252
 Frc consts  --      2.5811                 1.0927                 1.0398
 IR Inten    --    117.6170                 5.4506                21.1812

                     40                     41                     42
                      A                      A                      A
 Frequencies --   1220.0030              1235.0980              1247.1983
 Red. masses --      1.8027                 1.1535                 1.1679
 Frc consts  --      1.5809                 1.0368                 1.0703
 IR Inten    --    100.0939                 3.0241                 7.7478

                     43                     44                     45
                      A                      A                      A
 Frequencies --   1264.1621              1281.1925              1323.8671
 Red. masses --      1.3719                 2.2890                 1.4729
 Frc consts  --      1.2917                 2.2137                 1.5209
 IR Inten    --      0.8166                63.3353                 6.3154

                     46                     47                     48
                      A                      A                      A
 Frequencies --   1340.0867              1362.8379              1376.3332
 Red. masses --      1.3906                 2.1978                 2.0353
 Frc consts  --      1.4713                 2.4050                 2.2715
 IR Inten    --      2.9412               121.9506               137.9446

                     49                     50                     51
                      A                      A                      A
 Frequencies --   1390.0732              1393.6193              1403.2770
 Red. masses --      1.3988                 1.5789                 1.5885
 Frc consts  --      1.5925                 1.8067                 1.8430
 IR Inten    --     46.5186                 4.8549                24.2035

                     52                     53                     54
                      A                      A                      A
 Frequencies --   1435.4999              1451.6197              1494.2621
 Red. masses --      1.6024                 1.3810                 1.0964
 Frc consts  --      1.9455                 1.7146                 1.4423
 IR Inten    --      0.5221                29.2203                 5.4541

                     55                     56                     57
                      A                      A                      A
 Frequencies --   1511.0129              1511.2849              1514.3222
 Red. masses --      1.0710                 1.0830                 1.0988
 Frc consts  --      1.4407                 1.4574                 1.4846
 IR Inten    --     10.3346                 8.1973                10.7556

                     58                     59                     60
                      A                      A                      A
 Frequencies --   1521.4658              1532.2615              1753.3308
 Red. masses --      1.1076                 1.0555                 6.3045
 Frc consts  --      1.5106                 1.4601                11.4190
 IR Inten    --      0.6627                 6.5992                 5.7897

                     61                     62                     63
                      A                      A                      A
 Frequencies --   1814.4034              1875.8630              3013.2750
 Red. masses --     12.5360                11.9958                 1.0724
 Frc consts  --     24.3152                24.8704                 5.7369
 IR Inten    --    525.3676                55.7028                18.7575

                     64                     65                     66
                      A                      A                      A
 Frequencies --   3027.2793              3028.9477              3042.0071
 Red. masses --      1.0341                 1.0753                 1.0706
 Frc consts  --      5.5835                 5.8123                 5.8369
 IR Inten    --     30.9246                17.4329                26.2294

                     67                     68                     69
                      A                      A                      A
 Frequencies --   3065.2941              3066.4793              3083.6810
 Red. masses --      1.0991                 1.0659                 1.1050
 Frc consts  --      6.0847                 5.9052                 6.1909
 IR Inten    --      7.3666                37.0877                46.6397

                     70                     71                     72
                      A                      A                      A
 Frequencies --   3085.9626              3126.2729              3151.3641
 Red. masses --      1.0896                 1.0874                 1.1009
 Frc consts  --      6.1135                 6.2617                 6.4417
 IR Inten    --     10.3222                15.6192                30.7736

                     73                     74                     75
                      A                      A                      A
 Frequencies --   3161.6442              3168.1892              3183.2692
 Red. masses --      1.0844                 1.1011                 1.0967
 Frc consts  --      6.3863                 6.5116                 6.5479
 IR Inten    --      6.9496                 5.4142                38.7138

 - Thermochemistry -
 -------------------
 Temperature   298.150 Kelvin.  Pressure   1.00000 Atm.
 Atom     1 has atomic number  6 and mass  12.00000

 Molecular mass:   195.08954 amu.
 Principal axes and moments of inertia in atomic units:
                           1         2         3
     Eigenvalues --  1690.677183169.276923603.29299
           X            0.99986   0.01596  -0.00522
           Y           -0.01603   0.99978  -0.01378
           Z            0.00500   0.01386   0.99989
 This molecule is an asymmetric top.
 Rotational symmetry number  1.
 Warning -- assumption of classical behavior for rotation
           may cause significant error
 Rotational temperatures (Kelvin)      0.05123     0.02733     0.02404
 Rotational constants (GHZ):           1.06747     0.56945     0.50086
 Zero-point vibrational energy     590670.2 (Joules/Mol)
                                  141.17357 (Kcal/Mol)
 Warning -- explicit consideration of  18 degrees of freedom as
           vibrations may cause significant error
 Vibrational temperatures:     47.19    87.61   102.21   141.25   163.77
          (Kelvin)            210.68   292.26   332.86   348.18   398.25
                              514.03   535.95   560.26   611.28   702.52
                              771.20   844.51   871.42   924.46   972.53
                             1050.03  1092.40  1102.96  1208.20  1246.64
                             1327.89  1362.05  1372.08  1391.93  1440.22
                             1448.88  1476.16  1516.29  1562.60  1620.59
                             1649.61  1656.28  1710.70  1726.78  1755.31
                             1777.03  1794.44  1818.85  1843.35  1904.75
                             1928.09  1960.82  1980.24  2000.01  2005.11
                             2019.00  2065.36  2088.56  2149.91  2174.01
                             2174.40  2178.77  2189.05  2204.58  2522.65
                             2610.52  2698.95  4335.43  4355.58  4357.98
                             4376.77  4410.27  4411.98  4436.73  4440.01
                             4498.01  4534.11  4548.90  4558.32  4580.01

 Zero-point correction=                           0.224974 (Hartree/Particle)
 Thermal correction to Energy=                    0.237731
 Thermal correction to Enthalpy=                  0.238675
 Thermal correction to Gibbs Free Energy=         0.184713
 Sum of electronic and zero-point Energies=           -669.142339
 Sum of electronic and thermal Energies=              -669.129582
 Sum of electronic and thermal Enthalpies=            -669.128638
 Sum of electronic and thermal Free Energies=         -669.182600

                     E (Thermal)             CV                S
                      KCal/Mol        Cal/Mol-Kelvin    Cal/Mol-Kelvin
 Total                  149.178             47.484            113.572
 Electronic               0.000              0.000              0.000
 Translational            0.889              2.981             41.710
 Rotational               0.889              2.981             31.335
 Vibrational            147.401             41.522             40.527
 Vibration     1          0.594              1.983              5.652
 Vibration     2          0.597              1.973              4.428
 Vibration     3          0.598              1.968              4.124
 Vibration     4          0.604              1.950              3.490
 Vibration     5          0.607              1.938              3.203
 Vibration     6          0.617              1.907              2.718
 Vibration     7          0.639              1.835              2.105
 Vibration     8          0.653              1.793              1.868
 Vibration     9          0.658              1.776              1.788
 Vibration    10          0.678              1.716              1.553
 Vibration    11          0.732              1.560              1.134
 Vibration    12          0.744              1.529              1.069
 Vibration    13          0.757              1.493              1.002
 Vibration    14          0.787              1.416              0.876
 Vibration    15          0.844              1.276              0.688
 Vibration    16          0.891              1.170              0.574
 Vibration    17          0.944              1.060              0.473
 Vibration    18          0.964              1.020              0.440

 Optimization completed.
    -- Stationary point found.
 Normal termination of Gaussian 16 at Thu Dec 10 09:25:03 2020.

 ----------------------------------------------------------------------
 # B3LYP/6-311++G(d,p) empiricaldispersion=gd3bj scf=xqc pop=npa geom=c
 heck
 ----------------------------------------------------------------------

 ---------------------------------------
 CID_148909087_JID_4010_Energie_neutraal
 ---------------------------------------
 Structure from the checkpoint file:  "JID_4010.chk"
 Charge =  0 Multiplicity = 1

 SCF Done:  E(RB3LYP) =  -669.559058961     A.U. after   15 cycles
 Normal termination of Gaussian 16 at Thu Dec 10 09:28:01 2020.

 ----------------------------------------------------------------------
 # B3LYP/6-311++G(d,p) empiricaldispersion=gd3bj scf=xqc pop=npa geom=c
 heck
 ----------------------------------------------------------------------

 -------------------------------------
 CID_148909087_JID_4010_Energie_kation
 -------------------------------------
 Structure from the checkpoint file:  "JID_4010.chk"
 Charge =  1 Multiplicity = 2

 SCF Done:  E(UB3LYP) =  -669.224718671     A.U. after   30 cycles
 Normal termination of Gaussian 16 at Thu Dec 10 09:36:13 2020.
 Gaussian 16:  ES64L-G16RevA.03 25-Dec-2016

 ----------------------------------------------------------------------
 # B3LYP/6-311++G(d,p) empiricaldispersion=gd3bj scf=xqc pop=npa geom=c
 heck
 ----------------------------------------------------------------------

 ------------------------------------
 CID_148909087_JID_4010_Energie_anion
 ------------------------------------
 Structure from the checkpoint file:  "JID_4010.chk"
 Charge = -1 Multiplicity = 2

                         Standard orientation:
 ---------------------------------------------------------------------
 Center     Atomic      Atomic             Coordinates (Angstroms)
 Number     Number       Type             X           Y           Z
 ---------------------------------------------------------------------
      1          6           0       -2.467875   -1.211465    1.544287
      2          8           0       -2.882332   -0.050608    0.836557
      3          6           0       -2.478411   -0.023803   -0.502360
      4          7           0       -1.042609    0.167439   -0.663447
      5          6           0       -0.127417   -0.870202   -0.849523
      6          8           0       -0.406383   -2.051184   -0.868119
      7          6           0        1.238317   -0.221803   -1.079716
      8          6           0        2.433651   -1.080115   -0.651121
      9          6           0        3.005122   -0.714181    0.688944
     10          6           0        2.562893    0.285506    1.452811
     11          6           0        1.400039    1.167551    1.092644
     12          6           0        1.071087    1.164314   -0.422783
     13          6           0       -0.424264    1.424952   -0.552291
     14          8           0       -1.013641    2.480687   -0.504569
     15          1           0       -2.956636   -1.167750    2.519875
     16          1           0       -1.379706   -1.236438    1.688024
     17          1           0       -2.766715   -2.129320    1.020204
     18          1           0       -2.732946   -0.953718   -1.024912
     19          1           0       -2.974164    0.833980   -0.956954
     20          1           0        1.286163   -0.074050   -2.167622
     21          1           0        3.227985   -1.009918   -1.406300
     22          1           0        2.116651   -2.131579   -0.653401
     23          1           0        3.842634   -1.319077    1.031499
     24          1           0        3.032900    0.474857    2.415915
     25          1           0        0.516979    0.841684    1.663617
     26          1           0        1.580202    2.201173    1.407468
     27          1           0        1.644914    1.942405   -0.929590
 ---------------------------------------------------------------------

 SCF Done:  E(UB3LYP) =  -669.551420568     A.U. after   32 cycles

 The electronic state is 2-A.
 Alpha  occ. eigenvalues --  -19.04352 -19.00136 -18.99480 -14.25366 -10.17390
 Alpha  occ. eigenvalues --  -10.16439 -10.16303 -10.12272 -10.08362 -10.07879
 Alpha  occ. eigenvalues --  -10.07637 -10.06382 -10.06322 -10.06228  -0.97102
 Alpha  occ. eigenvalues --   -0.94952  -0.93875  -0.84406  -0.74066  -0.67598
 Alpha  occ. eigenvalues --   -0.65245  -0.63132  -0.56999  -0.55596  -0.52689
 Alpha  occ. eigenvalues --   -0.50081  -0.45256  -0.41838  -0.41003  -0.39664
 Alpha  occ. eigenvalues --   -0.39354  -0.38105  -0.35999  -0.35120  -0.34114
 Alpha  occ. eigenvalues --   -0.32672  -0.32114  -0.32062  -0.30041  -0.29482
 Alpha  occ. eigenvalues --   -0.29276  -0.27749  -0.27328  -0.25570  -0.24275
 Alpha  occ. eigenvalues --   -0.23787  -0.21263  -0.19732  -0.17843  -0.16709
 Alpha  occ. eigenvalues --   -0.15211  -0.14287   0.04578
 Alpha virt. eigenvalues --    0.07066   0.07455   0.08214   0.08756   0.09263
 Alpha virt. eigenvalues --    0.10291   0.10544   0.11051   0.11370   0.11658
 Alpha virt. eigenvalues --    0.12151   0.12380   0.12960   0.13522   0.13986

  Beta  occ. eigenvalues --  -19.04352 -19.00038 -18.99346 -14.25400 -10.17312
  Beta  occ. eigenvalues --  -10.16298 -10.16269 -10.12263 -10.08341 -10.07870
  Beta  occ. eigenvalues --  -10.07625 -10.06353 -10.06306 -10.06209  -0.97034
  Beta  occ. eigenvalues --   -0.94832  -0.93637  -0.84325  -0.74011  -0.67538
  Beta  occ. eigenvalues --   -0.65170  -0.63101  -0.56961  -0.55356  -0.52629
  Beta  occ. eigenvalues --   -0.49996  -0.45185  -0.41703  -0.40955  -0.39585
  Beta  occ. eigenvalues --   -0.39306  -0.37967  -0.35875  -0.34995  -0.34013
  Beta  occ. eigenvalues --   -0.32543  -0.32007  -0.31872  -0.30011  -0.29251
  Beta  occ. eigenvalues --   -0.29213  -0.27560  -0.26949  -0.25456  -0.24241
  Beta  occ. eigenvalues --   -0.23741  -0.21088  -0.19682  -0.17573  -0.16627
  Beta  occ. eigenvalues --   -0.15109  -0.14238
  Beta virt. eigenvalues --    0.06997   0.07769   0.08488   0.09126   0.09271
  Beta virt. eigenvalues --    0.09520   0.10364   0.11030   0.11459   0.11701
  Beta virt. eigenvalues --    0.11808   0.12646   0.12824   0.13069   0.13724

 Mulliken charges and spin densities:
               1          2
     1  C   -0.235683  -0.065524
     2  O   -0.133750   0.010850
     3  C   -0.097331  -0.135951
     4  N   -0.016067   0.122951
     5  C    0.397543  -0.834037
     6  O   -0.379880   0.094449
     7  C   -0.211258   0.672607
     8  C    0.704977  -1.374554
     9  C    0.581151  -0.682204
    10  C   -0.063829   0.048332
    11  C    0.105722  -0.692314
    12  C    0.681342  -0.372460
    13  C   -0.302590   0.055934
    14  O   -0.323419   0.025404
    15  H    0.009828   0.132607
    16  H    0.094979   0.071123
    17  H    0.143275  -0.010474
    18  H    0.120113   0.055220
    19  H    0.173181   0.022916
    20  H   -0.703217   0.971590
    21  H   -0.556575   0.733968
    22  H    0.216062  -0.023870
    23  H   -0.382573   0.553673
    24  H   -0.563007   0.753947
    25  H    0.045591   0.112440
    26  H    0.007965   0.150480
    27  H   -0.312551   0.602893
 Sum of Mulliken charges =  -1.00000   1.00000

 Dipole moment (field-independent basis, Debye):
    X=             -6.4399    Y=             -1.3332    Z=              2.3902  Tot=              6.9973
 Quadrupole moment (field-independent basis, Debye-Ang):
   XX=           -137.0054   YY=           -120.0753   ZZ=           -120.1789
   XY=              4.8959   XZ=              3.6896   YZ=             -2.7651

 Summary of Natural Population Analysis:

                                       Natural Population
                Natural  -----------------------------------------------
    Atom  No    Charge         Core      Valence    Rydberg      Total
 -----------------------------------------------------------------------
      C    1   -0.10166      0.99961     2.09369    0.00835     3.10166
      O    2   -0.29313      0.99988     3.28459    0.00866     4.29313
      C    3    0.07959      0.99960     1.90621    0.01460     2.92041
      N    4   -0.28712      0.99959     2.77721    0.01032     3.78712
      C    5    0.38432      0.99963     1.59207    0.02397     2.61568
      O    6   -0.29857      0.99987     3.29290    0.00580     4.29857
      C    7   -0.14971      0.99956     2.13740    0.01276     3.14971
      C    8   -0.20880      0.99960     2.19863    0.01057     3.20880
      C    9   -0.08509      0.99952     2.07552    0.01005     3.08509
      C   10   -0.09760      0.99952     2.08792    0.01016     3.09760
      C   11   -0.20180      0.99960     2.19194    0.01026     3.20180
      C   12   -0.14132      0.99956     2.12966    0.01211     3.14132
      C   13    0.37831      0.99964     1.59664    0.02542     2.62169
      O   14   -0.29215      0.99987     3.28646    0.00582     4.29215
      H   15    0.08632      0.00000     0.41264    0.00104     0.41368
      H   16    0.08688      0.00000     0.41178    0.00135     0.41312
      H   17    0.08225      0.00000     0.41646    0.00128     0.41775
      H   18    0.08875      0.00000     0.40989    0.00137     0.41125
      H   19    0.09998      0.00000     0.39864    0.00139     0.40002
      H   20    0.12771      0.00000     0.36393    0.00836     0.37229
      H   21    0.10987      0.00000     0.38690    0.00322     0.39013
      H   22    0.11395      0.00000     0.38458    0.00148     0.38605
      H   23    0.09697      0.00000     0.40189    0.00114     0.40303
      H   24    0.09812      0.00000     0.40019    0.00168     0.40188
      H   25    0.10240      0.00000     0.39593    0.00166     0.39760
      H   26    0.10753      0.00000     0.39131    0.00117     0.39247
      H   27    0.11399      0.00000     0.38460    0.00141     0.38601
 =======================================================================
   * Total *    0.00000     13.99503    37.80957    0.19540    52.00000

 Normal termination of Gaussian 16 at Thu Dec 10 09:44:17 2020.
