 Gaussian 16, Revision A.03,

 -----------------------------------------------------------
 # opt freq B3LYP/6-31G(d) empiricaldispersion=gd3bj scf=xqc
 -----------------------------------------------------------

 -------------------------------
 CID_123180946_JID_1973_neutraal
 -------------------------------
 Symbolic Z-matrix:
 Charge =  0 Multiplicity = 1

 SCF Done:  E(RB3LYP) =  -431.147128706     A.U. after   13 cycles
 SCF Done:  E(RB3LYP) =  -431.174287318     A.U. after   11 cycles
 SCF Done:  E(RB3LYP) =  -431.183802761     A.U. after   11 cycles
 SCF Done:  E(RB3LYP) =  -431.185022804     A.U. after   11 cycles
 SCF Done:  E(RB3LYP) =  -431.186927018     A.U. after   11 cycles
 SCF Done:  E(RB3LYP) =  -431.188293257     A.U. after   11 cycles
 SCF Done:  E(RB3LYP) =  -431.187572837     A.U. after   13 cycles
 SCF Done:  E(RB3LYP) =  -431.190064461     A.U. after   10 cycles
 SCF Done:  E(RB3LYP) =  -431.190819923     A.U. after   10 cycles
 SCF Done:  E(RB3LYP) =  -431.193026892     A.U. after   11 cycles
 SCF Done:  E(RB3LYP) =  -431.194962019     A.U. after    9 cycles
 SCF Done:  E(RB3LYP) =  -431.194970253     A.U. after    8 cycles
 SCF Done:  E(RB3LYP) =  -431.194973849     A.U. after    8 cycles
 SCF Done:  E(RB3LYP) =  -431.194974856     A.U. after    7 cycles
 SCF Done:  E(RB3LYP) =  -431.194975122     A.U. after    7 cycles
 Optimization completed.
    -- Stationary point found.
 Normal termination of Gaussian 16 at Tue Dec  8 21:22:41 2020.

 --------------------------------------------------------------------
 #N Geom=AllCheck Guess=TCheck SCRF=Check GenChk RB3LYP/6-31G(d) Freq
 --------------------------------------------------------------------

 Structure from the checkpoint file:  "JID_1973.chk"
 -------------------------------
 CID_123180946_JID_1973_neutraal
 -------------------------------
 Charge =  0 Multiplicity = 1

 SCF Done:  E(RB3LYP) =  -431.194975122     A.U. after    1 cycles

  Exact polarizability: 139.585   2.200 103.420   0.034   0.195  93.799
 Approx polarizability: 159.524   0.536 152.630  -0.171  -0.531 147.704

                      1                      2                      3
                      A                      A                      A
 Frequencies --     39.0852                67.1053                85.7999
 Red. masses --      2.5821                 2.0856                 2.4682
 Frc consts  --      0.0023                 0.0055                 0.0107
 IR Inten    --      0.0173                 0.1688                 0.1454

                      4                      5                      6
                      A                      A                      A
 Frequencies --    105.8190               138.0612               192.3185
 Red. masses --      2.5209                 2.6178                 1.4845
 Frc consts  --      0.0166                 0.0294                 0.0324
 IR Inten    --      0.0134                 0.0629                 0.0157

                      7                      8                      9
                      A                      A                      A
 Frequencies --    211.4475               219.2420               226.1568
 Red. masses --      1.1275                 1.1178                 1.5627
 Frc consts  --      0.0297                 0.0317                 0.0471
 IR Inten    --      0.1481                 0.2396                 0.0579

                     10                     11                     12
                      A                      A                      A
 Frequencies --    248.4405               288.0220               316.3690
 Red. masses --      1.8258                 2.7103                 2.3390
 Frc consts  --      0.0664                 0.1325                 0.1379
 IR Inten    --      1.5076                 0.5696                 0.8033

                     13                     14                     15
                      A                      A                      A
 Frequencies --    332.0915               356.0818               394.6291
 Red. masses --      2.2734                 2.0709                 2.4131
 Frc consts  --      0.1477                 0.1547                 0.2214
 IR Inten    --      0.0407                 0.2455                 0.4978

                     16                     17                     18
                      A                      A                      A
 Frequencies --    435.8907               498.6746               512.0880
 Red. masses --      2.3535                 2.9038                 2.5157
 Frc consts  --      0.2635                 0.4255                 0.3887
 IR Inten    --      0.4251                 1.9559                 0.4499

                     19                     20                     21
                      A                      A                      A
 Frequencies --    534.5636               650.3466               780.4221
 Red. masses --      2.5530                 1.5301                 1.4563
 Frc consts  --      0.4298                 0.3813                 0.5226
 IR Inten    --      1.5064                 3.6593                 1.5061

                     22                     23                     24
                      A                      A                      A
 Frequencies --    819.5345               839.8001               851.2947
 Red. masses --      1.6158                 1.8274                 2.1630
 Frc consts  --      0.6394                 0.7593                 0.9236
 IR Inten    --      2.5951                 5.6801                16.5470

                     25                     26                     27
                      A                      A                      A
 Frequencies --    878.2268               891.0574               930.3002
 Red. masses --      2.1785                 3.1580                 1.8290
 Frc consts  --      0.9900                 1.4773                 0.9326
 IR Inten    --      3.2314                 2.8047                 1.4689

                     28                     29                     30
                      A                      A                      A
 Frequencies --    975.6891               990.6437              1006.7147
 Red. masses --      1.3201                 1.6163                 1.6262
 Frc consts  --      0.7404                 0.9346                 0.9710
 IR Inten    --      1.0322                 1.0181                 6.7835

                     31                     32                     33
                      A                      A                      A
 Frequencies --   1015.5955              1018.6517              1053.8220
 Red. masses --      1.1995                 1.3444                 2.3427
 Frc consts  --      0.7289                 0.8219                 1.5328
 IR Inten    --     10.2689                 3.4777                 0.5030

                     34                     35                     36
                      A                      A                      A
 Frequencies --   1065.8914              1079.7904              1102.0994
 Red. masses --      1.8310                 1.6641                 1.7927
 Frc consts  --      1.2256                 1.1432                 1.2829
 IR Inten    --      2.0330                 0.5822                 1.2758

                     37                     38                     39
                      A                      A                      A
 Frequencies --   1142.4705              1149.2513              1160.1570
 Red. masses --      1.7054                 1.6964                 1.3185
 Frc consts  --      1.3115                 1.3201                 1.0456
 IR Inten    --      8.0091                 0.6812                 0.1108

                     40                     41                     42
                      A                      A                      A
 Frequencies --   1164.6049              1185.0982              1192.4127
 Red. masses --      1.8941                 2.0950                 1.4356
 Frc consts  --      1.5136                 1.7336                 1.2026
 IR Inten    --      0.2344                 5.0044                 1.1851

                     43                     44                     45
                      A                      A                      A
 Frequencies --   1197.6067              1202.7790              1265.2111
 Red. masses --      1.9586                 1.8342                 1.3639
 Frc consts  --      1.6551                 1.5634                 1.2863
 IR Inten    --      2.6449                 0.5565                14.2988

                     46                     47                     48
                      A                      A                      A
 Frequencies --   1298.0950              1320.9526              1327.2227
 Red. masses --      1.4371                 2.4458                 1.2770
 Frc consts  --      1.4268                 2.5145                 1.3254
 IR Inten    --      1.6462                 2.3531                 0.6592

                     49                     50                     51
                      A                      A                      A
 Frequencies --   1341.1221              1366.2379              1389.7758
 Red. masses --      1.3379                 1.2617                 1.3792
 Frc consts  --      1.4178                 1.3876                 1.5695
 IR Inten    --      3.5310                 1.9658                 0.6172

                     52                     53                     54
                      A                      A                      A
 Frequencies --   1406.5896              1434.3187              1436.9157
 Red. masses --      1.4723                 1.4060                 1.2814
 Frc consts  --      1.7163                 1.7042                 1.5588
 IR Inten    --      0.3175                 8.2215                 5.4241

                     55                     56                     57
                      A                      A                      A
 Frequencies --   1441.8179              1443.8120              1448.1290
 Red. masses --      1.2480                 1.2245                 1.9879
 Frc consts  --      1.5286                 1.5039                 2.4562
 IR Inten    --      1.2084                 3.0967                12.3012

                     58                     59                     60
                      A                      A                      A
 Frequencies --   1460.4054              1514.5399              1523.3941
 Red. masses --      1.9401                 1.0667                 1.0451
 Frc consts  --      2.4379                 1.4417                 1.4290
 IR Inten    --      0.8738                 0.3859                 2.3541

                     61                     62                     63
                      A                      A                      A
 Frequencies --   1526.4822              1529.2011              1531.6247
 Red. masses --      1.0462                 1.0605                 1.0518
 Frc consts  --      1.4363                 1.4611                 1.4537
 IR Inten    --      6.8982                 2.6327                 3.4261

                     64                     65                     66
                      A                      A                      A
 Frequencies --   1532.8918              1537.7732              1538.8117
 Red. masses --      1.0776                 1.0679                 1.0433
 Frc consts  --      1.4919                 1.4879                 1.4556
 IR Inten    --      4.2868                 3.6280                 8.8476

                     67                     68                     69
                      A                      A                      A
 Frequencies --   1549.3453              2988.2830              3003.0593
 Red. masses --      1.0462                 1.0806                 1.0829
 Frc consts  --      1.4796                 5.6852                 5.7540
 IR Inten    --      5.6993                 3.2547                11.9860

                     70                     71                     72
                      A                      A                      A
 Frequencies --   3024.7430              3032.4126              3044.4985
 Red. masses --      1.0697                 1.0837                 1.0452
 Frc consts  --      5.7661                 5.8713                 5.7080
 IR Inten    --     22.2785                59.3005                42.6385

                     73                     74                     75
                      A                      A                      A
 Frequencies --   3045.5452              3046.3690              3049.5997
 Red. masses --      1.0360                 1.0395                 1.0422
 Frc consts  --      5.6614                 5.6837                 5.7107
 IR Inten    --     36.7388                26.0181                26.0406

                     76                     77                     78
                      A                      A                      A
 Frequencies --   3051.9222              3085.9419              3107.3188
 Red. masses --      1.0858                 1.0929                 1.1013
 Frc consts  --      5.9587                 6.1322                 6.2649
 IR Inten    --     48.7427                19.2652                43.4171

                     79                     80                     81
                      A                      A                      A
 Frequencies --   3110.7197              3113.6235              3114.8920
 Red. masses --      1.1023                 1.1021                 1.0954
 Frc consts  --      6.2848                 6.2949                 6.2622
 IR Inten    --     24.5331                38.4105                66.4280

                     82                     83                     84
                      A                      A                      A
 Frequencies --   3115.8997              3126.2777              3135.9893
 Red. masses --      1.0965                 1.0983                 1.1002
 Frc consts  --      6.2723                 6.3247                 6.3746
 IR Inten    --     13.2518                43.4421                48.4505

                     85                     86                     87
                      A                      A                      A
 Frequencies --   3147.1125              3234.3376              3247.4833
 Red. masses --      1.0999                 1.0903                 1.0990
 Frc consts  --      6.4187                 6.7200                 6.8286
 IR Inten    --     26.2660                 6.0152                 1.8661

 - Thermochemistry -
 -------------------
 Temperature   298.150 Kelvin.  Pressure   1.00000 Atm.
 Atom     1 has atomic number  6 and mass  12.00000

 Molecular mass:   152.15650 amu.
 Principal axes and moments of inertia in atomic units:
                           1         2         3
     Eigenvalues --   698.496373676.703204165.67433
           X            1.00000   0.00010  -0.00294
           Y           -0.00010   1.00000   0.00008
           Z            0.00294  -0.00008   1.00000
 This molecule is an asymmetric top.
 Rotational symmetry number  1.
 Warning -- assumption of classical behavior for rotation
           may cause significant error
 Rotational temperatures (Kelvin)      0.12400     0.02356     0.02079
 Rotational constants (GHZ):           2.58375     0.49086     0.43324
 Zero-point vibrational energy     750877.1 (Joules/Mol)
                                  179.46393 (Kcal/Mol)
 Warning -- explicit consideration of  19 degrees of freedom as
           vibrations may cause significant error
 Vibrational temperatures:     56.23    96.55   123.45   152.25   198.64
          (Kelvin)            276.70   304.23   315.44   325.39   357.45
                              414.40   455.18   477.81   512.32   567.78
                              627.15   717.48   736.78   769.12   935.70
                             1122.85  1179.13  1208.29  1224.82  1263.57
                             1282.03  1338.49  1403.80  1425.32  1448.44
                             1461.22  1465.61  1516.21  1533.58  1553.58
                             1585.68  1643.76  1653.52  1669.21  1675.61
                             1705.09  1715.62  1723.09  1730.53  1820.36
                             1867.67  1900.56  1909.58  1929.58  1965.71
                             1999.58  2023.77  2063.66  2067.40  2074.45
                             2077.32  2083.53  2101.20  2179.09  2191.82
                             2196.27  2200.18  2203.67  2205.49  2212.51
                             2214.01  2229.16  4299.47  4320.73  4351.93
                             4362.97  4380.35  4381.86  4383.05  4387.69
                             4391.04  4439.98  4470.74  4475.63  4479.81
                             4481.63  4483.08  4498.02  4511.99  4527.99
                             4653.49  4672.40

 Zero-point correction=                           0.285994 (Hartree/Particle)
 Thermal correction to Energy=                    0.299276
 Thermal correction to Enthalpy=                  0.300220
 Thermal correction to Gibbs Free Energy=         0.246545
 Sum of electronic and zero-point Energies=           -430.908981
 Sum of electronic and thermal Energies=              -430.895699
 Sum of electronic and thermal Enthalpies=            -430.894755
 Sum of electronic and thermal Free Energies=         -430.948430

                     E (Thermal)             CV                S
                      KCal/Mol        Cal/Mol-Kelvin    Cal/Mol-Kelvin
 Total                  187.798             49.781            112.969
 Electronic               0.000              0.000              0.000
 Translational            0.889              2.981             40.969
 Rotational               0.889              2.981             30.748
 Vibrational            186.021             43.820             41.251
 Vibration     1          0.594              1.981              5.305
 Vibration     2          0.598              1.970              4.237
 Vibration     3          0.601              1.959              3.754
 Vibration     4          0.605              1.945              3.344
 Vibration     5          0.614              1.915              2.831
 Vibration     6          0.634              1.851              2.205
 Vibration     7          0.643              1.823              2.031
 Vibration     8          0.647              1.812              1.965
 Vibration     9          0.650              1.801              1.909
 Vibration    10          0.662              1.765              1.742
 Vibration    11          0.685              1.696              1.486
 Vibration    12          0.703              1.642              1.329
 Vibration    13          0.714              1.611              1.250
 Vibration    14          0.732              1.563              1.139
 Vibration    15          0.762              1.482              0.983
 Vibration    16          0.796              1.392              0.840
 Vibration    17          0.854              1.253              0.661
 Vibration    18          0.867              1.223              0.629
 Vibration    19          0.890              1.174              0.577

 Optimization completed.
    -- Stationary point found.
 Normal termination of Gaussian 16 at Tue Dec  8 21:31:48 2020.

 ----------------------------------------------------------------------
 # B3LYP/6-311++G(d,p) empiricaldispersion=gd3bj scf=xqc pop=npa geom=c
 heck
 ----------------------------------------------------------------------

 ---------------------------------------
 CID_123180946_JID_1973_Energie_neutraal
 ---------------------------------------
 Structure from the checkpoint file:  "JID_1973.chk"
 Charge =  0 Multiplicity = 1

 SCF Done:  E(RB3LYP) =  -431.311375301     A.U. after   14 cycles
 Normal termination of Gaussian 16 at Tue Dec  8 21:36:18 2020.

 ----------------------------------------------------------------------
 # B3LYP/6-311++G(d,p) empiricaldispersion=gd3bj scf=xqc pop=npa geom=c
 heck
 ----------------------------------------------------------------------

 -------------------------------------
 CID_123180946_JID_1973_Energie_kation
 -------------------------------------
 Structure from the checkpoint file:  "JID_1973.chk"
 Charge =  1 Multiplicity = 2

 SCF Done:  E(UB3LYP) =  -430.993451822     A.U. after   18 cycles
 Normal termination of Gaussian 16 at Tue Dec  8 21:42:36 2020.
 Gaussian 16:  ES64L-G16RevA.03 25-Dec-2016

 ----------------------------------------------------------------------
 # B3LYP/6-311++G(d,p) empiricaldispersion=gd3bj scf=xqc pop=npa geom=c
 heck
 ----------------------------------------------------------------------

 ------------------------------------
 CID_123180946_JID_1973_Energie_anion
 ------------------------------------
 Structure from the checkpoint file:  "JID_1973.chk"
 Charge = -1 Multiplicity = 2

                         Standard orientation:
 ---------------------------------------------------------------------
 Center     Atomic      Atomic             Coordinates (Angstroms)
 Number     Number       Type             X           Y           Z
 ---------------------------------------------------------------------
      1          6           0        4.182676   -0.599368   -0.045099
      2          6           0        2.958145    0.200867    0.411435
      3          6           0        1.635259   -0.200611   -0.270994
      4          6           0        1.332943   -1.690181   -0.055061
      5          6           0        0.455219    0.696052    0.192187
      6          6           0        0.709803    2.189673   -0.077130
      7          6           0       -0.853112    0.290153   -0.474771
      8          6           0       -1.778305   -0.681111    0.196410
      9          6           0       -2.147488    0.770751    0.109841
     10          6           0       -3.072322   -0.273291   -0.440507
     11          6           0       -4.371479   -0.561559    0.281910
     12          1           0        4.126824   -1.650499    0.254790
     13          1           0        5.100050   -0.183639    0.386553
     14          1           0        4.286440   -0.569690   -1.137066
     15          1           0        2.839801    0.100105    1.500732
     16          1           0        3.156877    1.260958    0.222281
     17          1           0        1.758460   -0.035631   -1.354114
     18          1           0        1.219710   -1.910909    1.015015
     19          1           0        0.409820   -1.989906   -0.556179
     20          1           0        2.139934   -2.320563   -0.439848
     21          1           0        0.334339    0.557995    1.278379
     22          1           0        0.904562    2.361678   -1.143472
     23          1           0       -0.166906    2.784047    0.198291
     24          1           0        1.563359    2.576211    0.486337
     25          1           0       -0.786104    0.245842   -1.570033
     26          1           0       -1.613696   -1.271373    1.087835
     27          1           0       -2.312631    1.462169    0.925859
     28          1           0       -3.140523   -0.355050   -1.531651
     29          1           0       -5.158464    0.134595   -0.029938
     30          1           0       -4.722792   -1.577846    0.069856
     31          1           0       -4.247097   -0.466750    1.367049
 ---------------------------------------------------------------------

 SCF Done:  E(UB3LYP) =  -431.292594074     A.U. after   33 cycles
 SCF Done:  E(UB3LYP) =  -431.292594074     a.u. after    1 cycles

 The electronic state is 2-A.
 Alpha  occ. eigenvalues --  -10.09276 -10.08931 -10.08206 -10.08176 -10.07862
 Alpha  occ. eigenvalues --  -10.07491 -10.06524 -10.06418 -10.06114 -10.05881
 Alpha  occ. eigenvalues --  -10.05579  -0.82880  -0.72489  -0.66812  -0.63675
 Alpha  occ. eigenvalues --   -0.61963  -0.55613  -0.54527  -0.49282  -0.47882
 Alpha  occ. eigenvalues --   -0.47422  -0.45483  -0.39504  -0.37246  -0.35889
 Alpha  occ. eigenvalues --   -0.35076  -0.32766  -0.32131  -0.31620  -0.31184
 Alpha  occ. eigenvalues --   -0.29833  -0.28545  -0.27530  -0.27265  -0.26630
 Alpha  occ. eigenvalues --   -0.25554  -0.24503  -0.22946  -0.22276  -0.21356
 Alpha  occ. eigenvalues --   -0.21164  -0.19129  -0.14556   0.04568
 Alpha virt. eigenvalues --    0.06022   0.07125   0.07328   0.08208   0.08660
 Alpha virt. eigenvalues --    0.08975   0.09979   0.10308   0.10683   0.10931
 Alpha virt. eigenvalues --    0.11369   0.11998   0.12468   0.13360   0.13754

  Beta  occ. eigenvalues --  -10.09271 -10.08929 -10.08198 -10.08167 -10.07855
  Beta  occ. eigenvalues --  -10.07486 -10.06485 -10.06400 -10.06099 -10.05847
  Beta  occ. eigenvalues --  -10.05564  -0.82868  -0.72469  -0.66784  -0.63634
  Beta  occ. eigenvalues --   -0.61929  -0.55572  -0.54473  -0.49221  -0.47852
  Beta  occ. eigenvalues --   -0.47391  -0.45439  -0.39465  -0.37218  -0.35864
  Beta  occ. eigenvalues --   -0.35046  -0.32740  -0.32100  -0.31584  -0.31159
  Beta  occ. eigenvalues --   -0.29796  -0.28507  -0.27490  -0.27227  -0.26590
  Beta  occ. eigenvalues --   -0.25525  -0.24472  -0.22923  -0.22242  -0.21335
  Beta  occ. eigenvalues --   -0.21143  -0.19116  -0.14545
  Beta virt. eigenvalues --    0.06632   0.07132   0.07611   0.07713   0.08776
  Beta virt. eigenvalues --    0.09235   0.09498   0.10334   0.10859   0.10990
  Beta virt. eigenvalues --    0.11434   0.11818   0.12464   0.12952   0.13666

 Mulliken charges and spin densities:
               1          2
     1  C    1.329542  -2.050325
     2  C   -1.440781   1.335205
     3  C   -0.002238   0.331177
     4  C    0.481019  -1.254484
     5  C   -0.057771   0.310310
     6  C    0.392361  -1.131794
     7  C   -0.274803   0.111662
     8  C    0.602181  -0.904853
     9  C    0.781474  -0.967251
    10  C   -1.905677   2.038729
    11  C    1.912309  -2.647535
    12  H   -0.105889   0.246864
    13  H   -0.589395   0.733556
    14  H   -0.205237   0.343747
    15  H   -0.177650   0.321025
    16  H    0.099054   0.011522
    17  H    0.049828   0.085056
    18  H   -0.095420   0.249022
    19  H    0.075862   0.075814
    20  H    0.058783   0.071253
    21  H    0.024075   0.163579
    22  H    0.006337   0.142327
    23  H   -0.014491   0.148978
    24  H   -0.304085   0.449017
    25  H    0.028444   0.138315
    26  H   -0.119051   0.298042
    27  H   -0.326793   0.500869
    28  H   -0.285613   0.478709
    29  H   -0.362100   0.509227
    30  H   -0.212888   0.358216
    31  H   -0.361385   0.504022
 Sum of Mulliken charges =  -1.00000   1.00000

 Dipole moment (field-independent basis, Debye):
    X=              0.3604    Y=              0.0797    Z=             -2.0292  Tot=              2.0625
 Quadrupole moment (field-independent basis, Debye-Ang):
   XX=           -182.7554   YY=           -110.9884   ZZ=           -104.5333
   XY=             -2.1432   XZ=              0.6402   YZ=             -0.5910

 Summary of Natural Population Analysis:

                                       Natural Population
                Natural  -----------------------------------------------
    Atom  No    Charge         Core      Valence    Rydberg      Total
 -----------------------------------------------------------------------
      C    1   -0.28479      0.99967     2.28001    0.00511     3.28479
      C    2   -0.18875      0.99962     2.18031    0.00881     3.18875
      C    3   -0.10391      0.99959     2.09459    0.00973     3.10391
      C    4   -0.28845      0.99965     2.28290    0.00591     3.28845
      C    5   -0.11300      0.99957     2.10226    0.01118     3.11300
      C    6   -0.28316      0.99965     2.27730    0.00621     3.28316
      C    7   -0.10072      0.99956     2.08944    0.01172     3.10072
      C    8   -0.10989      0.99949     2.09780    0.01260     3.10989
      C    9   -0.10946      0.99950     2.09702    0.01294     3.10946
      C   10   -0.10151      0.99959     2.09093    0.01099     3.10151
      C   11   -0.28818      0.99965     2.28274    0.00578     3.28818
      H   12    0.09599      0.00000     0.40296    0.00106     0.40401
      H   13    0.10084      0.00000     0.39784    0.00132     0.39916
      H   14    0.09483      0.00000     0.40408    0.00109     0.40517
      H   15    0.09337      0.00000     0.40535    0.00128     0.40663
      H   16    0.09763      0.00000     0.40099    0.00138     0.40237
      H   17    0.08953      0.00000     0.40883    0.00163     0.41047
      H   18    0.09620      0.00000     0.40274    0.00106     0.40380
      H   19    0.10414      0.00000     0.39481    0.00105     0.39586
      H   20    0.09917      0.00000     0.40003    0.00080     0.40083
      H   21    0.09532      0.00000     0.40239    0.00229     0.40468
      H   22    0.09594      0.00000     0.40315    0.00091     0.40406
      H   23    0.10081      0.00000     0.39828    0.00091     0.39919
      H   24    0.10035      0.00000     0.39869    0.00096     0.39965
      H   25    0.09364      0.00000     0.40474    0.00162     0.40636
      H   26    0.10993      0.00000     0.38889    0.00119     0.39007
      H   27    0.10913      0.00000     0.38973    0.00114     0.39087
      H   28    0.09131      0.00000     0.40712    0.00157     0.40869
      H   29    0.10175      0.00000     0.39696    0.00130     0.39825
      H   30    0.10141      0.00000     0.39738    0.00121     0.39859
      H   31    0.10053      0.00000     0.39774    0.00173     0.39947
 =======================================================================
   * Total *   -0.00000     10.99553    31.87800    0.12647    43.00000

 Normal termination of Gaussian 16 at Tue Dec  8 21:51:57 2020.
