 Gaussian 16, Revision A.03,

 -----------------------------------------------------------
 # opt freq B3LYP/6-31G(d) empiricaldispersion=gd3bj scf=xqc
 -----------------------------------------------------------

 ------------------------------
 CID_91454922_JID_2902_neutraal
 ------------------------------
 Symbolic Z-matrix:
 Charge =  0 Multiplicity = 1

 SCF Done:  E(RB3LYP) =  -502.646473117     A.U. after   13 cycles
 SCF Done:  E(RB3LYP) =  -502.650045321     A.U. after   12 cycles
 SCF Done:  E(RB3LYP) =  -502.650389857     A.U. after   11 cycles
 SCF Done:  E(RB3LYP) =  -502.650563257     A.U. after   11 cycles
 SCF Done:  E(RB3LYP) =  -502.650594018     A.U. after   10 cycles
 SCF Done:  E(RB3LYP) =  -502.650601629     A.U. after    9 cycles
 SCF Done:  E(RB3LYP) =  -502.650603155     A.U. after    9 cycles
 SCF Done:  E(RB3LYP) =  -502.650603514     A.U. after    7 cycles
 SCF Done:  E(RB3LYP) =  -502.650603695     A.U. after    7 cycles
 SCF Done:  E(RB3LYP) =  -502.650603758     A.U. after    7 cycles
 Optimization completed.
    -- Stationary point found.
 Normal termination of Gaussian 16 at Wed Dec  9 17:58:12 2020.

 --------------------------------------------------------------------
 #N Geom=AllCheck Guess=TCheck SCRF=Check GenChk RB3LYP/6-31G(d) Freq
 --------------------------------------------------------------------

 Structure from the checkpoint file:  "JID_2902.chk"
 ------------------------------
 CID_91454922_JID_2902_neutraal
 ------------------------------
 Charge =  0 Multiplicity = 1

 SCF Done:  E(RB3LYP) =  -502.650603758     A.U. after    1 cycles

  Exact polarizability: 142.930   1.470 110.970   2.742  -2.017 100.996
 Approx polarizability: 183.120   3.725 153.375   6.063  -4.789 147.235

                      1                      2                      3
                      A                      A                      A
 Frequencies --     32.8166                58.2074                80.6210
 Red. masses --      2.9883                 3.0871                 2.6907
 Frc consts  --      0.0019                 0.0062                 0.0103
 IR Inten    --      0.2704                 0.1432                 0.0464

                      4                      5                      6
                      A                      A                      A
 Frequencies --     91.6026               110.6713               177.0071
 Red. masses --      3.0145                 2.7810                 2.1375
 Frc consts  --      0.0149                 0.0201                 0.0395
 IR Inten    --      1.2035                 0.6802                 0.0321

                      7                      8                      9
                      A                      A                      A
 Frequencies --    213.7312               220.2978               247.7901
 Red. masses --      1.0711                 1.7119                 1.8644
 Frc consts  --      0.0288                 0.0490                 0.0674
 IR Inten    --      0.0479                 1.0987                 0.8597

                     10                     11                     12
                      A                      A                      A
 Frequencies --    275.9627               280.9438               299.8500
 Red. masses --      2.0722                 2.6574                 2.4485
 Frc consts  --      0.0930                 0.1236                 0.1297
 IR Inten    --      0.8208                 0.0559                 0.2959

                     13                     14                     15
                      A                      A                      A
 Frequencies --    388.7574               405.8563               438.3586
 Red. masses --      1.8175                 3.0482                 2.1298
 Frc consts  --      0.1618                 0.2958                 0.2411
 IR Inten    --      1.2591                 0.3664                 1.4913

                     16                     17                     18
                      A                      A                      A
 Frequencies --    480.5057               505.6742               571.0948
 Red. masses --      3.0125                 2.1351                 3.0199
 Frc consts  --      0.4098                 0.3217                 0.5803
 IR Inten    --     17.5238                 7.9673                 6.9867

                     19                     20                     21
                      A                      A                      A
 Frequencies --    658.6546               702.3909               762.3553
 Red. masses --      2.5260                 3.5760                 2.0501
 Frc consts  --      0.6457                 1.0395                 0.7020
 IR Inten    --     18.3137                 1.4623                15.5949

                     22                     23                     24
                      A                      A                      A
 Frequencies --    780.6773               798.3314               824.1821
 Red. masses --      1.6212                 1.2418                 1.3892
 Frc consts  --      0.5821                 0.4663                 0.5560
 IR Inten    --     41.1470                 0.2466                 3.4078

                     25                     26                     27
                      A                      A                      A
 Frequencies --    840.3051               873.2210               887.9975
 Red. masses --      3.3128                 2.3588                 1.9447
 Frc consts  --      1.3782                 1.0597                 0.9035
 IR Inten    --      2.4061                 5.7513                 9.8255

                     28                     29                     30
                      A                      A                      A
 Frequencies --    931.9343               949.0802               954.9685
 Red. masses --      1.7305                 1.8562                 1.7529
 Frc consts  --      0.8855                 0.9851                 0.9419
 IR Inten    --      3.9838                 2.0577                24.7802

                     31                     32                     33
                      A                      A                      A
 Frequencies --   1000.0721              1021.5584              1043.7317
 Red. masses --      2.1531                 1.9333                 1.9404
 Frc consts  --      1.2688                 1.1887                 1.2455
 IR Inten    --      0.3505                 4.5347                 2.2166

                     34                     35                     36
                      A                      A                      A
 Frequencies --   1051.4830              1067.5945              1076.0713
 Red. masses --      2.3590                 1.7059                 1.7353
 Frc consts  --      1.5366                 1.1455                 1.1839
 IR Inten    --      1.6645                20.3154                 3.0052

                     37                     38                     39
                      A                      A                      A
 Frequencies --   1102.8344              1112.3724              1146.4813
 Red. masses --      1.6234                 1.8120                 2.0585
 Frc consts  --      1.1633                 1.3210                 1.5942
 IR Inten    --      9.0930                 3.6005                 9.9573

                     40                     41                     42
                      A                      A                      A
 Frequencies --   1156.3532              1175.3146              1203.7722
 Red. masses --      1.9551                 2.1081                 1.3148
 Frc consts  --      1.5402                 1.7158                 1.1225
 IR Inten    --      6.0139                 0.4772                 2.9710

                     43                     44                     45
                      A                      A                      A
 Frequencies --   1219.6724              1241.8019              1294.6825
 Red. masses --      1.4118                 2.0141                 1.1594
 Frc consts  --      1.2374                 1.8300                 1.1450
 IR Inten    --     11.2524                21.2039                 7.5850

                     46                     47                     48
                      A                      A                      A
 Frequencies --   1301.4345              1309.2659              1323.1051
 Red. masses --      1.1774                 1.2541                 1.1942
 Frc consts  --      1.1750                 1.2665                 1.2317
 IR Inten    --      1.5294                 9.9580                 1.2910

                     49                     50                     51
                      A                      A                      A
 Frequencies --   1344.1339              1357.7331              1368.2462
 Red. masses --      1.4190                 1.4129                 1.4671
 Frc consts  --      1.5104                 1.5345                 1.6183
 IR Inten    --      3.0485                 1.6665                 7.4667

                     52                     53                     54
                      A                      A                      A
 Frequencies --   1372.2676              1387.6803              1391.6672
 Red. masses --      1.5219                 1.4791                 1.5120
 Frc consts  --      1.6885                 1.6781                 1.7254
 IR Inten    --      2.8530                23.9547                10.1102

                     55                     56                     57
                      A                      A                      A
 Frequencies --   1418.1815              1432.0767              1438.5640
 Red. masses --      1.3940                 1.2163                 1.2177
 Frc consts  --      1.6519                 1.4697                 1.4847
 IR Inten    --     26.3575                 1.0203                 5.1207

                     58                     59                     60
                      A                      A                      A
 Frequencies --   1446.4512              1501.1617              1506.7761
 Red. masses --      1.4475                 1.1748                 1.1500
 Frc consts  --      1.7844                 1.5598                 1.5384
 IR Inten    --      6.5764                 4.4096                 1.7647

                     61                     62                     63
                      A                      A                      A
 Frequencies --   1507.6292              1515.3113              1521.9899
 Red. masses --      1.0887                 1.1163                 1.1233
 Frc consts  --      1.4579                 1.5102                 1.5331
 IR Inten    --      2.4903                 7.1421                 1.6501

                     64                     65                     66
                      A                      A                      A
 Frequencies --   1525.9903              1528.1319              1529.5758
 Red. masses --      1.0499                 1.0443                 1.0406
 Frc consts  --      1.4405                 1.4368                 1.4345
 IR Inten    --      0.2910                 1.7165                 7.2785

                     67                     68                     69
                      A                      A                      A
 Frequencies --   1536.5282              1536.9979              1541.8197
 Red. masses --      1.1063                 1.0673                 1.0888
 Frc consts  --      1.5389                 1.4856                 1.5249
 IR Inten    --      3.4915                 1.0097                12.5867

                     70                     71                     72
                      A                      A                      A
 Frequencies --   1752.3600              2897.0365              2904.4580
 Red. masses --      9.8444                 1.0744                 1.0724
 Frc consts  --     17.8110                 5.3126                 5.3302
 IR Inten    --    112.6470                41.1047               159.5520

                     73                     74                     75
                      A                      A                      A
 Frequencies --   3003.4604              3034.0162              3038.4400
 Red. masses --      1.0812                 1.0671                 1.0669
 Frc consts  --      5.7465                 5.7874                 5.8031
 IR Inten    --     37.9907                58.3072                28.2066

                     76                     77                     78
                      A                      A                      A
 Frequencies --   3048.2715              3052.5722              3057.9034
 Red. masses --      1.0360                 1.0349                 1.0659
 Frc consts  --      5.6720                 5.6815                 5.8724
 IR Inten    --     22.6752                35.4665                34.5172

                     79                     80                     81
                      A                      A                      A
 Frequencies --   3062.0946              3076.8372              3078.7154
 Red. masses --      1.0645                 1.0870                 1.0873
 Frc consts  --      5.8808                 6.0632                 6.0721
 IR Inten    --     17.6473                75.7462                37.9667

                     82                     83                     84
                      A                      A                      A
 Frequencies --   3086.7084              3103.3420              3104.5333
 Red. masses --      1.0975                 1.0980                 1.0986
 Frc consts  --      6.1610                 6.2302                 6.2388
 IR Inten    --     32.2416                 6.8425                 3.8098

                     85                     86                     87
                      A                      A                      A
 Frequencies --   3117.8098              3121.3359              3122.4883
 Red. masses --      1.1001                 1.0987                 1.1021
 Frc consts  --      6.3005                 6.3068                 6.3308
 IR Inten    --     28.8735                49.5290                35.2832

                     88                     89                     90
                      A                      A                      A
 Frequencies --   3127.4201              3131.9263              3501.4757
 Red. masses --      1.1033                 1.1035                 1.0746
 Frc consts  --      6.3578                 6.3772                 7.7623
 IR Inten    --     28.3717                47.6492                 2.1021

 - Thermochemistry -
 -------------------
 Temperature   298.150 Kelvin.  Pressure   1.00000 Atm.
 Atom     1 has atomic number  6 and mass  12.00000

 Molecular mass:   168.16265 amu.
 Principal axes and moments of inertia in atomic units:
                           1         2         3
     Eigenvalues --  1295.046313270.308043724.79221
           X            0.99999   0.00346   0.00395
           Y           -0.00344   0.99997  -0.00676
           Z           -0.00398   0.00675   0.99997
 This molecule is an asymmetric top.
 Rotational symmetry number  1.
 Warning -- assumption of classical behavior for rotation
           may cause significant error
 Rotational temperatures (Kelvin)      0.06688     0.02648     0.02325
 Rotational constants (GHZ):           1.39357     0.55186     0.48452
 Zero-point vibrational energy     776517.4 (Joules/Mol)
                                  185.59211 (Kcal/Mol)
 Warning -- explicit consideration of  18 degrees of freedom as
           vibrations may cause significant error
 Vibrational temperatures:     47.22    83.75   116.00   131.80   159.23
          (Kelvin)            254.67   307.51   316.96   356.51   397.05
                              404.22   431.42   559.34   583.94   630.70
                              691.34   727.55   821.68   947.66  1010.58
                             1096.86  1123.22  1148.62  1185.81  1209.01
                             1256.37  1277.63  1340.85  1365.51  1373.99
                             1438.88  1469.79  1501.70  1512.85  1536.03
                             1548.23  1586.73  1600.46  1649.53  1663.73
                             1691.02  1731.96  1754.84  1786.68  1862.76
                             1872.47  1883.74  1903.65  1933.91  1953.48
                             1968.60  1974.39  1996.56  2002.30  2040.45
                             2060.44  2069.77  2081.12  2159.84  2167.91
                             2169.14  2180.19  2189.80  2195.56  2198.64
                             2200.72  2210.72  2211.40  2218.33  2521.26
                             4168.19  4178.87  4321.31  4365.27  4371.64
                             4385.78  4391.97  4399.64  4405.67  4426.88
                             4429.58  4441.08  4465.02  4466.73  4485.83
                             4490.91  4492.56  4499.66  4506.14  5037.84

 Zero-point correction=                           0.295760 (Hartree/Particle)
 Thermal correction to Energy=                    0.308924
 Thermal correction to Enthalpy=                  0.309869
 Thermal correction to Gibbs Free Energy=         0.255628
 Sum of electronic and zero-point Energies=           -502.354844
 Sum of electronic and thermal Energies=              -502.341679
 Sum of electronic and thermal Enthalpies=            -502.340735
 Sum of electronic and thermal Free Energies=         -502.394976

                     E (Thermal)             CV                S
                      KCal/Mol        Cal/Mol-Kelvin    Cal/Mol-Kelvin
 Total                  193.853             49.741            114.159
 Electronic               0.000              0.000              0.000
 Translational            0.889              2.981             41.267
 Rotational               0.889              2.981             31.134
 Vibrational            192.076             43.780             41.758
 Vibration     1          0.594              1.983              5.651
 Vibration     2          0.596              1.974              4.517
 Vibration     3          0.600              1.962              3.876
 Vibration     4          0.602              1.955              3.626
 Vibration     5          0.607              1.941              3.257
 Vibration     6          0.628              1.871              2.360
 Vibration     7          0.644              1.820              2.012
 Vibration     8          0.647              1.810              1.957
 Vibration     9          0.661              1.766              1.746
 Vibration    10          0.678              1.718              1.559
 Vibration    11          0.681              1.709              1.528
 Vibration    12          0.692              1.674              1.418
 Vibration    13          0.757              1.494              1.005
 Vibration    14          0.771              1.457              0.941
 Vibration    15          0.799              1.387              0.832
 Vibration    16          0.837              1.293              0.709
 Vibration    17          0.861              1.237              0.644
 Vibration    18          0.927              1.094              0.502

 Optimization completed.
    -- Stationary point found.
 Normal termination of Gaussian 16 at Wed Dec  9 18:06:36 2020.

 ----------------------------------------------------------------------
 # B3LYP/6-311++G(d,p) empiricaldispersion=gd3bj scf=xqc pop=npa geom=c
 heck
 ----------------------------------------------------------------------

 --------------------------------------
 CID_91454922_JID_2902_Energie_neutraal
 --------------------------------------
 Structure from the checkpoint file:  "JID_2902.chk"
 Charge =  0 Multiplicity = 1

 SCF Done:  E(RB3LYP) =  -502.791687394     A.U. after   13 cycles
 Normal termination of Gaussian 16 at Wed Dec  9 18:10:31 2020.

 ----------------------------------------------------------------------
 # B3LYP/6-311++G(d,p) empiricaldispersion=gd3bj scf=xqc pop=npa geom=c
 heck
 ----------------------------------------------------------------------

 ------------------------------------
 CID_91454922_JID_2902_Energie_kation
 ------------------------------------
 Structure from the checkpoint file:  "JID_2902.chk"
 Charge =  1 Multiplicity = 2

 SCF Done:  E(UB3LYP) =  -502.509256823     A.U. after   19 cycles
 Normal termination of Gaussian 16 at Wed Dec  9 18:18:10 2020.
 Gaussian 16:  ES64L-G16RevA.03 25-Dec-2016

 ----------------------------------------------------------------------
 # B3LYP/6-311++G(d,p) empiricaldispersion=gd3bj scf=xqc pop=npa geom=c
 heck
 ----------------------------------------------------------------------

 -----------------------------------
 CID_91454922_JID_2902_Energie_anion
 -----------------------------------
 Structure from the checkpoint file:  "JID_2902.chk"
 Charge = -1 Multiplicity = 2

                         Standard orientation:
 ---------------------------------------------------------------------
 Center     Atomic      Atomic             Coordinates (Angstroms)
 Number     Number       Type             X           Y           Z
 ---------------------------------------------------------------------
      1          6           0        2.721929   -2.099222    0.051555
      2          6           0        2.165431   -0.857596    0.770652
      3          6           0        1.476876    0.082581   -0.210260
      4          7           0        0.243116    0.086869   -0.530911
      5          6           0       -0.696323   -0.844451    0.085951
      6          6           0       -1.805525   -1.162319   -0.932406
      7          6           0       -2.677800    0.071130   -1.193207
      8          6           0       -3.234249    0.618264    0.123018
      9          7           0       -2.125790    0.945148    1.020196
     10          6           0       -1.326543   -0.229391    1.351556
     11          6           0        2.369244    1.120991   -0.859724
     12          6           0        2.556785    2.342198    0.055694
     13          1           0        1.915119   -2.680452   -0.407264
     14          1           0        3.257363   -2.750216    0.751089
     15          1           0        3.418525   -1.814130   -0.744521
     16          1           0        1.483100   -1.167297    1.567565
     17          1           0        2.990617   -0.322164    1.255049
     18          1           0       -0.214458   -1.786901    0.386424
     19          1           0       -1.351869   -1.522229   -1.862868
     20          1           0       -2.424467   -1.978492   -0.533175
     21          1           0       -2.065965    0.845834   -1.665475
     22          1           0       -3.502254   -0.178289   -1.872194
     23          1           0       -3.814714    1.530559   -0.055534
     24          1           0       -3.925661   -0.132307    0.560926
     25          1           0       -2.484535    1.361314    1.876166
     26          1           0       -1.919418   -1.028231    1.843982
     27          1           0       -0.535747    0.071408    2.048104
     28          1           0        3.348861    0.682275   -1.094801
     29          1           0        1.902357    1.433423   -1.797967
     30          1           0        3.016552    2.064355    1.011669
     31          1           0        3.199953    3.092029   -0.417727
     32          1           0        1.586420    2.802287    0.268594
 ---------------------------------------------------------------------

 SCF Done:  E(UB3LYP) =  -502.776611197     A.U. after   33 cycles
 SCF Done:  E(UB3LYP) =  -502.776611196     a.u. after    1 cycles

 The electronic state is 2-A.
 Alpha  occ. eigenvalues --  -14.18689 -14.18270 -10.10337 -10.08664 -10.08349
 Alpha  occ. eigenvalues --  -10.08251 -10.06865 -10.06744 -10.06687 -10.06001
 Alpha  occ. eigenvalues --  -10.05727 -10.05533  -0.82063  -0.79397  -0.69464
 Alpha  occ. eigenvalues --   -0.66550  -0.65570  -0.63467  -0.55347  -0.53192
 Alpha  occ. eigenvalues --   -0.52274  -0.50902  -0.45722  -0.41011  -0.39883
 Alpha  occ. eigenvalues --   -0.37820  -0.36212  -0.34591  -0.33994  -0.33291
 Alpha  occ. eigenvalues --   -0.32356  -0.31011  -0.30445  -0.28862  -0.28388
 Alpha  occ. eigenvalues --   -0.28315  -0.27114  -0.26744  -0.26016  -0.24422
 Alpha  occ. eigenvalues --   -0.23610  -0.23027  -0.21484  -0.20837  -0.16816
 Alpha  occ. eigenvalues --   -0.13877  -0.11232   0.04590
 Alpha virt. eigenvalues --    0.06564   0.07100   0.07797   0.08636   0.08981
 Alpha virt. eigenvalues --    0.09506   0.09960   0.10300   0.10746   0.11092
 Alpha virt. eigenvalues --    0.11713   0.12083   0.12311   0.12607   0.13777

  Beta  occ. eigenvalues --  -14.18667 -14.18251 -10.10320 -10.08656 -10.08331
  Beta  occ. eigenvalues --  -10.08226 -10.06856 -10.06721 -10.06675 -10.05952
  Beta  occ. eigenvalues --  -10.05717 -10.05529  -0.82026  -0.79362  -0.69427
  Beta  occ. eigenvalues --   -0.66523  -0.65524  -0.63429  -0.55289  -0.53133
  Beta  occ. eigenvalues --   -0.52196  -0.50868  -0.45674  -0.40945  -0.39830
  Beta  occ. eigenvalues --   -0.37784  -0.36175  -0.34563  -0.33952  -0.33252
  Beta  occ. eigenvalues --   -0.32324  -0.30969  -0.30406  -0.28814  -0.28354
  Beta  occ. eigenvalues --   -0.28281  -0.27066  -0.26686  -0.25980  -0.24398
  Beta  occ. eigenvalues --   -0.23577  -0.23003  -0.21444  -0.20810  -0.16731
  Beta  occ. eigenvalues --   -0.13839  -0.11182
  Beta virt. eigenvalues --    0.06784   0.07242   0.07661   0.08315   0.09161
  Beta virt. eigenvalues --    0.09461   0.09792   0.10371   0.10546   0.11209
  Beta virt. eigenvalues --    0.11601   0.12009   0.12354   0.12555   0.12862

 Mulliken charges and spin densities:
               1          2
     1  C    1.327698  -1.892953
     2  C   -0.420940   0.204911
     3  C   -0.113051   0.235478
     4  N    0.281296  -0.008241
     5  C   -1.337920   1.191575
     6  C    0.444466  -0.820002
     7  C   -0.462977   0.243548
     8  C    0.459350  -0.817896
     9  N   -0.354747   0.266082
    10  C    1.442339  -2.059303
    11  C   -0.006312  -0.264982
    12  C   -0.277030  -0.263867
    13  H   -0.300870   0.443887
    14  H   -0.614929   0.774889
    15  H   -0.098391   0.224650
    16  H   -0.140577   0.298245
    17  H   -0.432775   0.595612
    18  H    0.078807   0.107738
    19  H    0.011253   0.136436
    20  H   -0.074758   0.197188
    21  H    0.203961  -0.059397
    22  H   -0.021339   0.168601
    23  H   -0.235569   0.388325
    24  H   -0.133308   0.229974
    25  H   -0.064656   0.311647
    26  H   -0.472666   0.594389
    27  H   -0.052050   0.235005
    28  H    0.052259   0.078682
    29  H    0.122611   0.024375
    30  H   -0.007465   0.141747
    31  H    0.069784   0.064817
    32  H    0.128503   0.028840
 Sum of Mulliken charges =  -1.00000   1.00000

 Dipole moment (field-independent basis, Debye):
    X=             -0.6750    Y=              3.5147    Z=             -4.1369  Tot=              5.4702
 Quadrupole moment (field-independent basis, Debye-Ang):
   XX=           -144.0118   YY=           -120.4995   ZZ=           -113.3831
   XY=             12.1430   XZ=             -1.6855   YZ=              3.8631

 Summary of Natural Population Analysis:

                                       Natural Population
                Natural  -----------------------------------------------
    Atom  No    Charge         Core      Valence    Rydberg      Total
 -----------------------------------------------------------------------
      C    1   -0.27939      0.99965     2.27420    0.00553     3.27939
      C    2   -0.22880      0.99959     2.21961    0.00961     3.22880
      C    3    0.16336      0.99957     1.82095    0.01611     2.83664
      N    4   -0.24243      0.99963     2.73086    0.01194     3.74243
      C    5   -0.03221      0.99956     2.01830    0.01435     3.03221
      C    6   -0.18691      0.99961     2.17779    0.00950     3.18691
      C    7   -0.19692      0.99962     2.18868    0.00862     3.19692
      C    8   -0.08584      0.99962     2.07466    0.01156     3.08584
      N    9   -0.33753      0.99973     2.82587    0.01193     3.83753
      C   10   -0.08609      0.99960     2.07406    0.01244     3.08609
      C   11   -0.20951      0.99959     2.20094    0.00898     3.20951
      C   12   -0.28110      0.99966     2.27761    0.00383     3.28110
      H   13    0.09798      0.00000     0.40060    0.00143     0.40202
      H   14    0.10313      0.00000     0.39461    0.00225     0.39687
      H   15    0.09496      0.00000     0.40373    0.00130     0.40504
      H   16    0.10557      0.00000     0.39256    0.00187     0.39443
      H   17    0.10339      0.00000     0.39488    0.00173     0.39661
      H   18    0.09204      0.00000     0.40551    0.00244     0.40796
      H   19    0.09978      0.00000     0.39926    0.00096     0.40022
      H   20    0.09487      0.00000     0.40382    0.00131     0.40513
      H   21    0.10545      0.00000     0.39297    0.00157     0.39455
      H   22    0.09422      0.00000     0.40496    0.00082     0.40578
      H   23    0.09263      0.00000     0.40636    0.00101     0.40737
      H   24    0.07408      0.00000     0.42411    0.00182     0.42592
      H   25    0.17447      0.00000     0.32252    0.00301     0.32553
      H   26    0.08068      0.00000     0.41704    0.00228     0.41932
      H   27    0.09700      0.00000     0.40139    0.00161     0.40300
      H   28    0.09607      0.00000     0.40278    0.00115     0.40393
      H   29    0.10393      0.00000     0.39489    0.00117     0.39607
      H   30    0.09650      0.00000     0.40232    0.00118     0.40350
      H   31    0.09416      0.00000     0.40504    0.00080     0.40584
      H   32    0.10244      0.00000     0.39644    0.00112     0.39756
 =======================================================================
   * Total *    0.00000     11.99544    34.84933    0.15523    47.00000

 Normal termination of Gaussian 16 at Wed Dec  9 18:31:28 2020.
