 Gaussian 16, Revision A.03,

 -----------------------------------------------------------
 # opt freq B3LYP/6-31G(d) empiricaldispersion=gd3bj scf=xqc
 -----------------------------------------------------------

 --------------------------------
 CID_111427645_JID_10524_neutraal
 --------------------------------
 Symbolic Z-matrix:
 Charge =  0 Multiplicity = 1

 SCF Done:  E(RB3LYP) =  -917.572808900     A.U. after   16 cycles
 SCF Done:  E(RB3LYP) =  -917.595712864     A.U. after   13 cycles
 SCF Done:  E(RB3LYP) =  -917.597841540     A.U. after   14 cycles
 SCF Done:  E(RB3LYP) =  -917.594290315     A.U. after   15 cycles
 SCF Done:  E(RB3LYP) =  -917.591574956     A.U. after   13 cycles
 SCF Done:  E(RB3LYP) =  -917.589589025     A.U. after   13 cycles
 SCF Done:  E(RB3LYP) =  -917.597961320     A.U. after   10 cycles
 SCF Done:  E(RB3LYP) =  -917.599211159     A.U. after   12 cycles
 SCF Done:  E(RB3LYP) =  -917.596061233     A.U. after   14 cycles
 SCF Done:  E(RB3LYP) =  -917.599137630     A.U. after   12 cycles
 SCF Done:  E(RB3LYP) =  -917.599939867     A.U. after    8 cycles
 SCF Done:  E(RB3LYP) =  -917.599941504     A.U. after    8 cycles
 SCF Done:  E(RB3LYP) =  -917.599942987     A.U. after   10 cycles
 SCF Done:  E(RB3LYP) =  -917.599943287     A.U. after    8 cycles
 SCF Done:  E(RB3LYP) =  -917.599943428     A.U. after    7 cycles
 Optimization completed.
    -- Stationary point found.
 Normal termination of Gaussian 16 at Sun Dec 13 13:12:25 2020.

 --------------------------------------------------------------------
 #N Geom=AllCheck Guess=TCheck SCRF=Check GenChk RB3LYP/6-31G(d) Freq
 --------------------------------------------------------------------

 Structure from the checkpoint file:  "JID_10524.chk"
 --------------------------------
 CID_111427645_JID_10524_neutraal
 --------------------------------
 Charge =  0 Multiplicity = 1

 SCF Done:  E(RB3LYP) =  -917.599943428     A.U. after    1 cycles

  Exact polarizability: 224.203   1.152 171.807   4.810  -3.246 123.576
 Approx polarizability: 285.927  13.831 291.766  15.523  -6.634 190.837

                      1                      2                      3
                      A                      A                      A
 Frequencies --     18.5571                35.4199                38.6587
 Red. masses --      5.4893                 5.7976                 5.2178
 Frc consts  --      0.0011                 0.0043                 0.0046
 IR Inten    --      0.7166                 0.4912                 1.9806

                      4                      5                      6
                      A                      A                      A
 Frequencies --     51.0273                61.0117                83.9788
 Red. masses --      3.4510                 5.1521                 6.7143
 Frc consts  --      0.0053                 0.0113                 0.0279
 IR Inten    --      0.3904                 0.4189                 2.0462

                      7                      8                      9
                      A                      A                      A
 Frequencies --    106.5491               131.5347               143.6781
 Red. masses --      3.4735                 3.4814                 3.3033
 Frc consts  --      0.0232                 0.0355                 0.0402
 IR Inten    --      1.4956                 1.8841                 0.9169

                     10                     11                     12
                      A                      A                      A
 Frequencies --    178.8966               180.7145               201.4388
 Red. masses --      4.8910                 3.7503                 2.4404
 Frc consts  --      0.0922                 0.0722                 0.0583
 IR Inten    --      0.5626                 4.8274                 1.9717

                     13                     14                     15
                      A                      A                      A
 Frequencies --    230.7554               250.8095               264.8406
 Red. masses --      4.1280                 3.6689                 5.1454
 Frc consts  --      0.1295                 0.1360                 0.2126
 IR Inten    --      4.9322                12.1814                 1.1614

                     16                     17                     18
                      A                      A                      A
 Frequencies --    284.8089               305.7487               314.7698
 Red. masses --      1.7891                 1.5102                 5.6385
 Frc consts  --      0.0855                 0.0832                 0.3292
 IR Inten    --     12.9361               121.0550                 4.0546

                     19                     20                     21
                      A                      A                      A
 Frequencies --    353.1687               382.9818               399.3621
 Red. masses --      2.6372                 5.3524                 3.6375
 Frc consts  --      0.1938                 0.4625                 0.3418
 IR Inten    --      3.3102                 0.4776                 2.8988

                     22                     23                     24
                      A                      A                      A
 Frequencies --    412.4978               458.7335               463.5027
 Red. masses --      4.6861                 3.2952                 3.2034
 Frc consts  --      0.4698                 0.4086                 0.4055
 IR Inten    --      2.9624                 1.5467                10.1720

                     25                     26                     27
                      A                      A                      A
 Frequencies --    516.9705               541.1294               562.1893
 Red. masses --      5.3000                 5.7240                 1.7021
 Frc consts  --      0.8346                 0.9875                 0.3170
 IR Inten    --      2.6426                 0.7597                72.2492

                     28                     29                     30
                      A                      A                      A
 Frequencies --    605.7303               607.1412               618.8505
 Red. masses --      2.4222                 1.2079                 3.4873
 Frc consts  --      0.5236                 0.2623                 0.7869
 IR Inten    --     10.6370                44.6638                 2.7416

                     31                     32                     33
                      A                      A                      A
 Frequencies --    625.7109               654.7780               660.2415
 Red. masses --      5.1529                 4.8094                 1.2581
 Frc consts  --      1.1886                 1.2149                 0.3231
 IR Inten    --      5.5577                15.2563                45.9415

                     34                     35                     36
                      A                      A                      A
 Frequencies --    693.5957               705.9929               773.9504
 Red. masses --      3.2332                 3.1891                 6.7646
 Frc consts  --      0.9164                 0.9365                 2.3874
 IR Inten    --     11.8846                 9.7320                44.7475

                     37                     38                     39
                      A                      A                      A
 Frequencies --    791.6749               818.4241               829.6791
 Red. masses --      1.3093                 3.2221                 2.3413
 Frc consts  --      0.4835                 1.2716                 0.9496
 IR Inten    --     33.0338                 7.3967                 6.0734

                     40                     41                     42
                      A                      A                      A
 Frequencies --    840.0785               849.2226               887.8795
 Red. masses --      2.2167                 1.9227                 1.3931
 Frc consts  --      0.9217                 0.8170                 0.6471
 IR Inten    --      1.3318                38.1029                 1.2385

                     43                     44                     45
                      A                      A                      A
 Frequencies --    900.5720               914.9939               941.8346
 Red. masses --      2.0510                 1.9657                 4.7092
 Frc consts  --      0.9800                 0.9696                 2.4612
 IR Inten    --      1.6774                14.5836                10.8623

                     46                     47                     48
                      A                      A                      A
 Frequencies --    948.5206               969.2106               977.5152
 Red. masses --      2.1026                 1.2507                 2.9990
 Frc consts  --      1.1145                 0.6922                 1.6884
 IR Inten    --      1.5904                 1.7967                14.2597

                     49                     50                     51
                      A                      A                      A
 Frequencies --   1009.0714              1017.9754              1022.3460
 Red. masses --      1.6559                 5.8939                 1.8045
 Frc consts  --      0.9934                 3.5986                 1.1112
 IR Inten    --      1.9350                 0.5759                 1.3818

                     52                     53                     54
                      A                      A                      A
 Frequencies --   1050.4509              1069.6984              1078.1112
 Red. masses --      2.0489                 3.7511                 2.8635
 Frc consts  --      1.3321                 2.5289                 1.9610
 IR Inten    --      7.7685               148.6180                14.8555

                     55                     56                     57
                      A                      A                      A
 Frequencies --   1092.2373              1120.1609              1128.3622
 Red. masses --      3.1684                 1.5058                 1.9408
 Frc consts  --      2.2270                 1.1132                 1.4559
 IR Inten    --    109.9745                 7.3106                 1.5607

                     58                     59                     60
                      A                      A                      A
 Frequencies --   1145.0855              1186.2398              1198.0915
 Red. masses --      1.7510                 1.4802                 1.1452
 Frc consts  --      1.3527                 1.2272                 0.9686
 IR Inten    --     29.1630                20.9073                38.2287

                     61                     62                     63
                      A                      A                      A
 Frequencies --   1206.7904              1222.2560              1233.9755
 Red. masses --      2.9146                 1.6912                 1.8338
 Frc consts  --      2.5009                 1.4886                 1.6452
 IR Inten    --      5.1880                66.1861               200.8352

                     64                     65                     66
                      A                      A                      A
 Frequencies --   1248.7138              1287.9533              1302.0678
 Red. masses --      1.3971                 1.3148                 1.7691
 Frc consts  --      1.2835                 1.2850                 1.7671
 IR Inten    --     26.0879                32.3770                26.0123

                     67                     68                     69
                      A                      A                      A
 Frequencies --   1307.7585              1329.0467              1348.0451
 Red. masses --      1.5643                 1.3442                 1.6607
 Frc consts  --      1.5763                 1.3990                 1.7780
 IR Inten    --    123.3527                 3.1002                19.6615

                     70                     71                     72
                      A                      A                      A
 Frequencies --   1351.2690              1366.1518              1381.6688
 Red. masses --      1.4172                 1.3336                 2.8095
 Frc consts  --      1.5246                 1.4665                 3.1600
 IR Inten    --      6.3509                 0.6555                21.0555

                     73                     74                     75
                      A                      A                      A
 Frequencies --   1384.3949              1398.0171              1404.4205
 Red. masses --      1.6129                 1.4254                 2.6755
 Frc consts  --      1.8212                 1.6414                 3.1092
 IR Inten    --     26.4717                12.3535               554.5737

                     76                     77                     78
                      A                      A                      A
 Frequencies --   1413.7153              1421.7237              1440.5209
 Red. masses --      1.2661                 1.7327                 1.3255
 Frc consts  --      1.4909                 2.0635                 1.6206
 IR Inten    --     17.4539               130.7052                24.7942

                     79                     80                     81
                      A                      A                      A
 Frequencies --   1451.1234              1511.3497              1519.3036
 Red. masses --      2.0664                 1.1430                 1.0897
 Frc consts  --      2.5638                 1.5383                 1.4819
 IR Inten    --     91.9056                 6.6832                 4.9801

                     82                     83                     84
                      A                      A                      A
 Frequencies --   1525.0641              1527.8317              1533.5229
 Red. masses --      1.1191                 2.1265                 1.0950
 Frc consts  --      1.5335                 2.9246                 1.5172
 IR Inten    --      6.0563                32.7128                 3.2059

                     85                     86                     87
                      A                      A                      A
 Frequencies --   1549.2260              1555.7118              1653.9750
 Red. masses --      2.4032                 1.1264                 6.3580
 Frc consts  --      3.3984                 1.6062                10.2478
 IR Inten    --     72.4719                18.7764                57.3621

                     88                     89                     90
                      A                      A                      A
 Frequencies --   1664.6483              1776.4293              2244.2703
 Red. masses --      5.6762                 7.7026                 5.9154
 Frc consts  --      9.2673                14.3213                17.5544
 IR Inten    --    227.6573               401.0874                 4.7227

                     91                     92                     93
                      A                      A                      A
 Frequencies --   2990.3238              3030.1524              3033.0399
 Red. masses --      1.0718                 1.0683                 1.0727
 Frc consts  --      5.6470                 5.7794                 5.8143
 IR Inten    --     51.8335                26.6190                34.9751

                     94                     95                     96
                      A                      A                      A
 Frequencies --   3064.6399              3065.0545              3100.1716
 Red. masses --      1.0602                 1.0674                 1.1016
 Frc consts  --      5.8666                 5.9079                 6.2378
 IR Inten    --     32.5995                20.6769                34.6993

                     97                     98                     99
                      A                      A                      A
 Frequencies --   3109.2378              3114.8669              3123.9889
 Red. masses --      1.0944                 1.0860                 1.0994
 Frc consts  --      6.2337                 6.2084                 6.3213
 IR Inten    --     14.0689                13.0149                44.3106

                    100                    101                    102
                      A                      A                      A
 Frequencies --   3130.3179              3135.7852              3194.4036
 Red. masses --      1.0940                 1.0948                 1.0881
 Frc consts  --      6.3159                 6.3429                 6.5419
 IR Inten    --     10.2472                12.7277                12.6935

                    103                    104                    105
                      A                      A                      A
 Frequencies --   3224.9835              3229.2488              3229.8965
 Red. masses --      1.0917                 1.0900                 1.0940
 Frc consts  --      6.6897                 6.6968                 6.7243
 IR Inten    --      6.1462                 4.3266                 2.7665

                    106                    107                    108
                      A                      A                      A
 Frequencies --   3493.9021              3580.9785              3750.2395
 Red. masses --      1.1618                 1.0749                 1.0660
 Frc consts  --      8.3557                 8.1210                 8.8331
 IR Inten    --     53.0181                28.8646                 8.5899

 - Thermochemistry -
 -------------------
 Temperature   298.150 Kelvin.  Pressure   1.00000 Atm.
 Atom     1 has atomic number  6 and mass  12.00000

 Molecular mass:   274.13174 amu.
 Principal axes and moments of inertia in atomic units:
                           1         2         3
     Eigenvalues --  2417.99191********************
           X            0.99996  -0.00866  -0.00255
           Y            0.00866   0.99996   0.00051
           Z            0.00254  -0.00053   1.00000
 This molecule is an asymmetric top.
 Rotational symmetry number  1.
 Warning -- assumption of classical behavior for rotation
           may cause significant error
 Rotational temperatures (Kelvin)      0.03582     0.00737     0.00693
 Rotational constants (GHZ):           0.74638     0.15367     0.14432
 Zero-point vibrational energy     824641.8 (Joules/Mol)
                                  197.09411 (Kcal/Mol)
 Warning -- explicit consideration of  30 degrees of freedom as
           vibrations may cause significant error
 Vibrational temperatures:     26.70    50.96    55.62    73.42    87.78
          (Kelvin)            120.83   153.30   189.25   206.72   257.39
                              260.01   289.83   332.01   360.86   381.05
                              409.78   439.90   452.88   508.13   551.03
                              574.59   593.49   660.02   666.88   743.81
                              778.56   808.86   871.51   873.54   890.39
                              900.26   942.08   949.94   997.93  1015.77
                             1113.54  1139.04  1177.53  1193.72  1208.69
                             1221.84  1277.46  1295.72  1316.47  1355.09
                             1364.71  1394.48  1406.43  1451.83  1464.64
                             1470.93  1511.36  1539.06  1551.16  1571.49
                             1611.66  1623.46  1647.52  1706.73  1723.79
                             1736.30  1758.55  1775.42  1796.62  1853.08
                             1873.39  1881.57  1912.20  1939.54  1944.17
                             1965.59  1987.91  1991.84  2011.43  2020.65
                             2034.02  2045.54  2072.59  2087.84  2174.50
                             2185.94  2194.23  2198.21  2206.40  2228.99
                             2238.32  2379.70  2395.06  2555.89  3229.00
                             4302.41  4359.71  4363.87  4409.33  4409.93
                             4460.46  4473.50  4481.60  4494.72  4503.83
                             4511.70  4596.03  4640.03  4646.17  4647.10
                             5026.95  5152.23  5395.76

 Zero-point correction=                           0.314089 (Hartree/Particle)
 Thermal correction to Energy=                    0.333281
 Thermal correction to Enthalpy=                  0.334225
 Thermal correction to Gibbs Free Energy=         0.264622
 Sum of electronic and zero-point Energies=           -917.285854
 Sum of electronic and thermal Energies=              -917.266663
 Sum of electronic and thermal Enthalpies=            -917.265718
 Sum of electronic and thermal Free Energies=         -917.335322

                     E (Thermal)             CV                S
                      KCal/Mol        Cal/Mol-Kelvin    Cal/Mol-Kelvin
 Total                  209.137             72.630            146.493
 Electronic               0.000              0.000              0.000
 Translational            0.889              2.981             42.724
 Rotational               0.889              2.981             34.228
 Vibrational            207.359             66.668             69.540
 Vibration     1          0.593              1.986              6.783
 Vibration     2          0.594              1.982              5.500
 Vibration     3          0.594              1.981              5.327
 Vibration     4          0.595              1.977              4.777
 Vibration     5          0.597              1.973              4.424
 Vibration     6          0.601              1.960              3.796
 Vibration     7          0.605              1.944              3.331
 Vibration     8          0.612              1.922              2.923
 Vibration     9          0.616              1.909              2.754
 Vibration    10          0.629              1.868              2.340
 Vibration    11          0.630              1.866              2.321
 Vibration    12          0.638              1.838              2.120
 Vibration    13          0.652              1.794              1.873
 Vibration    14          0.663              1.761              1.725
 Vibration    15          0.671              1.737              1.630
 Vibration    16          0.683              1.702              1.505
 Vibration    17          0.696              1.663              1.385
 Vibration    18          0.702              1.645              1.337
 Vibration    19          0.729              1.569              1.152
 Vibration    20          0.752              1.506              1.027
 Vibration    21          0.765              1.471              0.965
 Vibration    22          0.776              1.443              0.918
 Vibration    23          0.817              1.342              0.770
 Vibration    24          0.821              1.331              0.756
 Vibration    25          0.872              1.212              0.617
 Vibration    26          0.896              1.159              0.563
 Vibration    27          0.918              1.113              0.519
 Vibration    28          0.964              1.020              0.440
 Vibration    29          0.966              1.017              0.438
 Vibration    30          0.979              0.992              0.418

                           ! Non-Optimized Parameters !
 Normal termination of Gaussian 16 at Sun Dec 13 13:30:21 2020.

 ----------------------------------------------------------------------
 # B3LYP/6-311++G(d,p) empiricaldispersion=gd3bj scf=xqc pop=npa geom=c
 heck
 ----------------------------------------------------------------------

 ----------------------------------------
 CID_111427645_JID_10524_Energie_neutraal
 ----------------------------------------
 Structure from the checkpoint file:  "JID_10524.chk"
 Charge =  0 Multiplicity = 1

 SCF Done:  E(RB3LYP) =  -917.869605047     A.U. after   16 cycles
 Normal termination of Gaussian 16 at Sun Dec 13 13:38:26 2020.

 ----------------------------------------------------------------------
 # B3LYP/6-311++G(d,p) empiricaldispersion=gd3bj scf=xqc pop=npa geom=c
 heck
 ----------------------------------------------------------------------

 --------------------------------------
 CID_111427645_JID_10524_Energie_kation
 --------------------------------------
 Structure from the checkpoint file:  "JID_10524.chk"
 Charge =  1 Multiplicity = 2

 SCF Done:  E(UB3LYP) =  -917.583645132     A.U. after   27 cycles
 Normal termination of Gaussian 16 at Sun Dec 13 13:55:48 2020.
 Gaussian 16:  ES64L-G16RevA.03 25-Dec-2016

 ----------------------------------------------------------------------
 # B3LYP/6-311++G(d,p) empiricaldispersion=gd3bj scf=xqc pop=npa geom=c
 heck
 ----------------------------------------------------------------------

 -------------------------------------
 CID_111427645_JID_10524_Energie_anion
 -------------------------------------
 Structure from the checkpoint file:  "JID_10524.chk"
 Charge = -1 Multiplicity = 2

                         Standard orientation:
 ---------------------------------------------------------------------
 Center     Atomic      Atomic             Coordinates (Angstroms)
 Number     Number       Type             X           Y           Z
 ---------------------------------------------------------------------
      1          6           0       -5.283931    2.306787    0.266541
      2          6           0       -5.133539    1.239691   -0.276092
      3          6           0       -4.952754   -0.053942   -0.940284
      4          8           0       -4.390537   -1.057834   -0.099827
      5          6           0       -3.062445   -0.971636    0.225584
      6          6           0       -2.558839   -2.045396    0.971342
      7          6           0       -1.218554   -2.044386    1.334889
      8          6           0       -0.368435   -0.994525    0.980405
      9          6           0       -0.875990    0.069323    0.227688
     10          6           0       -2.226998    0.078420   -0.153973
     11          7           0       -0.096659    1.187378   -0.153949
     12          6           0        1.284930    1.366570    0.022373
     13          8           0        1.722172    2.421107    0.471848
     14          7           0        2.087740    0.328803   -0.382191
     15          6           0        1.728512   -0.636169   -1.435087
     16          6           0        3.021190   -1.432745   -1.624417
     17          6           0        4.114530   -0.383445   -1.378746
     18          6           0        3.549656    0.488861   -0.243660
     19          6           0        3.987294    0.051631    1.161045
     20          8           0        5.364846    0.294252    1.403895
     21          1           0       -5.419498    3.245124    0.755166
     22          1           0       -5.923443   -0.458636   -1.241396
     23          1           0       -4.343719    0.064207   -1.847718
     24          1           0       -3.228000   -2.852863    1.246839
     25          1           0       -0.824181   -2.870321    1.920056
     26          1           0        0.668860   -0.990940    1.293388
     27          1           0       -2.600055    0.920325   -0.724038
     28          1           0       -0.563400    2.076679   -0.016865
     29          1           0        1.443928   -0.107012   -2.355023
     30          1           0        0.890195   -1.266009   -1.133398
     31          1           0        3.077453   -2.228964   -0.872939
     32          1           0        3.080868   -1.899422   -2.611609
     33          1           0        5.084971   -0.825505   -1.127164
     34          1           0        4.262786    0.224622   -2.277952
     35          1           0        3.815375    1.541861   -0.361451
     36          1           0        3.439732    0.649153    1.894001
     37          1           0        3.724797   -1.007439    1.321221
     38          1           0        5.876150   -0.322574    0.858885
 ---------------------------------------------------------------------

 SCF Done:  E(UB3LYP) =  -917.862690229     A.U. after   33 cycles
 SCF Done:  E(UB3LYP) =  -917.862690229     a.u. after    1 cycles

 The electronic state is 2-A.
 Alpha  occ. eigenvalues --  -19.08345 -19.03501 -19.00174 -14.25819 -14.25210
 Alpha  occ. eigenvalues --  -10.21219 -10.17873 -10.16005 -10.14322 -10.12439
 Alpha  occ. eigenvalues --  -10.11698 -10.11681 -10.11038 -10.10278 -10.09948
 Alpha  occ. eigenvalues --  -10.09366 -10.08780 -10.08775 -10.08580 -10.08555
 Alpha  occ. eigenvalues --   -0.99910  -0.96869  -0.93616  -0.86451  -0.84861
 Alpha  occ. eigenvalues --   -0.77027  -0.71744  -0.70751  -0.67443  -0.67105
 Alpha  occ. eigenvalues --   -0.66616  -0.62837  -0.59063  -0.56245  -0.54222
 Alpha  occ. eigenvalues --   -0.53216  -0.50799  -0.48925  -0.46544  -0.46408
 Alpha  occ. eigenvalues --   -0.44701  -0.42971  -0.42303  -0.42007  -0.41431
 Alpha  occ. eigenvalues --   -0.40454  -0.39420  -0.37249  -0.36222  -0.36131
 Alpha  occ. eigenvalues --   -0.34811  -0.34255  -0.33236  -0.32388  -0.32007
 Alpha  occ. eigenvalues --   -0.31564  -0.30594  -0.30104  -0.28997  -0.27676
 Alpha  occ. eigenvalues --   -0.27339  -0.26849  -0.25791  -0.25155  -0.23887
 Alpha  occ. eigenvalues --   -0.22162  -0.21787  -0.21084  -0.19713  -0.18704
 Alpha  occ. eigenvalues --   -0.16188  -0.15714  -0.13777   0.03507
 Alpha virt. eigenvalues --    0.04774   0.05781   0.06218   0.06508   0.06812
 Alpha virt. eigenvalues --    0.07308   0.07375   0.07736   0.08165   0.08796
 Alpha virt. eigenvalues --    0.09373   0.09854   0.10277   0.10708   0.10997

  Beta  occ. eigenvalues --  -19.08344 -19.03471 -19.00169 -14.25818 -14.25211
  Beta  occ. eigenvalues --  -10.21215 -10.17833 -10.16007 -10.14299 -10.12424
  Beta  occ. eigenvalues --  -10.11697 -10.11666 -10.11033 -10.10263 -10.09942
  Beta  occ. eigenvalues --  -10.09355 -10.08775 -10.08760 -10.08547 -10.08520
  Beta  occ. eigenvalues --   -0.99906  -0.96860  -0.93550  -0.86439  -0.84845
  Beta  occ. eigenvalues --   -0.77007  -0.71704  -0.70716  -0.67417  -0.67080
  Beta  occ. eigenvalues --   -0.66582  -0.62792  -0.59005  -0.56211  -0.54184
  Beta  occ. eigenvalues --   -0.53178  -0.50736  -0.48892  -0.46507  -0.46375
  Beta  occ. eigenvalues --   -0.44667  -0.42924  -0.42272  -0.41973  -0.41399
  Beta  occ. eigenvalues --   -0.40421  -0.39377  -0.37224  -0.36195  -0.36109
  Beta  occ. eigenvalues --   -0.34783  -0.34223  -0.33208  -0.32359  -0.31978
  Beta  occ. eigenvalues --   -0.31518  -0.30577  -0.30074  -0.28976  -0.27633
  Beta  occ. eigenvalues --   -0.27317  -0.26807  -0.25746  -0.25112  -0.23857
  Beta  occ. eigenvalues --   -0.22127  -0.21753  -0.21057  -0.19682  -0.18685
  Beta  occ. eigenvalues --   -0.16164  -0.15699  -0.13722
  Beta virt. eigenvalues --    0.05391   0.05897   0.06291   0.06528   0.06856
  Beta virt. eigenvalues --    0.07221   0.07370   0.07777   0.08012   0.08428
  Beta virt. eigenvalues --    0.08965   0.09703   0.10001   0.10357   0.10921

 Mulliken charges and spin densities:
               1          2
     1  C   -3.633059   2.279100
     2  C    2.948666  -1.386661
     3  C    1.393022  -2.132280
     4  O   -0.078342   0.031264
     5  C   -0.753857   0.046217
     6  C   -0.904920   0.700344
     7  C   -0.297729   0.141981
     8  C    0.333190  -0.363263
     9  C    0.274258  -0.095442
    10  C    0.740898  -0.590088
    11  N   -0.000285  -0.046283
    12  C   -0.084789   0.170087
    13  O   -0.306973  -0.002931
    14  N    0.060657  -0.002240
    15  C   -0.531109   0.276687
    16  C    1.374675  -1.951084
    17  C   -0.263623   0.140853
    18  C   -0.914325   0.558008
    19  C    0.800153  -1.135153
    20  O   -0.247876   0.023098
    21  H   -0.292633   0.436753
    22  H   -0.404431   0.607530
    23  H   -0.344977   0.566029
    24  H    0.061028   0.110820
    25  H   -0.067106   0.243417
    26  H    0.326344  -0.153633
    27  H    0.190704  -0.052521
    28  H    0.293167   0.036467
    29  H   -0.268166   0.473428
    30  H    0.317832  -0.160598
    31  H   -0.142940   0.301567
    32  H   -0.292941   0.485521
    33  H   -0.611201   0.741104
    34  H    0.014645   0.144553
    35  H    0.173074   0.054903
    36  H    0.211782   0.008027
    37  H   -0.095757   0.272321
    38  H    0.022948   0.222098
 Sum of Mulliken charges =  -1.00000   1.00000

 Dipole moment (field-independent basis, Debye):
    X=             -3.4884    Y=              0.5924    Z=              2.0158  Tot=              4.0723
 Quadrupole moment (field-independent basis, Debye-Ang):
   XX=           -247.5580   YY=           -157.9695   ZZ=           -157.8148
   XY=              3.2804   XZ=             -8.9517   YZ=             -6.0622

 Summary of Natural Population Analysis:

                                       Natural Population
                Natural  -----------------------------------------------
    Atom  No    Charge         Core      Valence    Rydberg      Total
 -----------------------------------------------------------------------
      C    1   -0.10600      0.99927     2.10328    0.00345     3.10600
      C    2   -0.01807      0.99935     2.01066    0.00806     3.01807
      C    3   -0.05228      0.99949     2.03843    0.01436     3.05228
      O    4   -0.26889      0.99986     3.25920    0.00983     4.26889
      C    5    0.16726      0.99938     1.81953    0.01383     2.83274
      C    6   -0.12910      0.99952     2.12045    0.00913     3.12910
      C    7   -0.08496      0.99957     2.07662    0.00876     3.08496
      C    8   -0.14063      0.99952     2.13215    0.00897     3.14063
      C    9    0.09411      0.99948     1.89559    0.01082     2.90589
      C   10   -0.15471      0.99947     2.14686    0.00837     3.15471
      N   11   -0.32511      0.99965     2.81648    0.00898     3.82511
      C   12    0.41623      0.99966     1.56143    0.02268     2.58377
      O   13   -0.33105      0.99988     3.32646    0.00471     4.33105
      N   14   -0.27093      0.99963     2.76123    0.01006     3.77093
      C   15   -0.08279      0.99961     2.07331    0.00986     3.08279
      C   16   -0.19461      0.99963     2.18618    0.00880     3.19461
      C   17   -0.19405      0.99961     2.18495    0.00949     3.19405
      C   18   -0.01631      0.99959     2.00353    0.01319     3.01631
      C   19   -0.01222      0.99956     1.99912    0.01354     3.01222
      O   20   -0.36715      0.99990     3.36089    0.00636     4.36715
      H   21    0.11255      0.00000     0.38628    0.00117     0.38745
      H   22    0.11135      0.00000     0.38678    0.00187     0.38865
      H   23    0.10424      0.00000     0.39322    0.00253     0.39576
      H   24    0.10647      0.00000     0.39253    0.00100     0.39353
      H   25    0.10186      0.00000     0.39738    0.00076     0.39814
      H   26    0.10988      0.00000     0.38819    0.00193     0.39012
      H   27    0.10953      0.00000     0.38842    0.00206     0.39047
      H   28    0.19779      0.00000     0.30007    0.00214     0.30221
      H   29    0.09351      0.00000     0.40516    0.00133     0.40649
      H   30    0.10584      0.00000     0.39245    0.00171     0.39416
      H   31    0.09912      0.00000     0.39903    0.00185     0.40088
      H   32    0.10634      0.00000     0.39230    0.00136     0.39366
      H   33    0.10288      0.00000     0.39476    0.00237     0.39712
      H   34    0.10103      0.00000     0.39774    0.00123     0.39897
      H   35    0.11036      0.00000     0.38841    0.00123     0.38964
      H   36    0.09302      0.00000     0.40579    0.00119     0.40698
      H   37    0.07604      0.00000     0.42243    0.00154     0.42396
      H   38    0.22945      0.00000     0.26683    0.00372     0.27055
 =======================================================================
   * Total *    0.00000     19.99162    52.77413    0.23425    73.00000

 Normal termination of Gaussian 16 at Sun Dec 13 14:17:15 2020.
