 Gaussian 16, Revision A.03,

 -----------------------------------------------------------
 # opt freq B3LYP/6-31G(d) empiricaldispersion=gd3bj scf=xqc
 -----------------------------------------------------------

 ------------------------------
 CID_90878365_JID_1944_neutraal
 ------------------------------
 Symbolic Z-matrix:
 Charge =  0 Multiplicity = 1

 SCF Done:  E(RB3LYP) =  -482.005158126     A.U. after   14 cycles
 SCF Done:  E(RB3LYP) =  -482.008465379     A.U. after   13 cycles
 SCF Done:  E(RB3LYP) =  -482.008954745     A.U. after   13 cycles
 SCF Done:  E(RB3LYP) =  -482.008950688     A.U. after   13 cycles
 SCF Done:  E(RB3LYP) =  -482.009633835     A.U. after   12 cycles
 SCF Done:  E(RB3LYP) =  -482.010270520     A.U. after   13 cycles
 SCF Done:  E(RB3LYP) =  -482.010421079     A.U. after   15 cycles
 SCF Done:  E(RB3LYP) =  -482.010608475     A.U. after   14 cycles
 SCF Done:  E(RB3LYP) =  -482.010787493     A.U. after   12 cycles
 SCF Done:  E(RB3LYP) =  -482.010838751     A.U. after   12 cycles
 SCF Done:  E(RB3LYP) =  -482.010852260     A.U. after   10 cycles
 SCF Done:  E(RB3LYP) =  -482.010854044     A.U. after    9 cycles
 SCF Done:  E(RB3LYP) =  -482.010856140     A.U. after   10 cycles
 SCF Done:  E(RB3LYP) =  -482.010856293     A.U. after    8 cycles
 SCF Done:  E(RB3LYP) =  -482.010856299     A.U. after    6 cycles
 Optimization completed.
    -- Stationary point found.
 Normal termination of Gaussian 16 at Tue Dec  8 21:39:42 2020.

 --------------------------------------------------------------------
 #N Geom=AllCheck Guess=TCheck SCRF=Check GenChk RB3LYP/6-31G(d) Freq
 --------------------------------------------------------------------

 Structure from the checkpoint file:  "JID_1944.chk"
 ------------------------------
 CID_90878365_JID_1944_neutraal
 ------------------------------
 Charge =  0 Multiplicity = 1

 SCF Done:  E(RB3LYP) =  -482.010856299     A.U. after    1 cycles

  Exact polarizability: 128.951   0.074  94.778   1.462  -2.515  79.361
 Approx polarizability: 158.617   1.965 138.228   8.196  -8.171 127.511

                      1                      2                      3
                      A                      A                      A
 Frequencies --     42.6937                58.3442                88.7974
 Red. masses --      3.1525                 3.2751                 2.8655
 Frc consts  --      0.0034                 0.0066                 0.0133
 IR Inten    --      3.5367                 0.7512                 1.7351

                      4                      5                      6
                      A                      A                      A
 Frequencies --    111.3266               127.5975               163.4398
 Red. masses --      1.1538                 2.4111                 1.2100
 Frc consts  --      0.0084                 0.0231                 0.0190
 IR Inten    --      0.1202                 3.0914                 3.4031

                      7                      8                      9
                      A                      A                      A
 Frequencies --    218.4841               263.6825               273.2430
 Red. masses --      3.2201                 1.9227                 2.6995
 Frc consts  --      0.0906                 0.0788                 0.1187
 IR Inten    --      3.8440                 0.5307                 2.7425

                     10                     11                     12
                      A                      A                      A
 Frequencies --    307.3449               385.2930               431.7642
 Red. masses --      2.9779                 2.6453                 2.5161
 Frc consts  --      0.1657                 0.2314                 0.2764
 IR Inten    --      1.3476                 0.5521                 0.4268

                     13                     14                     15
                      A                      A                      A
 Frequencies --    464.0050               473.1671               490.9723
 Red. masses --      2.2466                 2.3948                 2.9488
 Frc consts  --      0.2850                 0.3159                 0.4188
 IR Inten    --      0.8582                 1.8776                12.9987

                     16                     17                     18
                      A                      A                      A
 Frequencies --    561.6236               574.9763               667.6676
 Red. masses --      3.5704                 3.7272                 2.5949
 Frc consts  --      0.6635                 0.7260                 0.6816
 IR Inten    --      3.2147                13.8671                 2.5934

                     19                     20                     21
                      A                      A                      A
 Frequencies --    773.2533               807.1938               852.3631
 Red. masses --      2.7242                 1.9595                 2.0975
 Frc consts  --      0.9597                 0.7522                 0.8978
 IR Inten    --      0.1962                 0.6529                 2.3552

                     22                     23                     24
                      A                      A                      A
 Frequencies --    865.2565               888.2320               926.3878
 Red. masses --      1.9587                 1.7727                 2.3934
 Frc consts  --      0.8640                 0.8240                 1.2102
 IR Inten    --      0.3657                 1.1257                 4.4450

                     25                     26                     27
                      A                      A                      A
 Frequencies --    945.2646               969.9867               998.7281
 Red. masses --      2.4314                 1.9201                 1.5686
 Frc consts  --      1.2800                 1.0644                 0.9218
 IR Inten    --     10.8693                 9.5053                 4.7725

                     28                     29                     30
                      A                      A                      A
 Frequencies --   1012.0713              1044.1155              1073.0924
 Red. masses --      1.4980                 1.3587                 1.8618
 Frc consts  --      0.9041                 0.8727                 1.2631
 IR Inten    --      4.8128                 1.3526                 0.1252

                     31                     32                     33
                      A                      A                      A
 Frequencies --   1123.7360              1138.7812              1140.8817
 Red. masses --      2.5005                 2.2736                 2.6810
 Frc consts  --      1.8604                 1.7372                 2.0560
 IR Inten    --      0.1795                 1.9335                 6.2794

                     34                     35                     36
                      A                      A                      A
 Frequencies --   1179.2055              1194.8472              1211.9068
 Red. masses --      1.3975                 1.9618                 1.7112
 Frc consts  --      1.1449                 1.6502                 1.4808
 IR Inten    --      5.0335                70.6133                12.4918

                     37                     38                     39
                      A                      A                      A
 Frequencies --   1238.6653              1266.4604              1300.0511
 Red. masses --      1.6445                 1.5079                 1.2412
 Frc consts  --      1.4866                 1.4249                 1.2360
 IR Inten    --      5.3850                 3.7074                 7.5232

                     40                     41                     42
                      A                      A                      A
 Frequencies --   1316.1283              1357.0954              1390.9560
 Red. masses --      1.3921                 1.3122                 1.6123
 Frc consts  --      1.4208                 1.4239                 1.8379
 IR Inten    --     10.6699                 8.2297                20.8807

                     43                     44                     45
                      A                      A                      A
 Frequencies --   1393.0623              1396.3469              1410.2784
 Red. masses --      1.4247                 1.4900                 1.4182
 Frc consts  --      1.6289                 1.7117                 1.6618
 IR Inten    --     17.1570                 1.3314                12.0209

                     46                     47                     48
                      A                      A                      A
 Frequencies --   1416.8186              1429.4090              1480.1450
 Red. masses --      1.6064                 1.4524                 1.0824
 Frc consts  --      1.8999                 1.7484                 1.3972
 IR Inten    --     60.6043                13.1247                 8.9847

                     49                     50                     51
                      A                      A                      A
 Frequencies --   1495.1689              1495.7170              1504.9654
 Red. masses --      1.0576                 1.0802                 1.0631
 Frc consts  --      1.3930                 1.4238                 1.4186
 IR Inten    --     14.4439                 3.0749                 8.6695

                     52                     53                     54
                      A                      A                      A
 Frequencies --   1505.1636              1511.4823              1519.4412
 Red. masses --      1.0510                 1.0475                 1.0841
 Frc consts  --      1.4028                 1.4099                 1.4746
 IR Inten    --     11.0875                 8.3327                 2.6649

                     55                     56                     57
                      A                      A                      A
 Frequencies --   1530.2417              1752.8974              1809.2840
 Red. masses --      1.1005                 8.7196                10.1497
 Frc consts  --      1.5183                15.7855                19.5757
 IR Inten    --      2.6997                77.8780               122.0560

                     58                     59                     60
                      A                      A                      A
 Frequencies --   3017.3195              3019.1886              3031.4468
 Red. masses --      1.0687                 1.0704                 1.0677
 Frc consts  --      5.7327                 5.7486                 5.7810
 IR Inten    --     11.9549                16.5008                 8.0019

                     61                     62                     63
                      A                      A                      A
 Frequencies --   3037.8159              3038.2613              3044.7756
 Red. masses --      1.0647                 1.0479                 1.0660
 Frc consts  --      5.7891                 5.6995                 5.8226
 IR Inten    --     21.5520                15.7597                37.5969

                     64                     65                     66
                      A                      A                      A
 Frequencies --   3050.4817              3065.1951              3067.1492
 Red. masses --      1.0397                 1.0901                 1.0984
 Frc consts  --      5.7004                 6.0343                 6.0880
 IR Inten    --      9.5439                36.2404                19.7876

                     67                     68                     69
                      A                      A                      A
 Frequencies --   3087.2794              3090.2973              3108.8267
 Red. masses --      1.0996                 1.1024                 1.0987
 Frc consts  --      6.1748                 6.2026                 6.2561
 IR Inten    --     17.2225                52.5033                11.9624

                     70                     71                     72
                      A                      A                      A
 Frequencies --   3117.4670              3158.7268              3165.9349
 Red. masses --      1.0930                 1.0995                 1.1023
 Frc consts  --      6.2587                 6.4635                 6.5097
 IR Inten    --     19.2556                12.3443                12.2767

 - Thermochemistry -
 -------------------
 Temperature   298.150 Kelvin.  Pressure   1.00000 Atm.
 Atom     1 has atomic number  6 and mass  12.00000

 Molecular mass:   153.11536 amu.
 Principal axes and moments of inertia in atomic units:
                           1         2         3
     Eigenvalues --   774.920943141.353983651.17698
           X            0.99989   0.01190  -0.00912
           Y           -0.01190   0.99993   0.00012
           Z            0.00912  -0.00002   0.99996
 This molecule is an asymmetric top.
 Rotational symmetry number  1.
 Warning -- assumption of classical behavior for rotation
           may cause significant error
 Rotational temperatures (Kelvin)      0.11177     0.02757     0.02372
 Rotational constants (GHZ):           2.32894     0.57451     0.49429
 Zero-point vibrational energy     600942.1 (Joules/Mol)
                                  143.62860 (Kcal/Mol)
 Warning -- explicit consideration of  17 degrees of freedom as
           vibrations may cause significant error
 Vibrational temperatures:     61.43    83.94   127.76   160.17   183.58
          (Kelvin)            235.15   314.35   379.38   393.14   442.20
                              554.35   621.21   667.60   680.78   706.40
                              808.05   827.26   960.62  1112.54  1161.37
                             1226.36  1244.91  1277.97  1332.87  1360.02
                             1395.59  1436.95  1456.14  1502.25  1543.94
                             1616.81  1638.45  1641.47  1696.61  1719.12
                             1743.66  1782.16  1822.15  1870.48  1893.62
                             1952.56  2001.28  2004.31  2009.03  2029.08
                             2038.49  2056.60  2129.60  2151.21  2152.00
                             2165.31  2165.59  2174.69  2186.14  2201.68
                             2522.03  2603.16  4341.25  4343.94  4361.58
                             4370.74  4371.38  4380.75  4388.96  4410.13
                             4412.94  4441.91  4446.25  4472.91  4485.34
                             4544.70  4555.07

 Zero-point correction=                           0.228887 (Hartree/Particle)
 Thermal correction to Energy=                    0.240711
 Thermal correction to Enthalpy=                  0.241656
 Thermal correction to Gibbs Free Energy=         0.190437
 Sum of electronic and zero-point Energies=           -481.781970
 Sum of electronic and thermal Energies=              -481.770145
 Sum of electronic and thermal Enthalpies=            -481.769201
 Sum of electronic and thermal Free Energies=         -481.820419

                     E (Thermal)             CV                S
                      KCal/Mol        Cal/Mol-Kelvin    Cal/Mol-Kelvin
 Total                  151.049             43.534            107.798
 Electronic               0.000              0.000              0.000
 Translational            0.889              2.981             40.988
 Rotational               0.889              2.981             30.564
 Vibrational            149.271             37.572             36.245
 Vibration     1          0.595              1.980              5.130
 Vibration     2          0.596              1.974              4.512
 Vibration     3          0.602              1.957              3.686
 Vibration     4          0.607              1.940              3.246
 Vibration     5          0.611              1.926              2.982
 Vibration     6          0.623              1.887              2.510
 Vibration     7          0.646              1.813              1.972
 Vibration     8          0.670              1.739              1.637
 Vibration     9          0.676              1.723              1.576
 Vibration    10          0.697              1.660              1.377
 Vibration    11          0.754              1.502              1.018
 Vibration    12          0.793              1.401              0.853
 Vibration    13          0.822              1.330              0.755
 Vibration    14          0.830              1.310              0.729
 Vibration    15          0.847              1.270              0.681
 Vibration    16          0.917              1.114              0.521
 Vibration    17          0.931              1.085              0.495

 Optimization completed.
    -- Stationary point found.
 Normal termination of Gaussian 16 at Tue Dec  8 21:44:25 2020.

 ----------------------------------------------------------------------
 # B3LYP/6-311++G(d,p) empiricaldispersion=gd3bj scf=xqc pop=npa geom=c
 heck
 ----------------------------------------------------------------------

 --------------------------------------
 CID_90878365_JID_1944_Energie_neutraal
 --------------------------------------
 Structure from the checkpoint file:  "JID_1944.chk"
 Charge =  0 Multiplicity = 1

 SCF Done:  E(RB3LYP) =  -482.146552515     A.U. after   14 cycles
 Normal termination of Gaussian 16 at Tue Dec  8 21:46:43 2020.

 ----------------------------------------------------------------------
 # B3LYP/6-311++G(d,p) empiricaldispersion=gd3bj scf=xqc pop=npa geom=c
 heck
 ----------------------------------------------------------------------

 ------------------------------------
 CID_90878365_JID_1944_Energie_kation
 ------------------------------------
 Structure from the checkpoint file:  "JID_1944.chk"
 Charge =  1 Multiplicity = 2

 SCF Done:  E(UB3LYP) =  -481.836858282     A.U. after   22 cycles
 Normal termination of Gaussian 16 at Tue Dec  8 21:51:20 2020.
 Gaussian 16:  ES64L-G16RevA.03 25-Dec-2016

 ----------------------------------------------------------------------
 # B3LYP/6-311++G(d,p) empiricaldispersion=gd3bj scf=xqc pop=npa geom=c
 heck
 ----------------------------------------------------------------------

 -----------------------------------
 CID_90878365_JID_1944_Energie_anion
 -----------------------------------
 Structure from the checkpoint file:  "JID_1944.chk"
 Charge = -1 Multiplicity = 2

                         Standard orientation:
 ---------------------------------------------------------------------
 Center     Atomic      Atomic             Coordinates (Angstroms)
 Number     Number       Type             X           Y           Z
 ---------------------------------------------------------------------
      1          6           0        3.318786   -1.576359   -0.078078
      2          6           0        2.197022   -0.567760   -0.060070
      3          7           0        1.024111   -0.962852   -0.370515
      4          6           0       -0.108216   -0.029354   -0.355114
      5          6           0        0.132436    1.269585    0.422631
      6          6           0        1.485385    1.863840    0.032535
      7          6           0        2.587529    0.847491    0.336941
      8          6           0       -1.325713   -0.800442    0.160858
      9          6           0       -2.659809   -0.128230   -0.119430
     10          8           0       -2.762154    0.831728   -0.862163
     11          6           0       -3.870941   -0.730602    0.569858
     12          1           0        4.074163   -1.302488   -0.826451
     13          1           0        2.927742   -2.568961   -0.310094
     14          1           0        3.831827   -1.605128    0.892492
     15          1           0       -0.316786    0.230307   -1.402466
     16          1           0        0.125444    1.053062    1.501591
     17          1           0       -0.684737    1.967892    0.221454
     18          1           0        1.482644    2.093707   -1.041170
     19          1           0        1.673913    2.806338    0.558525
     20          1           0        3.527129    1.111479   -0.165697
     21          1           0        2.820153    0.843171    1.412961
     22          1           0       -1.343747   -1.792169   -0.313236
     23          1           0       -1.233554   -0.997202    1.238489
     24          1           0       -3.898948   -1.818365    0.435946
     25          1           0       -3.810424   -0.543720    1.649791
     26          1           0       -4.785237   -0.280793    0.177998
 ---------------------------------------------------------------------

 SCF Done:  E(UB3LYP) =  -482.132304164     A.U. after   33 cycles
 SCF Done:  E(UB3LYP) =  -482.132304164     a.u. after    1 cycles

 The electronic state is 2-A.
 Alpha  occ. eigenvalues --  -19.01025 -14.18911 -10.15841 -10.10930 -10.09216
 Alpha  occ. eigenvalues --  -10.07101 -10.06918 -10.06867 -10.06506 -10.06134
 Alpha  occ. eigenvalues --  -10.05624  -0.94283  -0.82013  -0.69602  -0.68352
 Alpha  occ. eigenvalues --   -0.65428  -0.61400  -0.58277  -0.52184  -0.49664
 Alpha  occ. eigenvalues --   -0.42745  -0.41070  -0.37727  -0.36573  -0.36161
 Alpha  occ. eigenvalues --   -0.35267  -0.34003  -0.33373  -0.31965  -0.31454
 Alpha  occ. eigenvalues --   -0.29952  -0.29011  -0.27600  -0.27042  -0.26826
 Alpha  occ. eigenvalues --   -0.25495  -0.23880  -0.23015  -0.22231  -0.17610
 Alpha  occ. eigenvalues --   -0.14992  -0.13497   0.04581
 Alpha virt. eigenvalues --    0.06348   0.07168   0.07937   0.08292   0.09462
 Alpha virt. eigenvalues --    0.09685   0.10082   0.10364   0.11147   0.11750
 Alpha virt. eigenvalues --    0.11960   0.12278   0.12433   0.13661   0.14255

  Beta  occ. eigenvalues --  -19.00994 -14.18901 -10.15799 -10.10910 -10.09213
  Beta  occ. eigenvalues --  -10.07061 -10.06902 -10.06834 -10.06490 -10.06106
  Beta  occ. eigenvalues --  -10.05604  -0.94216  -0.81981  -0.69560  -0.68309
  Beta  occ. eigenvalues --   -0.65350  -0.61346  -0.58215  -0.52124  -0.49600
  Beta  occ. eigenvalues --   -0.42658  -0.41002  -0.37668  -0.36487  -0.36109
  Beta  occ. eigenvalues --   -0.35217  -0.33945  -0.33322  -0.31908  -0.31399
  Beta  occ. eigenvalues --   -0.29904  -0.28958  -0.27551  -0.26996  -0.26765
  Beta  occ. eigenvalues --   -0.25412  -0.23812  -0.22964  -0.22197  -0.17548
  Beta  occ. eigenvalues --   -0.14954  -0.13475
  Beta virt. eigenvalues --    0.06915   0.07299   0.07667   0.08467   0.08982
  Beta virt. eigenvalues --    0.09744   0.10127   0.10547   0.10950   0.11406
  Beta virt. eigenvalues --    0.12094   0.12237   0.12786   0.12836   0.13985

 Mulliken charges and spin densities:
               1          2
     1  C    0.854705  -1.274289
     2  C   -0.989608   1.166397
     3  N    0.021541   0.081321
     4  C   -1.418751   1.155523
     5  C    0.000362  -0.362558
     6  C   -0.520279   0.244000
     7  C    1.528248  -2.021651
     8  C    1.929150  -2.183197
     9  C   -1.883527   2.106683
    10  O   -0.270275   0.008425
    11  C    1.891835  -2.569812
    12  H   -0.115818   0.261183
    13  H   -0.060342   0.203923
    14  H   -0.309524   0.468333
    15  H    0.092966   0.139582
    16  H   -0.252570   0.398520
    17  H    0.080546   0.098068
    18  H    0.131806  -0.015970
    19  H   -0.452901   0.635947
    20  H   -0.243629   0.403293
    21  H   -0.206417   0.390508
    22  H    0.137048   0.047966
    23  H   -0.111484   0.298729
    24  H   -0.173079   0.319873
    25  H   -0.537214   0.721154
    26  H   -0.122788   0.278049
 Sum of Mulliken charges =  -1.00000   1.00000

 Dipole moment (field-independent basis, Debye):
    X=              0.0354    Y=             -0.2596    Z=             -4.0903  Tot=              4.0987
 Quadrupole moment (field-independent basis, Debye-Ang):
   XX=           -143.7442   YY=           -102.6359   ZZ=           -104.0996
   XY=             -0.0260   XZ=              0.2554   YZ=              0.4086

 Summary of Natural Population Analysis:

                                       Natural Population
                Natural  -----------------------------------------------
    Atom  No    Charge         Core      Valence    Rydberg      Total
 -----------------------------------------------------------------------
      C    1   -0.30439      0.99963     2.29857    0.00619     3.30439
      C    2    0.15837      0.99959     1.82788    0.01416     2.84163
      N    3   -0.24948      0.99964     2.73808    0.01175     3.74948
      C    4   -0.02173      0.99956     2.00833    0.01383     3.02173
      C    5   -0.20044      0.99961     2.19231    0.00853     3.20044
      C    6   -0.18742      0.99964     2.17852    0.00927     3.18742
      C    7   -0.22288      0.99959     2.21473    0.00857     3.22288
      C    8   -0.23797      0.99955     2.22901    0.00941     3.23797
      C    9    0.30243      0.99968     1.67764    0.02025     2.69757
      O   10   -0.29131      0.99987     3.28496    0.00648     4.29131
      C   11   -0.33392      0.99962     2.32879    0.00551     3.33392
      H   12    0.10159      0.00000     0.39735    0.00106     0.39841
      H   13    0.10759      0.00000     0.39110    0.00131     0.39241
      H   14    0.10604      0.00000     0.39226    0.00170     0.39396
      H   15    0.10011      0.00000     0.39808    0.00181     0.39989
      H   16    0.09566      0.00000     0.40258    0.00177     0.40434
      H   17    0.10978      0.00000     0.38904    0.00118     0.39022
      H   18    0.09250      0.00000     0.40619    0.00130     0.40750
      H   19    0.10055      0.00000     0.39834    0.00111     0.39945
      H   20    0.10503      0.00000     0.39376    0.00121     0.39497
      H   21    0.11090      0.00000     0.38588    0.00322     0.38910
      H   22    0.11678      0.00000     0.38171    0.00151     0.38322
      H   23    0.11131      0.00000     0.38696    0.00172     0.38869
      H   24    0.10662      0.00000     0.39230    0.00108     0.39338
      H   25    0.11657      0.00000     0.37959    0.00385     0.38343
      H   26    0.10770      0.00000     0.39126    0.00104     0.39230
 =======================================================================
   * Total *    0.00000     10.99598    30.86520    0.13882    42.00000

 Normal termination of Gaussian 16 at Tue Dec  8 21:56:46 2020.
