 Gaussian 16, Revision A.03,

 -----------------------------------------------------------
 # opt freq B3LYP/6-31G(d) empiricaldispersion=gd3bj scf=xqc
 -----------------------------------------------------------

 ------------------------------
 CID_79001633_JID_1911_neutraal
 ------------------------------
 Symbolic Z-matrix:
 Charge =  0 Multiplicity = 1

 SCF Done:  E(RB3LYP) =  -464.498914030     A.U. after   13 cycles
 SCF Done:  E(RB3LYP) =  -464.502489439     A.U. after   11 cycles
 SCF Done:  E(RB3LYP) =  -464.500868574     A.U. after   11 cycles
 SCF Done:  E(RB3LYP) =  -464.503348610     A.U. after   10 cycles
 SCF Done:  E(RB3LYP) =  -464.503575663     A.U. after   10 cycles
 SCF Done:  E(RB3LYP) =  -464.503607075     A.U. after   10 cycles
 SCF Done:  E(RB3LYP) =  -464.503748695     A.U. after   10 cycles
 SCF Done:  E(RB3LYP) =  -464.503807112     A.U. after   10 cycles
 SCF Done:  E(RB3LYP) =  -464.503809088     A.U. after    8 cycles
 SCF Done:  E(RB3LYP) =  -464.503809521     A.U. after    7 cycles
 SCF Done:  E(RB3LYP) =  -464.503809566     A.U. after    7 cycles
 Optimization completed.
    -- Stationary point found.

 1\1\GINC-NODE103\FOpt\RB3LYP\6-31G(d)\C9H20N2\VSC10255\08-Dec-2020\0\\
 # opt freq B3LYP/6-31G(d) empiricaldispersion=gd3bj scf=xqc\\CID_79001
 633_JID_1911_neutraal\\0,1\C,0.9104212131,0.0555192962,-0.0328304097\C
 ,0.5900679684,1.3902383394,-0.7038615857\N,1.0888545242,2.5448309458,0
 .052675474\C,0.370818813,3.7708863517,-0.3120443183\C,0.6410020331,4.9
 520791164,0.617300166\C,2.5569339367,2.6709973809,-0.0259001361\C,3.27
 5824281,2.8992101652,1.303517942\C,4.7614567022,3.1710265278,1.2035684
 945\C,3.8202668269,4.2597140068,1.6534457072\C,2.8270730103,2.01759303

 Normal termination of Gaussian 16 at Tue Dec  8 21:35:32 2020.

 --------------------------------------------------------------------
 #N Geom=AllCheck Guess=TCheck SCRF=Check GenChk RB3LYP/6-31G(d) Freq
 --------------------------------------------------------------------

 Structure from the checkpoint file:  "JID_1911.chk"
 ------------------------------
 CID_79001633_JID_1911_neutraal
 ------------------------------
 Charge =  0 Multiplicity = 1

 SCF Done:  E(RB3LYP) =  -464.503809566     A.U. after    1 cycles

  Exact polarizability: 115.035  -0.375 108.543  -1.194  -0.173  99.392
 Approx polarizability: 148.320  -1.393 146.879  -2.318   0.379 146.280

                      1                      2                      3
                      A                      A                      A
 Frequencies --     59.9507                82.9713                96.9743
 Red. masses --      3.4160                 2.0370                 2.3802
 Frc consts  --      0.0072                 0.0083                 0.0132
 IR Inten    --      1.5335                 0.4207                 0.1786

                      4                      5                      6
                      A                      A                      A
 Frequencies --    127.0440               142.0923               162.4047
 Red. masses --      2.7907                 1.8736                 2.4684
 Frc consts  --      0.0265                 0.0223                 0.0384
 IR Inten    --      0.5695                 0.8979                 2.9897

                      7                      8                      9
                      A                      A                      A
 Frequencies --    220.1150               245.6718               248.1370
 Red. masses --      2.1868                 1.3709                 1.8110
 Frc consts  --      0.0624                 0.0487                 0.0657
 IR Inten    --      3.2061                 0.1808                 1.5674

                     10                     11                     12
                      A                      A                      A
 Frequencies --    264.4466               294.9847               310.2583
 Red. masses --      2.0240                 1.9535                 2.4043
 Frc consts  --      0.0834                 0.1002                 0.1364
 IR Inten    --      0.1817                 1.4156                 1.6504

                     13                     14                     15
                      A                      A                      A
 Frequencies --    368.6393               388.0191               393.9847
 Red. masses --      1.2993                 2.1702                 1.8166
 Frc consts  --      0.1040                 0.1925                 0.1661
 IR Inten    --     54.4365                 3.8657                 1.7109

                     16                     17                     18
                      A                      A                      A
 Frequencies --    417.2358               461.6736               503.9668
 Red. masses --      2.4486                 2.6992                 2.3394
 Frc consts  --      0.2511                 0.3390                 0.3501
 IR Inten    --     16.1310                18.7758                 0.4710

                     19                     20                     21
                      A                      A                      A
 Frequencies --    517.2122               755.8041               792.2181
 Red. masses --      3.4147                 3.0248                 1.0764
 Frc consts  --      0.5382                 1.0181                 0.3980
 IR Inten    --     11.4921                 1.1338                 1.7405

                     22                     23                     24
                      A                      A                      A
 Frequencies --    810.1883               816.5247               832.5179
 Red. masses --      1.4344                 1.6447                 1.1511
 Frc consts  --      0.5548                 0.6460                 0.4700
 IR Inten    --      6.9065                 4.2312                 0.9842

                     25                     26                     27
                      A                      A                      A
 Frequencies --    879.6245               919.4878               934.4635
 Red. masses --      1.9226                 1.5539                 1.9473
 Frc consts  --      0.8764                 0.7740                 1.0018
 IR Inten    --      8.4393                25.6405                65.3560

                     28                     29                     30
                      A                      A                      A
 Frequencies --    938.5192               949.9098               970.7360
 Red. masses --      1.5607                 1.6579                 2.3592
 Frc consts  --      0.8099                 0.8814                 1.3098
 IR Inten    --      9.1476                 4.5303                10.5189

                     31                     32                     33
                      A                      A                      A
 Frequencies --   1013.8213              1023.8995              1054.2792
 Red. masses --      1.8989                 1.9492                 1.6046
 Frc consts  --      1.1500                 1.2040                 1.0508
 IR Inten    --     13.3505                33.4496                 4.9598

                     34                     35                     36
                      A                      A                      A
 Frequencies --   1070.1212              1083.9083              1093.8351
 Red. masses --      2.1286                 1.4147                 2.8887
 Frc consts  --      1.4362                 0.9793                 2.0364
 IR Inten    --     12.7552                 2.7870                12.6787

                     37                     38                     39
                      A                      A                      A
 Frequencies --   1100.2042              1106.0421              1128.3936
 Red. masses --      2.0554                 1.7811                 1.8905
 Frc consts  --      1.4659                 1.2837                 1.4182
 IR Inten    --      4.7269                 3.2413                39.8245

                     40                     41                     42
                      A                      A                      A
 Frequencies --   1173.7988              1194.4561              1200.9129
 Red. masses --      1.7879                 1.3315                 1.3240
 Frc consts  --      1.4514                 1.1192                 1.1250
 IR Inten    --     21.3344                 2.5580                 1.0324

                     43                     44                     45
                      A                      A                      A
 Frequencies --   1204.7620              1249.4737              1295.0841
 Red. masses --      1.8409                 2.6377                 1.5891
 Frc consts  --      1.5743                 2.4262                 1.5703
 IR Inten    --      8.4073                38.6758                 8.6835

                     46                     47                     48
                      A                      A                      A
 Frequencies --   1327.2238              1332.0604              1354.8481
 Red. masses --      1.2494                 1.5344                 1.4550
 Frc consts  --      1.2967                 1.6041                 1.5736
 IR Inten    --      2.5400                 6.6746                18.9461

                     49                     50                     51
                      A                      A                      A
 Frequencies --   1362.6275              1390.5741              1408.7543
 Red. masses --      1.2899                 1.3262                 1.4601
 Frc consts  --      1.4111                 1.5109                 1.7073
 IR Inten    --      5.7472                12.3094                16.5797

                     52                     53                     54
                      A                      A                      A
 Frequencies --   1417.7674              1434.3396              1443.6591
 Red. masses --      1.3189                 1.2696                 1.2597
 Frc consts  --      1.5619                 1.5389                 1.5468
 IR Inten    --     14.7405                14.0585                13.2633

                     55                     56                     57
                      A                      A                      A
 Frequencies --   1461.2335              1468.8603              1495.4586
 Red. masses --      1.3937                 1.4614                 1.0932
 Frc consts  --      1.7533                 1.8577                 1.4404
 IR Inten    --     10.3864                10.1808                 3.0801

                     58                     59                     60
                      A                      A                      A
 Frequencies --   1507.8102              1516.9980              1522.0818
 Red. masses --      1.0678                 1.0636                 1.0516
 Frc consts  --      1.4303                 1.4421                 1.4354
 IR Inten    --      1.6901                 4.0366                 1.3070

                     61                     62                     63
                      A                      A                      A
 Frequencies --   1525.9842              1531.0711              1533.2417
 Red. masses --      1.0774                 1.0746                 1.1936
 Frc consts  --      1.4782                 1.4842                 1.6532
 IR Inten    --      4.1188                12.1575                 0.5546

                     64                     65                     66
                      A                      A                      A
 Frequencies --   1539.6937              1547.2197              1551.0054
 Red. masses --      1.0930                 1.1328                 1.0952
 Frc consts  --      1.5267                 1.5977                 1.5523
 IR Inten    --      2.3222                 4.5938                 3.4889

                     67                     68                     69
                      A                      A                      A
 Frequencies --   1678.7126              2918.7923              2939.3854
 Red. masses --      1.0840                 1.0737                 1.0739
 Frc consts  --      1.7998                 5.3892                 5.4668
 IR Inten    --     29.2136                64.2516               108.9079

                     70                     71                     72
                      A                      A                      A
 Frequencies --   2944.1944              2975.1942              3054.1602
 Red. masses --      1.0728                 1.0716                 1.0413
 Frc consts  --      5.4792                 5.5887                 5.7227
 IR Inten    --     86.7530                61.2022                24.9178

                     73                     74                     75
                      A                      A                      A
 Frequencies --   3054.9339              3062.3496              3066.8670
 Red. masses --      1.0829                 1.0648                 1.0626
 Frc consts  --      5.9544                 5.8834                 5.8888
 IR Inten    --     40.9598                14.1890                28.6562

                     76                     77                     78
                      A                      A                      A
 Frequencies --   3071.3800              3080.4342              3122.4059
 Red. masses --      1.0891                 1.0864                 1.1014
 Frc consts  --      6.0533                 6.0740                 6.3265
 IR Inten    --     33.8292                39.5357                43.9573

                     79                     80                     81
                      A                      A                      A
 Frequencies --   3128.7695              3133.9449              3135.6068
 Red. masses --      1.1025                 1.0910                 1.0599
 Frc consts  --      6.3586                 6.3135                 6.1399
 IR Inten    --     33.6063                44.3552                10.3966

                     82                     83                     84
                      A                      A                      A
 Frequencies --   3150.8173              3161.3611              3210.4433
 Red. masses --      1.0621                 1.0944                 1.1182
 Frc consts  --      6.2123                 6.4441                 6.7903
 IR Inten    --     10.2791                25.4317                 6.5766

                     85                     86                     87
                      A                      A                      A
 Frequencies --   3233.1471              3442.6465              3535.1187
 Red. masses --      1.1163                 1.0496                 1.0924
 Frc consts  --      6.8752                 7.3292                 8.0438
 IR Inten    --     19.9104                40.7032                11.9686

 - Thermochemistry -
 -------------------
 Temperature   298.150 Kelvin.  Pressure   1.00000 Atm.
 Atom     1 has atomic number  6 and mass  12.00000

 Molecular mass:   156.16265 amu.
 Principal axes and moments of inertia in atomic units:
                           1         2         3
     Eigenvalues --  1440.090382095.692492509.25773
           X            0.99984   0.01790  -0.00054
           Y           -0.01790   0.99984   0.00201
           Z            0.00057  -0.00200   1.00000
 This molecule is an asymmetric top.
 Rotational symmetry number  1.
 Warning -- assumption of classical behavior for rotation
           may cause significant error
 Rotational temperatures (Kelvin)      0.06014     0.04133     0.03452
 Rotational constants (GHZ):           1.25321     0.86117     0.71923
 Zero-point vibrational energy     757666.5 (Joules/Mol)
                                  181.08664 (Kcal/Mol)
 Warning -- explicit consideration of  19 degrees of freedom as
           vibrations may cause significant error
 Vibrational temperatures:     86.26   119.38   139.52   182.79   204.44
          (Kelvin)            233.66   316.70   353.47   357.01   380.48
                              424.42   446.39   530.39   558.27   566.86
                              600.31   664.25   725.10   744.15  1087.43
                             1139.83  1165.68  1174.80  1197.81  1265.58
                             1322.94  1344.48  1350.32  1366.71  1396.67
                             1458.66  1473.16  1516.87  1539.67  1559.50
                             1573.78  1582.95  1591.35  1623.51  1688.83
                             1718.56  1727.85  1733.38  1797.71  1863.34
                             1909.58  1916.54  1949.32  1960.52  2000.73
                             2026.88  2039.85  2063.69  2077.10  2102.39
                             2113.36  2151.63  2169.40  2182.62  2189.94
                             2195.55  2202.87  2205.99  2215.28  2226.10
                             2231.55  2415.29  4199.49  4229.12  4236.04
                             4280.64  4394.26  4395.37  4406.04  4412.54
                             4419.03  4432.06  4492.45  4501.60  4509.05
                             4511.44  4533.32  4548.49  4619.11  4651.78
                             4953.20  5086.25

 Zero-point correction=                           0.288580 (Hartree/Particle)
 Thermal correction to Energy=                    0.301621
 Thermal correction to Enthalpy=                  0.302566
 Thermal correction to Gibbs Free Energy=         0.250116
 Sum of electronic and zero-point Energies=           -464.215230
 Sum of electronic and thermal Energies=              -464.202188
 Sum of electronic and thermal Enthalpies=            -464.201244
 Sum of electronic and thermal Free Energies=         -464.253693

                     E (Thermal)             CV                S
                      KCal/Mol        Cal/Mol-Kelvin    Cal/Mol-Kelvin
 Total                  189.270             49.527            110.389
 Electronic               0.000              0.000              0.000
 Translational            0.889              2.981             41.047
 Rotational               0.889              2.981             30.405
 Vibrational            187.493             43.566             38.937
 Vibration     1          0.597              1.973              4.459
 Vibration     2          0.600              1.961              3.819
 Vibration     3          0.603              1.951              3.514
 Vibration     4          0.611              1.926              2.990
 Vibration     5          0.616              1.911              2.776
 Vibration     6          0.623              1.889              2.522
 Vibration     7          0.647              1.810              1.958
 Vibration     8          0.660              1.770              1.761
 Vibration     9          0.662              1.766              1.744
 Vibration    10          0.671              1.738              1.632
 Vibration    11          0.689              1.683              1.445
 Vibration    12          0.699              1.654              1.361
 Vibration    13          0.741              1.537              1.085
 Vibration    14          0.756              1.496              1.008
 Vibration    15          0.761              1.483              0.985
 Vibration    16          0.780              1.433              0.901
 Vibration    17          0.819              1.335              0.761
 Vibration    18          0.859              1.241              0.648
 Vibration    19          0.872              1.212              0.616

                           ! Non-Optimized Parameters !

 1\1\GINC-NODE103\Freq\RB3LYP\6-31G(d)\C9H20N2\VSC10255\08-Dec-2020\0\\
 #N Geom=AllCheck Guess=TCheck SCRF=Check GenChk RB3LYP/6-31G(d) Freq\\
 CID_79001633_JID_1911_neutraal\\0,1\C,0.9104212131,0.0555192962,-0.032
 8304097\C,0.5900679684,1.3902383394,-0.7038615857\N,1.0888545242,2.544
 8309458,0.052675474\C,0.370818813,3.7708863517,-0.3120443183\C,0.64100
 20331,4.9520791164,0.617300166\C,2.5569339367,2.6709973809,-0.02590013
 61\C,3.275824281,2.8992101652,1.303517942\C,4.7614567022,3.1710265278,
 1.2035684945\C,3.8202668269,4.2597140068,1.6534457072\C,2.8270730103,2

 Normal termination of Gaussian 16 at Tue Dec  8 21:44:04 2020.

 ----------------------------------------------------------------------
 # B3LYP/6-311++G(d,p) empiricaldispersion=gd3bj scf=xqc pop=npa geom=c
 heck
 ----------------------------------------------------------------------

 --------------------------------------
 CID_79001633_JID_1911_Energie_neutraal
 --------------------------------------
 Structure from the checkpoint file:  "JID_1911.chk"
 Charge =  0 Multiplicity = 1

 SCF Done:  E(RB3LYP) =  -464.641176253     A.U. after   13 cycles
 Normal termination of Gaussian 16 at Tue Dec  8 21:48:59 2020.

 ----------------------------------------------------------------------
 # B3LYP/6-311++G(d,p) empiricaldispersion=gd3bj scf=xqc pop=npa geom=c
 heck
 ----------------------------------------------------------------------

 ------------------------------------
 CID_79001633_JID_1911_Energie_kation
 ------------------------------------
 Structure from the checkpoint file:  "JID_1911.chk"
 Charge =  1 Multiplicity = 2

 SCF Done:  E(UB3LYP) =  -464.354064649     A.U. after   20 cycles
 Normal termination of Gaussian 16 at Tue Dec  8 21:56:57 2020.
 Gaussian 16:  ES64L-G16RevA.03 25-Dec-2016

 -----------------------------------
 CID_79001633_JID_1911_Energie_anion
 -----------------------------------
 Structure from the checkpoint file:  "JID_1911.chk"
 Charge = -1 Multiplicity = 2

                         Standard orientation:
 ---------------------------------------------------------------------
 Center     Atomic      Atomic             Coordinates (Angstroms)
 Number     Number       Type             X           Y           Z
 ---------------------------------------------------------------------
      1          6           0       -2.331097   -1.884107   -0.150229
      2          6           0       -2.375753   -0.401440   -0.516407
      3          7           0       -1.147671    0.314829   -0.151726
      4          6           0       -1.385312    1.758309   -0.043555
      5          6           0       -0.233891    2.534302    0.592024
      6          6           0       -0.015505   -0.036180   -1.030556
      7          6           0        1.295896   -0.373091   -0.321362
      8          6           0        2.489433   -0.591670   -1.226166
      9          6           0        2.436827    0.610832   -0.318041
     10          6           0        1.180182   -1.299536    0.879068
     11          7           0        0.634280   -0.603377    2.050338
     12          1           0       -1.551593   -2.422593   -0.698827
     13          1           0       -3.289523   -2.361582   -0.383133
     14          1           0       -2.131186   -2.003724    0.919794
     15          1           0       -2.612333   -0.284582   -1.591652
     16          1           0       -3.200770    0.065657    0.032447
     17          1           0       -1.625864    2.197182   -1.033008
     18          1           0       -2.278541    1.885602    0.578839
     19          1           0        0.619765    2.622711   -0.082914
     20          1           0       -0.566944    3.549141    0.837261
     21          1           0        0.113753    2.040106    1.503772
     22          1           0       -0.306402   -0.920541   -1.608902
     23          1           0        0.160399    0.763099   -1.771027
     24          1           0        3.173428   -1.402291   -0.988530
     25          1           0        2.356038   -0.425592   -2.292980
     26          1           0        2.290371    1.580018   -0.785526
     27          1           0        3.071336    0.635552    0.562971
     28          1           0        0.594329   -2.186865    0.573913
     29          1           0        2.181849   -1.665134    1.138102
     30          1           0        0.530866   -1.265228    2.819045
     31          1           0       -0.299920   -0.285617    1.791409
 ---------------------------------------------------------------------

 SCF Done:  E(UB3LYP) =  -464.622659800     A.U. after   30 cycles

 The electronic state is 2-A.
 Alpha  occ. eigenvalues --  -14.20106 -14.17453 -10.09193 -10.08874 -10.08714
 Alpha  occ. eigenvalues --  -10.08460 -10.07903 -10.06841 -10.06634 -10.05188
 Alpha  occ. eigenvalues --  -10.05184  -0.82226  -0.77848  -0.74649  -0.66054
 Alpha  occ. eigenvalues --   -0.63268  -0.58898  -0.56130  -0.50813  -0.50255
 Alpha  occ. eigenvalues --   -0.47938  -0.44203  -0.39250  -0.38962  -0.38069
 Alpha  occ. eigenvalues --   -0.35754  -0.34160  -0.33723  -0.33331  -0.32145
 Alpha  occ. eigenvalues --   -0.30463  -0.28505  -0.28244  -0.26999  -0.26787
 Alpha  occ. eigenvalues --   -0.25561  -0.24918  -0.24146  -0.23409  -0.23269
 Alpha  occ. eigenvalues --   -0.19090  -0.17626  -0.13414  -0.11588   0.04809
 Alpha virt. eigenvalues --    0.06985   0.07102   0.07615   0.09026   0.09232
 Alpha virt. eigenvalues --    0.09462   0.09632   0.10678   0.11453   0.12035
 Alpha virt. eigenvalues --    0.12342   0.12648   0.13311   0.13511   0.13950

  Beta  occ. eigenvalues --  -14.20083 -14.17438 -10.09175 -10.08857 -10.08691
  Beta  occ. eigenvalues --  -10.08442 -10.07900 -10.06825 -10.06621 -10.05175
  Beta  occ. eigenvalues --  -10.05145  -0.82188  -0.77826  -0.74629  -0.66017
  Beta  occ. eigenvalues --   -0.63227  -0.58856  -0.56081  -0.50743  -0.50202
  Beta  occ. eigenvalues --   -0.47865  -0.44158  -0.39218  -0.38929  -0.38028
  Beta  occ. eigenvalues --   -0.35719  -0.34116  -0.33698  -0.33296  -0.32110
  Beta  occ. eigenvalues --   -0.30412  -0.28475  -0.28215  -0.26966  -0.26757
  Beta  occ. eigenvalues --   -0.25507  -0.24878  -0.24111  -0.23383  -0.23238
  Beta  occ. eigenvalues --   -0.19063  -0.17605  -0.13386  -0.11473
  Beta virt. eigenvalues --    0.06968   0.07803   0.07961   0.08241   0.09588
  Beta virt. eigenvalues --    0.09727   0.09922   0.10173   0.11018   0.12018
  Beta virt. eigenvalues --    0.12456   0.12669   0.12975   0.13723   0.13889

 Mulliken charges and spin densities:
               1          2
     1  C    0.794037  -1.281853
     2  C    0.054412  -0.210500
     3  N   -0.078856   0.302112
     4  C    0.230564  -0.338720
     5  C   -0.313215  -0.260065
     6  C    1.066768  -2.222300
     7  C   -2.361396   3.466463
     8  C    1.106696  -1.570564
     9  C    0.259773  -0.590872
    10  C    0.844123  -1.567993
    11  N   -0.538607   0.177756
    12  H   -0.202650   0.326814
    13  H   -0.768701   0.930570
    14  H   -0.094780   0.241037
    15  H   -0.043750   0.157070
    16  H   -0.361621   0.510396
    17  H   -0.048539   0.164823
    18  H   -0.151487   0.294277
    19  H    0.039639   0.084674
    20  H   -0.426239   0.574383
    21  H    0.141163   0.009405
    22  H    0.132720   0.061780
    23  H   -0.058602   0.192582
    24  H   -0.203672   0.347106
    25  H   -0.060315   0.196947
    26  H   -0.055959   0.164030
    27  H    0.033045   0.136355
    28  H   -0.091172   0.220322
    29  H   -0.171983   0.337563
    30  H   -0.005661   0.228962
    31  H    0.334264  -0.082559
 Sum of Mulliken charges =  -1.00000   1.00000

 Dipole moment (field-independent basis, Debye):
    X=              3.0732    Y=              1.6178    Z=             -0.6239  Tot=              3.5286
 Quadrupole moment (field-independent basis, Debye-Ang):
   XX=           -135.1639   YY=           -119.7579   ZZ=           -108.8256
   XY=             -3.7525   XZ=             -0.2069   YZ=             -0.9527

 Summary of Natural Population Analysis:

                                       Natural Population
                Natural  -----------------------------------------------
    Atom  No    Charge         Core      Valence    Rydberg      Total
 -----------------------------------------------------------------------
      C    1   -0.28900      0.99966     2.28374    0.00560     3.28900
      C    2   -0.07866      0.99961     2.06794    0.01112     3.07866
      N    3   -0.29618      0.99971     2.78170    0.01477     3.79618
      C    4   -0.07640      0.99961     2.06667    0.01011     3.07640
      C    5   -0.29417      0.99965     2.28916    0.00536     3.29417
      C    6   -0.07994      0.99955     2.06852    0.01187     3.07994
      C    7   -0.05473      0.99953     2.04084    0.01436     3.05473
      C    8   -0.19531      0.99959     2.18699    0.00873     3.19531
      C    9   -0.19006      0.99958     2.18138    0.00910     3.19006
      C   10   -0.08238      0.99957     2.07071    0.01210     3.08238
      N   11   -0.43003      0.99976     2.91942    0.01084     3.93003
      H   12    0.09597      0.00000     0.40259    0.00144     0.40403
      H   13    0.10152      0.00000     0.39690    0.00158     0.39848
      H   14    0.09945      0.00000     0.39868    0.00187     0.40055
      H   15    0.07912      0.00000     0.41946    0.00142     0.42088
      H   16    0.09626      0.00000     0.40173    0.00201     0.40374
      H   17    0.07707      0.00000     0.42151    0.00142     0.42293
      H   18    0.09444      0.00000     0.40388    0.00168     0.40556
      H   19    0.09582      0.00000     0.40282    0.00136     0.40418
      H   20    0.09716      0.00000     0.40200    0.00084     0.40284
      H   21    0.10878      0.00000     0.38972    0.00151     0.39122
      H   22    0.09853      0.00000     0.39969    0.00179     0.40147
      H   23    0.08965      0.00000     0.40860    0.00175     0.41035
      H   24    0.10172      0.00000     0.39712    0.00116     0.39828
      H   25    0.10017      0.00000     0.39880    0.00103     0.39983
      H   26    0.09939      0.00000     0.39950    0.00111     0.40061
      H   27    0.10541      0.00000     0.39362    0.00097     0.39459
      H   28    0.08166      0.00000     0.41650    0.00184     0.41834
      H   29    0.08916      0.00000     0.40936    0.00148     0.41084
      H   30    0.16988      0.00000     0.32844    0.00168     0.33012
      H   31    0.18572      0.00000     0.31143    0.00285     0.31428
 =======================================================================
   * Total *   -0.00000     10.99583    32.85944    0.14473    44.00000

 Normal termination of Gaussian 16 at Tue Dec  8 22:08:04 2020.
