 Gaussian 16, Revision A.03,

 -----------------------------------------------------------
 # opt freq B3LYP/6-31G(d) empiricaldispersion=gd3bj scf=xqc
 -----------------------------------------------------------

 ------------------------------
 CID_145901201_JID_257_neutraal
 ------------------------------
 Symbolic Z-matrix:
 Charge =  0 Multiplicity = 1

 SCF Done:  E(RB3LYP) =  -489.564693267     A.U. after   14 cycles
 SCF Done:  E(RB3LYP) =  -489.570933239     A.U. after   12 cycles
 SCF Done:  E(RB3LYP) =  -489.571652919     A.U. after   11 cycles
 SCF Done:  E(RB3LYP) =  -489.571709719     A.U. after   11 cycles
 SCF Done:  E(RB3LYP) =  -489.571717012     A.U. after   10 cycles
 SCF Done:  E(RB3LYP) =  -489.571728551     A.U. after    8 cycles
 SCF Done:  E(RB3LYP) =  -489.571731653     A.U. after    9 cycles
 SCF Done:  E(RB3LYP) =  -489.571732411     A.U. after    8 cycles
 SCF Done:  E(RB3LYP) =  -489.571732793     A.U. after    8 cycles
 SCF Done:  E(RB3LYP) =  -489.571733026     A.U. after    8 cycles
 SCF Done:  E(RB3LYP) =  -489.571733100     A.U. after    7 cycles
 Optimization completed.
    -- Stationary point found.
 Normal termination of Gaussian 16 at Tue Dec  8 10:20:58 2020.

 --------------------------------------------------------------------
 #N Geom=AllCheck Guess=TCheck SCRF=Check GenChk RB3LYP/6-31G(d) Freq
 --------------------------------------------------------------------

 Structure from the checkpoint file:  "JID_257.chk"
 ------------------------------
 CID_145901201_JID_257_neutraal
 ------------------------------
 Charge =  0 Multiplicity = 1

 SCF Done:  E(RB3LYP) =  -489.571733100     A.U. after    1 cycles

  Exact polarizability:  95.176   0.151  82.714  -1.114  -0.399  47.728
 Approx polarizability: 132.358  -1.100 136.789  -1.897   1.256  73.204

                      1                      2                      3
                      A                      A                      A
 Frequencies --     89.3972               138.6460               215.5623
 Red. masses --      3.1720                 4.2720                 3.4408
 Frc consts  --      0.0149                 0.0484                 0.0942
 IR Inten    --      0.5812                 0.2232                13.8669

                      4                      5                      6
                      A                      A                      A
 Frequencies --    259.9990               275.0309               355.4781
 Red. masses --      7.0736                 3.2021                 1.9479
 Frc consts  --      0.2817                 0.1427                 0.1450
 IR Inten    --      4.9753                 8.8216                 5.9518

                      7                      8                      9
                      A                      A                      A
 Frequencies --    425.8389               460.0156               488.5378
 Red. masses --      1.6240                 3.5980                 2.7294
 Frc consts  --      0.1735                 0.4486                 0.3838
 IR Inten    --     69.5410                31.1264                 3.7355

                     10                     11                     12
                      A                      A                      A
 Frequencies --    583.8306               625.0885               656.4298
 Red. masses --      4.7949                 3.1393                 4.0153
 Frc consts  --      0.9629                 0.7227                 1.0194
 IR Inten    --      7.3913                 1.7615                21.9229

                     13                     14                     15
                      A                      A                      A
 Frequencies --    711.7713               716.4244               802.2200
 Red. masses --      4.7125                 7.9163                 5.8654
 Frc consts  --      1.4066                 2.3940                 2.2240
 IR Inten    --     10.5151                 4.6416                 8.2149

                     16                     17                     18
                      A                      A                      A
 Frequencies --    849.0838               883.1275               915.2770
 Red. masses --      1.7324                 2.1241                 1.5832
 Frc consts  --      0.7359                 0.9760                 0.7814
 IR Inten    --     13.3497                 1.4144                33.2691

                     19                     20                     21
                      A                      A                      A
 Frequencies --    974.8663              1004.1827              1077.3247
 Red. masses --      2.5364                 2.0489                 4.4010
 Frc consts  --      1.4202                 1.2173                 3.0095
 IR Inten    --     36.4212                 5.2601                19.0175

                     22                     23                     24
                      A                      A                      A
 Frequencies --   1090.2740              1117.8790              1140.2647
 Red. masses --      2.2914                 1.8487                 2.0742
 Frc consts  --      1.6048                 1.3611                 1.5890
 IR Inten    --      8.7320                 4.1910                10.9227

                     25                     26                     27
                      A                      A                      A
 Frequencies --   1216.7326              1222.1967              1248.5576
 Red. masses --      2.6147                 1.7329                 1.6453
 Frc consts  --      2.2807                 1.5251                 1.5112
 IR Inten    --     18.9193                 7.3951                 7.8857

                     28                     29                     30
                      A                      A                      A
 Frequencies --   1298.2961              1317.0446              1368.6986
 Red. masses --      1.5004                 2.5384                 1.5314
 Frc consts  --      1.4901                 2.5943                 1.6902
 IR Inten    --      4.6472                43.1893                 3.5553

                     31                     32                     33
                      A                      A                      A
 Frequencies --   1385.1706              1404.1313              1412.1970
 Red. masses --      1.3927                 1.6766                 1.4657
 Frc consts  --      1.5744                 1.9476                 1.7222
 IR Inten    --      1.2368                 1.0086                14.1830

                     34                     35                     36
                      A                      A                      A
 Frequencies --   1458.4414              1505.4397              1515.7658
 Red. masses --      2.0889                 1.0838                 1.0985
 Frc consts  --      2.6178                 1.4472                 1.4869
 IR Inten    --      4.4083                 7.8058                 7.4148

                     37                     38                     39
                      A                      A                      A
 Frequencies --   1525.7261              1562.5295              1639.0153
 Red. masses --      1.0996                 2.1817                 9.1704
 Frc consts  --      1.5081                 3.1384                14.5145
 IR Inten    --      2.1891                75.4816                34.7273

                     40                     41                     42
                      A                      A                      A
 Frequencies --   1841.1418              2980.8343              3048.4485
 Red. masses --     10.6863                 1.0724                 1.0701
 Frc consts  --     21.3428                 5.6140                 5.8591
 IR Inten    --    566.6957                59.8335                14.7988

                     43                     44                     45
                      A                      A                      A
 Frequencies --   3072.3722              3113.0047              3119.6505
 Red. masses --      1.0612                 1.0940                 1.0912
 Frc consts  --      5.9020                 6.2461                 6.2572
 IR Inten    --     20.0939                13.2116                27.2321

                     46                     47                     48
                      A                      A                      A
 Frequencies --   3122.2413              3475.8294              3694.3501
 Red. masses --      1.1054                 1.0754                 1.0815
 Frc consts  --      6.3490                 7.6550                 8.6970
 IR Inten    --     23.1128                 9.6106                86.6762

 - Thermochemistry -
 -------------------
 Temperature   298.150 Kelvin.  Pressure   1.00000 Atm.
 Atom     1 has atomic number  6 and mass  12.00000

 Molecular mass:   140.06981 amu.
 Principal axes and moments of inertia in atomic units:
                           1         2         3
     Eigenvalues --   713.162321394.269582043.06419
           X            0.99985   0.01728  -0.00165
           Y           -0.01729   0.99981  -0.00866
           Z            0.00150   0.00868   0.99996
 This molecule is an asymmetric top.
 Rotational symmetry number  1.
 Warning -- assumption of classical behavior for rotation
           may cause significant error
 Rotational temperatures (Kelvin)      0.12145     0.06212     0.04239
 Rotational constants (GHZ):           2.53062     1.29440     0.88335
 Zero-point vibrational energy     385223.7 (Joules/Mol)
                                   92.07066 (Kcal/Mol)
 Warning -- explicit consideration of  10 degrees of freedom as
           vibrations may cause significant error
 Vibrational temperatures:    128.62   199.48   310.15   374.08   395.71
          (Kelvin)            511.45   612.69   661.86   702.90   840.00
                              899.36   944.46  1024.08  1030.77  1154.22
                             1221.64  1270.62  1316.88  1402.62  1444.79
                             1550.03  1568.66  1608.38  1640.59  1750.61
                             1758.47  1796.40  1867.96  1894.93  1969.25
                             1992.95  2020.23  2031.84  2098.37  2165.99
                             2180.85  2195.18  2248.13  2358.18  2648.99
                             4288.76  4386.04  4420.46  4478.92  4488.48
                             4492.21  5000.94  5315.35

 Zero-point correction=                           0.146724 (Hartree/Particle)
 Thermal correction to Energy=                    0.154777
 Thermal correction to Enthalpy=                  0.155721
 Thermal correction to Gibbs Free Energy=         0.113799
 Sum of electronic and zero-point Energies=           -489.425009
 Sum of electronic and thermal Energies=              -489.416956
 Sum of electronic and thermal Enthalpies=            -489.416012
 Sum of electronic and thermal Free Energies=         -489.457934

                     E (Thermal)             CV                S
                      KCal/Mol        Cal/Mol-Kelvin    Cal/Mol-Kelvin
 Total                   97.124             31.087             88.234
 Electronic               0.000              0.000              0.000
 Translational            0.889              2.981             40.722
 Rotational               0.889              2.981             29.098
 Vibrational             95.347             25.125             18.414
 Vibration     1          0.602              1.957              3.673
 Vibration     2          0.614              1.915              2.822
 Vibration     3          0.645              1.817              1.996
 Vibration     4          0.668              1.746              1.662
 Vibration     5          0.677              1.720              1.564
 Vibration     6          0.731              1.564              1.142
 Vibration     7          0.788              1.414              0.872
 Vibration     8          0.818              1.339              0.766
 Vibration     9          0.844              1.275              0.687
 Vibration    10          0.941              1.066              0.478

                           ! Non-Optimized Parameters !
 Normal termination of Gaussian 16 at Tue Dec  8 10:24:05 2020.

 ----------------------------------------------------------------------
 # B3LYP/6-311++G(d,p) empiricaldispersion=gd3bj scf=xqc pop=npa geom=c
 heck
 ----------------------------------------------------------------------

 --------------------------------------
 CID_145901201_JID_257_Energie_neutraal
 --------------------------------------
 Structure from the checkpoint file:  "JID_257.chk"
 Charge =  0 Multiplicity = 1

 SCF Done:  E(RB3LYP) =  -489.715168323     A.U. after   14 cycles
 Normal termination of Gaussian 16 at Tue Dec  8 10:25:04 2020.

 ----------------------------------------------------------------------
 # B3LYP/6-311++G(d,p) empiricaldispersion=gd3bj scf=xqc pop=npa geom=c
 heck
 ----------------------------------------------------------------------

 ------------------------------------
 CID_145901201_JID_257_Energie_kation
 ------------------------------------
 Structure from the checkpoint file:  "JID_257.chk"
 Charge =  1 Multiplicity = 2

 SCF Done:  E(UB3LYP) =  -489.416925519     A.U. after   19 cycles
 Normal termination of Gaussian 16 at Tue Dec  8 10:27:24 2020.
 Gaussian 16:  ES64L-G16RevA.03 25-Dec-2016

 ----------------------------------------------------------------------
 # B3LYP/6-311++G(d,p) empiricaldispersion=gd3bj scf=xqc pop=npa geom=c
 heck
 ----------------------------------------------------------------------

 -----------------------------------
 CID_145901201_JID_257_Energie_anion
 -----------------------------------
 Structure from the checkpoint file:  "JID_257.chk"
 Charge = -1 Multiplicity = 2

                         Standard orientation:
 ---------------------------------------------------------------------
 Center     Atomic      Atomic             Coordinates (Angstroms)
 Number     Number       Type             X           Y           Z
 ---------------------------------------------------------------------
      1          6           0       -2.433912    0.111586   -0.309565
      2          6           0       -1.574148    1.329427    0.084967
      3          6           0       -0.121069    0.975073    0.014955
      4          7           0        0.908539    1.778063    0.031679
      5          7           0        1.996785    0.922452    0.018398
      6          6           0        1.668473   -0.415279   -0.016608
      7          8           0        2.356683   -1.426013   -0.035386
      8          7           0        0.274781   -0.338313    0.005368
      9          7           0       -0.565033   -1.452388   -0.236534
     10          6           0       -1.890545   -1.170860    0.331468
     11          1           0       -2.426241   -0.019181   -1.397428
     12          1           0       -3.470689    0.273976    0.000304
     13          1           0       -1.777599    2.191148   -0.557467
     14          1           0       -1.814585    1.635286    1.111676
     15          1           0        2.932025    1.295950    0.009624
     16          1           0       -0.106301   -2.232319    0.236285
     17          1           0       -1.864383   -1.057191    1.429112
     18          1           0       -2.523998   -2.027943    0.087307
 ---------------------------------------------------------------------

 SCF Done:  E(UB3LYP) =  -489.702880998     A.U. after   30 cycles

 The electronic state is 2-A.
 Alpha  occ. eigenvalues --  -18.99035 -14.28975 -14.27818 -14.25245 -14.23628
 Alpha  occ. eigenvalues --  -10.19898 -10.14378 -10.09552 -10.08195 -10.06777
 Alpha  occ. eigenvalues --   -0.99644  -0.91892  -0.89441  -0.75493  -0.73619
 Alpha  occ. eigenvalues --   -0.68294  -0.59646  -0.54845  -0.53829  -0.46460
 Alpha  occ. eigenvalues --   -0.43807  -0.42126  -0.39976  -0.37376  -0.35127
 Alpha  occ. eigenvalues --   -0.33664  -0.33091  -0.32749  -0.27608  -0.26052
 Alpha  occ. eigenvalues --   -0.25311  -0.24865  -0.23273  -0.22602  -0.17414
 Alpha  occ. eigenvalues --   -0.15163  -0.11350   0.04947
 Alpha virt. eigenvalues --    0.07288   0.08362   0.08900   0.09980   0.10736
 Alpha virt. eigenvalues --    0.11756   0.12062   0.12778   0.14724   0.15173
 Alpha virt. eigenvalues --    0.15320   0.15420   0.17477   0.18347   0.19173

  Beta  occ. eigenvalues --  -18.99030 -14.28969 -14.27809 -14.25229 -14.23601
  Beta  occ. eigenvalues --  -10.19897 -10.14365 -10.09494 -10.08162 -10.06731
  Beta  occ. eigenvalues --   -0.99622  -0.91878  -0.89414  -0.75451  -0.73575
  Beta  occ. eigenvalues --   -0.68232  -0.59564  -0.54793  -0.53768  -0.46355
  Beta  occ. eigenvalues --   -0.43776  -0.42066  -0.39932  -0.37313  -0.35062
  Beta  occ. eigenvalues --   -0.33616  -0.33039  -0.32692  -0.27543  -0.25982
  Beta  occ. eigenvalues --   -0.25240  -0.24794  -0.23209  -0.22549  -0.17393
  Beta  occ. eigenvalues --   -0.15114  -0.11297
  Beta virt. eigenvalues --    0.07354   0.08348   0.09288   0.09965   0.10912
  Beta virt. eigenvalues --    0.11259   0.12546   0.12710   0.13337   0.14795
  Beta virt. eigenvalues --    0.15292   0.15475   0.15635   0.17470   0.18494

 Mulliken charges and spin densities:
               1          2
     1  C   -0.223336  -0.118188
     2  C    0.552837  -0.749168
     3  C    0.359374  -0.468181
     4  N   -0.154748   0.007040
     5  N   -0.140451  -0.020697
     6  C    0.342135   0.007331
     7  O   -0.463651   0.009673
     8  N   -0.053758  -0.062208
     9  N   -0.480456   0.344416
    10  C    1.939699  -2.378988
    11  H    0.140368   0.016048
    12  H   -1.015856   1.215151
    13  H   -0.251397   0.427153
    14  H   -0.408214   0.612376
    15  H    0.221000   0.138294
    16  H    0.109073   0.169377
    17  H   -0.441301   0.619983
    18  H   -1.031320   1.230586
 Sum of Mulliken charges =  -1.00000   1.00000

 Dipole moment (field-independent basis, Debye):
    X=              7.6456    Y=              2.4807    Z=             -2.3344  Tot=              8.3701
 Quadrupole moment (field-independent basis, Debye-Ang):
   XX=           -122.6113   YY=            -97.1360   ZZ=            -84.9193
   XY=              1.1761   XZ=              8.9248   YZ=             -1.6740

 Summary of Natural Population Analysis:

                                       Natural Population
                Natural  -----------------------------------------------
    Atom  No    Charge         Core      Valence    Rydberg      Total
 -----------------------------------------------------------------------
      C    1   -0.19401      0.99963     2.18459    0.00979     3.19401
      C    2   -0.21226      0.99960     2.20308    0.00959     3.21226
      C    3    0.20274      0.99962     1.78101    0.01664     2.79726
      N    4   -0.16702      0.99967     2.65481    0.01254     3.66702
      N    5   -0.22048      0.99968     2.70997    0.01083     3.72048
      C    6    0.37683      0.99967     1.60057    0.02293     2.62317
      O    7   -0.34103      0.99988     3.33544    0.00571     4.34103
      N    8   -0.15209      0.99955     2.64224    0.01030     3.65209
      N    9   -0.22503      0.99974     2.71189    0.01341     3.72503
      C   10   -0.09394      0.99963     2.08233    0.01198     3.09394
      H   11    0.09843      0.00000     0.39983    0.00174     0.40157
      H   12    0.11455      0.00000     0.37723    0.00822     0.38545
      H   13    0.11266      0.00000     0.38597    0.00136     0.38734
      H   14    0.11626      0.00000     0.38069    0.00306     0.38374
      H   15    0.19940      0.00000     0.29884    0.00177     0.30060
      H   16    0.18680      0.00000     0.31018    0.00302     0.31320
      H   17    0.09003      0.00000     0.40449    0.00548     0.40997
      H   18    0.10818      0.00000     0.38734    0.00448     0.39182
 =======================================================================
   * Total *   -0.00000      9.99668    26.85049    0.15283    37.00000

 Normal termination of Gaussian 16 at Tue Dec  8 10:31:02 2020.
