 Gaussian 16, Revision A.03,

 -----------------------------------------------------------
 # opt freq B3LYP/6-31G(d) empiricaldispersion=gd3bj scf=xqc
 -----------------------------------------------------------

 -------------------------------
 CID_150542390_JID_5540_neutraal
 -------------------------------
 Symbolic Z-matrix:
 Charge =  0 Multiplicity = 1

 SCF Done:  E(RB3LYP) =  -706.008804120     A.U. after   16 cycles
 SCF Done:  E(RB3LYP) =  -706.017640982     A.U. after   15 cycles
 SCF Done:  E(RB3LYP) =  -706.018235511     A.U. after   15 cycles
 SCF Done:  E(RB3LYP) =  -706.021438956     A.U. after   13 cycles
 SCF Done:  E(RB3LYP) =  -706.022193783     A.U. after   15 cycles
 SCF Done:  E(RB3LYP) =  -706.021764337     A.U. after   13 cycles
 SCF Done:  E(RB3LYP) =  -706.022853133     A.U. after   12 cycles
 SCF Done:  E(RB3LYP) =  -706.022951188     A.U. after   12 cycles
 SCF Done:  E(RB3LYP) =  -706.023303020     A.U. after   12 cycles
 SCF Done:  E(RB3LYP) =  -706.023337048     A.U. after   11 cycles
 SCF Done:  E(RB3LYP) =  -706.023346527     A.U. after   10 cycles
 SCF Done:  E(RB3LYP) =  -706.023347665     A.U. after    9 cycles
 SCF Done:  E(RB3LYP) =  -706.023348046     A.U. after    8 cycles
 SCF Done:  E(RB3LYP) =  -706.023348045     A.U. after    7 cycles
 Optimization completed.
    -- Stationary point found.
 Normal termination of Gaussian 16 at Thu Dec 10 16:34:14 2020.

 --------------------------------------------------------------------
 #N Geom=AllCheck Guess=TCheck SCRF=Check GenChk RB3LYP/6-31G(d) Freq
 --------------------------------------------------------------------

 Structure from the checkpoint file:  "JID_5540.chk"
 -------------------------------
 CID_150542390_JID_5540_neutraal
 -------------------------------
 Charge =  0 Multiplicity = 1

 SCF Done:  E(RB3LYP) =  -706.023348045     A.U. after    1 cycles

  Exact polarizability: 165.257   9.410 118.968  -8.705  -0.163 101.884
 Approx polarizability: 234.147  16.573 154.602 -30.212   0.946 180.694

                      1                      2                      3
                      A                      A                      A
 Frequencies --     30.7893                43.1888                77.9680
 Red. masses --      3.7438                 5.4972                 3.2219
 Frc consts  --      0.0021                 0.0060                 0.0115
 IR Inten    --      0.0117                 0.3454                 0.2637

                      4                      5                      6
                      A                      A                      A
 Frequencies --     92.6183               117.8042               122.2417
 Red. masses --      7.7702                 5.8951                 2.8438
 Frc consts  --      0.0393                 0.0482                 0.0250
 IR Inten    --      0.3865                 1.1753                 0.4072

                      7                      8                      9
                      A                      A                      A
 Frequencies --    142.0147               172.5502               204.7174
 Red. masses --      6.2687                 3.2611                 3.9186
 Frc consts  --      0.0745                 0.0572                 0.0968
 IR Inten    --      0.4153                 0.2045                 2.2601

                     10                     11                     12
                      A                      A                      A
 Frequencies --    250.7626               269.1255               297.4131
 Red. masses --      4.0234                 1.8069                 1.4172
 Frc consts  --      0.1491                 0.0771                 0.0739
 IR Inten    --      4.7003                 1.0593                 0.3486

                     13                     14                     15
                      A                      A                      A
 Frequencies --    318.7254               343.1754               378.0911
 Red. masses --      2.4799                 2.8177                 2.6349
 Frc consts  --      0.1484                 0.1955                 0.2219
 IR Inten    --      0.4317                 1.0858                 1.8134

                     16                     17                     18
                      A                      A                      A
 Frequencies --    397.4587               437.0251               466.2039
 Red. masses --      3.6483                 2.1194                 3.3359
 Frc consts  --      0.3396                 0.2385                 0.4272
 IR Inten    --      2.9562                 0.3018                 2.3443

                     19                     20                     21
                      A                      A                      A
 Frequencies --    498.9750               514.9017               577.1605
 Red. masses --      2.1092                 8.0609                13.9750
 Frc consts  --      0.3094                 1.2592                 2.7428
 IR Inten    --      0.2196                 0.1724                 7.5654

                     22                     23                     24
                      A                      A                      A
 Frequencies --    616.7958               649.8995               746.8707
 Red. masses --      2.2009                 5.7322                11.6681
 Frc consts  --      0.4933                 1.4265                 3.8348
 IR Inten    --      2.7828                20.4404                35.0887

                     25                     26                     27
                      A                      A                      A
 Frequencies --    755.5172               778.9532               802.6334
 Red. masses --      4.1789                 1.9119                 1.4839
 Frc consts  --      1.4054                 0.6835                 0.5632
 IR Inten    --      8.1141                 2.5813                 0.0295

                     28                     29                     30
                      A                      A                      A
 Frequencies --    819.3462               847.3237               874.4699
 Red. masses --      2.8304                 1.5208                 2.4510
 Frc consts  --      1.1195                 0.6433                 1.1043
 IR Inten    --      0.3691                 1.9230                 1.9159

                     31                     32                     33
                      A                      A                      A
 Frequencies --    885.1995               897.6201               940.6571
 Red. masses --      2.1347                 2.2389                 2.5082
 Frc consts  --      0.9855                 1.0629                 1.3076
 IR Inten    --      2.6862                20.3158                34.3377

                     34                     35                     36
                      A                      A                      A
 Frequencies --    951.3446               978.8576              1002.8649
 Red. masses --      1.5624                 1.8727                 6.9658
 Frc consts  --      0.8331                 1.0572                 4.1277
 IR Inten    --      3.5933                 8.6804                22.6885

                     37                     38                     39
                      A                      A                      A
 Frequencies --   1034.1226              1048.9290              1056.0057
 Red. masses --      2.1709                 1.7875                 1.8833
 Frc consts  --      1.3678                 1.1588                 1.2374
 IR Inten    --      1.7119                 0.4850                 1.0173

                     40                     41                     42
                      A                      A                      A
 Frequencies --   1075.6582              1106.3497              1111.0472
 Red. masses --      2.2549                 1.8396                 1.5076
 Frc consts  --      1.5372                 1.3266                 1.0965
 IR Inten    --      3.2589                 0.3793                 7.8772

                     43                     44                     45
                      A                      A                      A
 Frequencies --   1147.1839              1159.6539              1177.4942
 Red. masses --      1.0661                 2.2178                 1.5666
 Frc consts  --      0.8266                 1.7572                 1.2798
 IR Inten    --      0.5324                43.1545                 2.5014

                     46                     47                     48
                      A                      A                      A
 Frequencies --   1194.6004              1257.3038              1275.1904
 Red. masses --      2.3371                 5.1877                 1.3684
 Frc consts  --      1.9651                 4.8318                 1.3110
 IR Inten    --      0.3715               735.8999                22.1559

                     49                     50                     51
                      A                      A                      A
 Frequencies --   1303.2979              1306.6929              1315.2304
 Red. masses --      1.2736                 1.2722                 1.3407
 Frc consts  --      1.2746                 1.2799                 1.3664
 IR Inten    --      0.6793                10.0667                41.3243

                     52                     53                     54
                      A                      A                      A
 Frequencies --   1325.5106              1340.2538              1360.9130
 Red. masses --      6.8455                 1.4152                 1.2465
 Frc consts  --      7.0863                 1.4978                 1.3602
 IR Inten    --    561.7708                 4.0535                 9.0809

                     55                     56                     57
                      A                      A                      A
 Frequencies --   1369.9471              1378.0807              1398.9265
 Red. masses --      1.3123                 1.4336                 1.4281
 Frc consts  --      1.4511                 1.6040                 1.6466
 IR Inten    --      0.5396                24.7733                 0.4261

                     58                     59                     60
                      A                      A                      A
 Frequencies --   1405.5459              1406.1299              1410.0776
 Red. masses --      1.4253                 1.4401                 1.4212
 Frc consts  --      1.6590                 1.6776                 1.6649
 IR Inten    --      3.5172                 4.3791                 0.3819

                     61                     62                     63
                      A                      A                      A
 Frequencies --   1428.8391              1439.9884              1445.7100
 Red. masses --      1.4411                 1.2500                 1.2790
 Frc consts  --      1.7335                 1.5272                 1.5750
 IR Inten    --     19.3416                16.0022                12.6318

                     64                     65                     66
                      A                      A                      A
 Frequencies --   1515.4605              1518.3267              1524.1384
 Red. masses --      1.0811                 1.0848                 1.0871
 Frc consts  --      1.4628                 1.4735                 1.4879
 IR Inten    --      0.6941                 2.6723                 3.3173

                     67                     68                     69
                      A                      A                      A
 Frequencies --   1529.5366              1532.8076              1534.4288
 Red. masses --      1.0631                 1.0862                 1.0551
 Frc consts  --      1.4654                 1.5036                 1.4636
 IR Inten    --      9.2583                 6.5816                 3.9718

                     70                     71                     72
                      A                      A                      A
 Frequencies --   1543.0501              1546.4460              1803.0950
 Red. masses --      1.0882                 1.0751                12.2530
 Frc consts  --      1.5266                 1.5149                23.4710
 IR Inten    --      9.5593                 5.6224               188.5126

                     73                     74                     75
                      A                      A                      A
 Frequencies --   2306.0045              3022.9334              3031.1458
 Red. masses --     13.9923                 1.0683                 1.0668
 Frc consts  --     43.8389                 5.7519                 5.7749
 IR Inten    --    523.8489                17.7220                24.9302

                     76                     77                     78
                      A                      A                      A
 Frequencies --   3033.4395              3041.9452              3044.3760
 Red. masses --      1.0731                 1.0698                 1.0617
 Frc consts  --      5.8180                 5.8327                 5.7977
 IR Inten    --      5.0343                29.2775                23.0639

                     79                     80                     81
                      A                      A                      A
 Frequencies --   3051.4812              3055.3948              3067.0563
 Red. masses --      1.0382                 1.0688                 1.0850
 Frc consts  --      5.6956                 5.8786                 6.0136
 IR Inten    --     23.1319                21.9205                29.3976

                     82                     83                     84
                      A                      A                      A
 Frequencies --   3073.4869              3075.7465              3085.2211
 Red. masses --      1.0921                 1.1005                 1.1034
 Frc consts  --      6.0783                 6.1338                 6.1878
 IR Inten    --     61.5782                49.5158                69.2649

                     85                     86                     87
                      A                      A                      A
 Frequencies --   3105.6874              3112.1507              3117.0966
 Red. masses --      1.0878                 1.0970                 1.0945
 Frc consts  --      6.1817                 6.2599                 6.2655
 IR Inten    --     23.0894                 6.3854                59.0932

                     88                     89                     90
                      A                      A                      A
 Frequencies --   3124.1688              3129.6559              3139.4636
 Red. masses --      1.0892                 1.0945                 1.0993
 Frc consts  --      6.2639                 6.3163                 6.3838
 IR Inten    --     39.1394                18.5786                33.4129

 - Thermochemistry -
 -------------------
 Temperature   298.150 Kelvin.  Pressure   1.00000 Atm.
 Atom     1 has atomic number  6 and mass  12.00000

 Molecular mass:   211.13208 amu.
 Principal axes and moments of inertia in atomic units:
                           1         2         3
     Eigenvalues --  1938.674584747.855406034.27078
           X            0.99996  -0.00837  -0.00070
           Y            0.00837   0.99996  -0.00317
           Z            0.00073   0.00317   0.99999
 This molecule is an asymmetric top.
 Rotational symmetry number  1.
 Warning -- assumption of classical behavior for rotation
           may cause significant error
 Rotational temperatures (Kelvin)      0.04468     0.01824     0.01435
 Rotational constants (GHZ):           0.93091     0.38012     0.29908
 Zero-point vibrational energy     725198.3 (Joules/Mol)
                                  173.32656 (Kcal/Mol)
 Warning -- explicit consideration of  22 degrees of freedom as
           vibrations may cause significant error
 Vibrational temperatures:     44.30    62.14   112.18   133.26   169.49
          (Kelvin)            175.88   204.33   248.26   294.54   360.79
                              387.21   427.91   458.57   493.75   543.99
                              571.85   628.78   670.76   717.91   740.83
                              830.41   887.43   935.06  1074.58  1087.02
                             1120.74  1154.81  1178.86  1219.11  1258.17
                             1273.60  1291.48  1353.40  1368.77  1408.36
                             1442.90  1487.87  1509.17  1519.36  1547.63
                             1591.79  1598.55  1650.54  1668.48  1694.15
                             1718.76  1808.98  1834.71  1875.16  1880.04
                             1892.32  1907.11  1928.33  1958.05  1971.05
                             1982.75  2012.74  2022.27  2023.11  2028.79
                             2055.78  2071.82  2080.05  2180.41  2184.53
                             2192.90  2200.66  2205.37  2207.70  2220.10
                             2224.99  2594.25  3317.83  4349.33  4361.14
                             4364.44  4376.68  4380.18  4390.40  4396.03
                             4412.81  4422.06  4425.31  4438.95  4468.39
                             4477.69  4484.81  4494.98  4502.88  4516.99

 Zero-point correction=                           0.276213 (Hartree/Particle)
 Thermal correction to Energy=                    0.290965
 Thermal correction to Enthalpy=                  0.291910
 Thermal correction to Gibbs Free Energy=         0.233512
 Sum of electronic and zero-point Energies=           -705.747135
 Sum of electronic and thermal Energies=              -705.732383
 Sum of electronic and thermal Enthalpies=            -705.731438
 Sum of electronic and thermal Free Energies=         -705.789836

                     E (Thermal)             CV                S
                      KCal/Mol        Cal/Mol-Kelvin    Cal/Mol-Kelvin
 Total                  182.584             55.502            122.908
 Electronic               0.000              0.000              0.000
 Translational            0.889              2.981             41.946
 Rotational               0.889              2.981             32.385
 Vibrational            180.806             49.541             48.577
 Vibration     1          0.594              1.984              5.778
 Vibration     2          0.595              1.980              5.107
 Vibration     3          0.599              1.964              3.941
 Vibration     4          0.602              1.954              3.604
 Vibration     5          0.608              1.935              3.136
 Vibration     6          0.610              1.931              3.065
 Vibration     7          0.615              1.911              2.777
 Vibration     8          0.626              1.876              2.408
 Vibration     9          0.640              1.833              2.090
 Vibration    10          0.663              1.761              1.725
 Vibration    11          0.674              1.730              1.602
 Vibration    12          0.691              1.679              1.431
 Vibration    13          0.705              1.638              1.317
 Vibration    14          0.722              1.589              1.197
 Vibration    15          0.748              1.517              1.047
 Vibration    16          0.764              1.476              0.972
 Vibration    17          0.797              1.389              0.836
 Vibration    18          0.824              1.325              0.748
 Vibration    19          0.854              1.252              0.661
 Vibration    20          0.870              1.217              0.622
 Vibration    21          0.934              1.081              0.491
 Vibration    22          0.976              0.996              0.422

 Optimization completed.
    -- Stationary point found.
 Normal termination of Gaussian 16 at Thu Dec 10 16:46:11 2020.

 ----------------------------------------------------------------------
 # B3LYP/6-311++G(d,p) empiricaldispersion=gd3bj scf=xqc pop=npa geom=c
 heck
 ----------------------------------------------------------------------

 ---------------------------------------
 CID_150542390_JID_5540_Energie_neutraal
 ---------------------------------------
 Structure from the checkpoint file:  "JID_5540.chk"
 Charge =  0 Multiplicity = 1

 SCF Done:  E(RB3LYP) =  -706.220669212     A.U. after   16 cycles
 Normal termination of Gaussian 16 at Thu Dec 10 16:53:17 2020.

 ----------------------------------------------------------------------
 # B3LYP/6-311++G(d,p) empiricaldispersion=gd3bj scf=xqc pop=npa geom=c
 heck
 ----------------------------------------------------------------------

 -------------------------------------
 CID_150542390_JID_5540_Energie_kation
 -------------------------------------
 Structure from the checkpoint file:  "JID_5540.chk"
 Charge =  1 Multiplicity = 2

 SCF Done:  E(UB3LYP) =  -705.862266567     A.U. after   33 cycles
 SCF Done:  E(UB3LYP) =  -705.864938740     a.u. after   12 cycles
 Normal termination of Gaussian 16 at Thu Dec 10 19:34:03 2020.
 Gaussian 16:  ES64L-G16RevA.03 25-Dec-2016

 ----------------------------------------------------------------------
 # B3LYP/6-311++G(d,p) empiricaldispersion=gd3bj scf=xqc pop=npa geom=c
 heck
 ----------------------------------------------------------------------

 ------------------------------------
 CID_150542390_JID_5540_Energie_anion
 ------------------------------------
 Structure from the checkpoint file:  "JID_5540.chk"
 Charge = -1 Multiplicity = 2

                         Standard orientation:
 ---------------------------------------------------------------------
 Center     Atomic      Atomic             Coordinates (Angstroms)
 Number     Number       Type             X           Y           Z
 ---------------------------------------------------------------------
      1          6           0        1.412693    3.236312   -0.094995
      2          6           0        0.177194    2.343651   -0.242060
      3          6           0        0.472166    0.850538   -0.440039
      4          6           0        1.134226    0.122993    0.756936
      5          6           0        0.767799   -1.372177    0.875889
      6          6           0        1.335741   -2.223775   -0.266080
      7          6           0        2.862855   -2.098081   -0.332659
      8          6           0        3.293024   -0.629842   -0.438553
      9          6           0        2.678701    0.229526    0.678229
     10          8           0       -0.756380    0.190681   -0.903502
     11          6           0       -1.808909    0.151468   -0.093095
     12          8           0       -1.898379    0.571109    1.040502
     13          7           0       -2.853627   -0.504806   -0.808846
     14          7           0       -3.908165   -0.622475   -0.154787
     15          7           0       -4.917463   -0.791200    0.330862
     16          1           0        1.924974    3.073731    0.857726
     17          1           0        1.115498    4.289709   -0.129250
     18          1           0        2.135382    3.068981   -0.902685
     19          1           0       -0.473003    2.464773    0.628130
     20          1           0       -0.394979    2.669738   -1.119598
     21          1           0        1.099371    0.733264   -1.326583
     22          1           0        0.794134    0.622807    1.670883
     23          1           0        1.189860   -1.730059    1.825573
     24          1           0       -0.312533   -1.507637    0.962850
     25          1           0        0.891748   -1.905983   -1.218593
     26          1           0        1.048137   -3.272648   -0.123677
     27          1           0        3.261939   -2.673243   -1.177158
     28          1           0        3.296980   -2.534060    0.579037
     29          1           0        2.996784   -0.238369   -1.421757
     30          1           0        4.386207   -0.548162   -0.398457
     31          1           0        2.999797    1.267966    0.562372
     32          1           0        3.079613   -0.109421    1.643142
 ---------------------------------------------------------------------

 SCF Done:  E(UB3LYP) =  -706.213041716     A.U. after   33 cycles
 SCF Done:  E(UB3LYP) =  -706.213041716     a.u. after    1 cycles

 The electronic state is 2-A.
 Alpha  occ. eigenvalues --  -19.05315 -18.98990 -14.35514 -14.26988 -14.25005
 Alpha  occ. eigenvalues --  -10.20709 -10.13153 -10.07394 -10.07025 -10.06810
 Alpha  occ. eigenvalues --  -10.06369 -10.06237 -10.06198 -10.06113 -10.06080
 Alpha  occ. eigenvalues --   -1.03518  -0.99762  -0.91468  -0.86263  -0.73916
 Alpha  occ. eigenvalues --   -0.69676  -0.64694  -0.63957  -0.61825  -0.55355
 Alpha  occ. eigenvalues --   -0.51336  -0.50808  -0.50000  -0.45439  -0.41056
 Alpha  occ. eigenvalues --   -0.40666  -0.39740  -0.38788  -0.37048  -0.36473
 Alpha  occ. eigenvalues --   -0.35728  -0.34463  -0.34163  -0.33094  -0.32422
 Alpha  occ. eigenvalues --   -0.31456  -0.30316  -0.28033  -0.27590  -0.27375
 Alpha  occ. eigenvalues --   -0.27076  -0.25600  -0.25260  -0.23956  -0.23859
 Alpha  occ. eigenvalues --   -0.22833  -0.21437  -0.19997  -0.19761  -0.19115
 Alpha  occ. eigenvalues --   -0.16707  -0.16362   0.04608
 Alpha virt. eigenvalues --    0.05974   0.06930   0.07469   0.07886   0.08244
 Alpha virt. eigenvalues --    0.09584   0.09907   0.10256   0.10898   0.11489
 Alpha virt. eigenvalues --    0.12262   0.12656   0.12860   0.13552   0.13704

  Beta  occ. eigenvalues --  -19.05253 -18.98862 -14.35134 -14.26669 -14.25096
  Beta  occ. eigenvalues --  -10.20524 -10.13150 -10.07391 -10.07017 -10.06785
  Beta  occ. eigenvalues --  -10.06353 -10.06215 -10.06181 -10.06109 -10.06076
  Beta  occ. eigenvalues --   -1.02990  -0.99501  -0.91266  -0.86075  -0.73888
  Beta  occ. eigenvalues --   -0.69635  -0.64657  -0.63931  -0.61640  -0.55146
  Beta  occ. eigenvalues --   -0.51287  -0.50774  -0.49913  -0.45369  -0.40571
  Beta  occ. eigenvalues --   -0.39752  -0.39536  -0.38582  -0.36847  -0.36003
  Beta  occ. eigenvalues --   -0.35644  -0.34186  -0.33730  -0.33057  -0.32186
  Beta  occ. eigenvalues --   -0.31194  -0.30218  -0.27995  -0.27512  -0.27270
  Beta  occ. eigenvalues --   -0.27042  -0.25540  -0.25141  -0.23919  -0.23797
  Beta  occ. eigenvalues --   -0.22772  -0.21317  -0.19962  -0.19724  -0.18788
  Beta  occ. eigenvalues --   -0.16306  -0.15940
  Beta virt. eigenvalues --    0.06731   0.07386   0.07820   0.08255   0.08748
  Beta virt. eigenvalues --    0.09401   0.09925   0.10127   0.10427   0.11214
  Beta virt. eigenvalues --    0.11594   0.12432   0.12780   0.12963   0.13798

 Mulliken charges and spin densities:
               1          2
     1  C    0.788722  -1.494716
     2  C   -0.856541   0.684583
     3  C   -0.106518  -0.122538
     4  C    0.276746   0.062898
     5  C   -0.210790  -0.197486
     6  C   -0.354013   0.167763
     7  C    0.716703  -1.292974
     8  C   -0.033046  -0.156741
     9  C   -0.247452  -0.287672
    10  O    0.049423   0.016168
    11  C   -0.224078   0.082752
    12  O   -0.264143   0.041337
    13  N   -0.694696  -0.013447
    14  N    0.756106   0.076634
    15  N   -0.162078   0.207260
    16  H   -0.161713   0.322045
    17  H   -0.029094   0.170350
    18  H   -0.227449   0.378050
    19  H    0.152669   0.031796
    20  H    0.124283   0.020205
    21  H    0.153472   0.060660
    22  H    0.304299  -0.045733
    23  H   -0.004147   0.157216
    24  H    0.174088   0.030862
    25  H    0.093890   0.071751
    26  H    0.052908   0.105244
    27  H   -0.244276   0.406174
    28  H    0.059876   0.066364
    29  H    0.022057   0.078453
    30  H   -0.709857   0.892996
    31  H    0.120388   0.004770
    32  H   -0.315737   0.474971
 Sum of Mulliken charges =  -1.00000   1.00000

 Dipole moment (field-independent basis, Debye):
    X=             -2.0436    Y=              0.2910    Z=             -0.5672  Tot=              2.1407
 Quadrupole moment (field-independent basis, Debye-Ang):
   XX=           -181.0475   YY=           -125.2434   ZZ=           -115.2670
   XY=             -2.0900   XZ=              4.7801   YZ=             -2.1429

 Summary of Natural Population Analysis:

                                       Natural Population
                Natural  -----------------------------------------------
    Atom  No    Charge         Core      Valence    Rydberg      Total
 -----------------------------------------------------------------------
      C    1   -0.28588      0.99966     2.28165    0.00457     3.28588
      C    2   -0.20555      0.99961     2.19665    0.00929     3.20555
      C    3    0.07112      0.99949     1.91502    0.01437     2.92888
      C    4   -0.12322      0.99957     2.11293    0.01073     3.12322
      C    5   -0.18800      0.99961     2.17927    0.00912     3.18800
      C    6   -0.19360      0.99963     2.18513    0.00885     3.19360
      C    7   -0.18917      0.99963     2.18107    0.00847     3.18917
      C    8   -0.19149      0.99963     2.18270    0.00916     3.19149
      C    9   -0.18996      0.99961     2.18065    0.00969     3.18996
      O   10   -0.27473      0.99985     3.26643    0.00845     4.27473
      C   11    0.46732      0.99971     1.50591    0.02706     2.53268
      O   12   -0.31766      0.99987     3.31248    0.00532     4.31766
      N   13   -0.23174      0.99966     2.71951    0.01256     3.73174
      N   14    0.16438      0.99971     2.31956    0.01635     3.33562
      N   15    0.01315      0.99982     2.47473    0.01231     3.48685
      H   16    0.09828      0.00000     0.40071    0.00101     0.40172
      H   17    0.09877      0.00000     0.40051    0.00071     0.40123
      H   18    0.09726      0.00000     0.40163    0.00111     0.40274
      H   19    0.11028      0.00000     0.38849    0.00122     0.38972
      H   20    0.09811      0.00000     0.40083    0.00106     0.40189
      H   21    0.09189      0.00000     0.40636    0.00176     0.40811
      H   22    0.10540      0.00000     0.39316    0.00143     0.39460
      H   23    0.09465      0.00000     0.40433    0.00102     0.40535
      H   24    0.10575      0.00000     0.39312    0.00113     0.39425
      H   25    0.09818      0.00000     0.40037    0.00146     0.40182
      H   26    0.09645      0.00000     0.40266    0.00088     0.40355
      H   27    0.09709      0.00000     0.40195    0.00096     0.40291
      H   28    0.09150      0.00000     0.40723    0.00127     0.40850
      H   29    0.09047      0.00000     0.40807    0.00146     0.40953
      H   30    0.10198      0.00000     0.39626    0.00176     0.39802
      H   31    0.10194      0.00000     0.39658    0.00148     0.39806
      H   32    0.09702      0.00000     0.40176    0.00122     0.40298
 =======================================================================
   * Total *    0.00000     14.99505    41.81772    0.18724    57.00000

 Normal termination of Gaussian 16 at Thu Dec 10 19:51:02 2020.
