 Gaussian 16, Revision A.03,

 -----------------------------------------------------------
 # opt freq B3LYP/6-31G(d) empiricaldispersion=gd3bj scf=xqc
 -----------------------------------------------------------

 ------------------------------
 CID_58820657_JID_5231_neutraal
 ------------------------------
 Symbolic Z-matrix:
 Charge =  0 Multiplicity = 1

 SCF Done:  E(RB3LYP) =  -1045.45761314     A.U. after   16 cycles
 SCF Done:  E(RB3LYP) =  -1045.46155785     A.U. after   13 cycles
 SCF Done:  E(RB3LYP) =  -1045.46181539     A.U. after   11 cycles
 SCF Done:  E(RB3LYP) =  -1045.46183537     A.U. after   10 cycles
 SCF Done:  E(RB3LYP) =  -1045.46182483     A.U. after   10 cycles
 SCF Done:  E(RB3LYP) =  -1045.46182416     A.U. after   10 cycles
 SCF Done:  E(RB3LYP) =  -1045.46183552     A.U. after   10 cycles
 SCF Done:  E(RB3LYP) =  -1045.46183707     A.U. after    9 cycles
 Optimization completed.
    -- Stationary point found.
 Normal termination of Gaussian 16 at Thu Dec 10 14:45:43 2020.

 --------------------------------------------------------------------
 #N Geom=AllCheck Guess=TCheck SCRF=Check GenChk RB3LYP/6-31G(d) Freq
 --------------------------------------------------------------------

 Structure from the checkpoint file:  "JID_5231.chk"
 ------------------------------
 CID_58820657_JID_5231_neutraal
 ------------------------------
 Charge =  0 Multiplicity = 1

 SCF Done:  E(RB3LYP) =  -1045.46183707     A.U. after    1 cycles

  Exact polarizability: 238.288   0.681 142.654   0.000  -0.000  49.097
 Approx polarizability: 409.133  -4.384 284.415   0.001   0.000  80.986

                      1                      2                      3
                      A                      A                      A
 Frequencies --     63.4955                88.6064               105.9637
 Red. masses --     12.5030                 8.8168                 8.6720
 Frc consts  --      0.0297                 0.0408                 0.0574
 IR Inten    --      0.0701                 0.4609                 1.7818

                      4                      5                      6
                      A                      A                      A
 Frequencies --    172.9658               235.9288               240.4823
 Red. masses --     10.6081                 5.3662                 8.5126
 Frc consts  --      0.1870                 0.1760                 0.2901
 IR Inten    --      0.5371                 1.4084                11.3311

                      7                      8                      9
                      A                      A                      A
 Frequencies --    281.2866               297.2859               330.3216
 Red. masses --     15.0087                15.2924                 8.0479
 Frc consts  --      0.6997                 0.7963                 0.5174
 IR Inten    --      2.1876                 1.9240                 8.4800

                     10                     11                     12
                      A                      A                      A
 Frequencies --    371.0236               399.0684               443.5067
 Red. masses --      6.4837                 9.9927                 3.6129
 Frc consts  --      0.5259                 0.9376                 0.4187
 IR Inten    --      3.9446                14.4614                14.7059

                     13                     14                     15
                      A                      A                      A
 Frequencies --    479.5875               528.3656               546.7349
 Red. masses --      6.2819                 6.1436                 9.4260
 Frc consts  --      0.8513                 1.0105                 1.6601
 IR Inten    --      1.0380                 0.8728                 1.7190

                     16                     17                     18
                      A                      A                      A
 Frequencies --    548.9671               593.9871               675.8584
 Red. masses --     13.3801                 7.3247                 3.3221
 Frc consts  --      2.3758                 1.5226                 0.8941
 IR Inten    --      5.3927                 0.2594                10.9781

                     19                     20                     21
                      A                      A                      A
 Frequencies --    676.0605               701.5663               738.1565
 Red. masses --      6.5268                 8.0136                 2.4969
 Frc consts  --      1.7576                 2.3239                 0.8016
 IR Inten    --      2.6148                 3.3146                15.3775

                     22                     23                     24
                      A                      A                      A
 Frequencies --    750.8077               778.8076               805.5203
 Red. masses --      8.0796                 2.1672                 7.1908
 Frc consts  --      2.6835                 0.7745                 2.7491
 IR Inten    --      3.6139                14.8054                 5.1572

                     25                     26                     27
                      A                      A                      A
 Frequencies --    826.7713               860.9698               907.5963
 Red. masses --      6.3297                 4.6681                 1.3113
 Frc consts  --      2.5492                 2.0388                 0.6364
 IR Inten    --     11.8067                16.8019                 2.4556

                     28                     29                     30
                      A                      A                      A
 Frequencies --    920.7158               935.5516              1004.8758
 Red. masses --      1.4434                 1.4882                 6.8862
 Frc consts  --      0.7209                 0.7674                 4.0969
 IR Inten    --      8.2774                10.1742                 4.8422

                     31                     32                     33
                      A                      A                      A
 Frequencies --   1023.9615              1062.9889              1117.6024
 Red. masses --      3.4847                 6.7788                 1.1456
 Frc consts  --      2.1527                 4.5130                 0.8431
 IR Inten    --     39.8880                26.6741                 1.3192

                     34                     35                     36
                      A                      A                      A
 Frequencies --   1164.6874              1209.4990              1259.7778
 Red. masses --      3.7468                 2.7652                 1.3562
 Frc consts  --      2.9945                 2.3834                 1.2682
 IR Inten    --     12.0178                86.9854                21.3939

                     37                     38                     39
                      A                      A                      A
 Frequencies --   1279.7308              1357.3449              1390.7584
 Red. masses --      3.2378                 3.1063                 3.9824
 Frc consts  --      3.1242                 3.3719                 4.5383
 IR Inten    --    181.3669                79.7403                 8.0041

                     40                     41                     42
                      A                      A                      A
 Frequencies --   1464.1117              1499.9746              1547.0858
 Red. masses --      5.5365                 4.4047                 6.7147
 Frc consts  --      6.9925                 5.8390                 9.4691
 IR Inten    --      1.9059                 4.0601                15.2460

                     43                     44                     45
                      A                      A                      A
 Frequencies --   1600.7495              1631.7147              1808.0267
 Red. masses --      7.8464                 6.8757                12.9981
 Frc consts  --     11.8459                10.7858                25.0346
 IR Inten    --      2.5952                56.1551               253.5912

                     46                     47                     48
                      A                      A                      A
 Frequencies --   1826.9365              1866.8370              3215.5135
 Red. masses --     13.1820                13.1343                 1.0916
 Frc consts  --     25.9225                26.9693                 6.6497
 IR Inten    --    443.4647                26.7529                 0.9690

                     49                     50                     51
                      A                      A                      A
 Frequencies --   3219.9448              3234.0880              3270.7731
 Red. masses --      1.0921                 1.0910                 1.0980
 Frc consts  --      6.6714                 6.7234                 6.9208
 IR Inten    --      0.3241                 2.8762                 1.1451

 - Thermochemistry -
 -------------------
 Temperature   298.150 Kelvin.  Pressure   1.00000 Atm.
 Atom     1 has atomic number  6 and mass  12.00000

 Molecular mass:   215.98812 amu.
 Principal axes and moments of inertia in atomic units:
                           1         2         3
     Eigenvalues --  1372.063865217.039306589.10316
           X            0.99995   0.01018  -0.00000
           Y           -0.01018   0.99995  -0.00000
           Z            0.00000   0.00000   1.00000
 This molecule is an asymmetric top.
 Rotational symmetry number  1.
 Warning -- assumption of classical behavior for rotation
           may cause significant error
 Rotational temperatures (Kelvin)      0.06313     0.01660     0.01315
 Rotational constants (GHZ):           1.31535     0.34593     0.27390
 Zero-point vibrational energy     319181.3 (Joules/Mol)
                                   76.28616 (Kcal/Mol)
 Warning -- explicit consideration of  17 degrees of freedom as
           vibrations may cause significant error
 Vibrational temperatures:     91.36   127.48   152.46   248.86   339.45
          (Kelvin)            346.00   404.71   427.73   475.26   533.82
                              574.17   638.11   690.02   760.20   786.63
                              789.84   854.61   972.41   972.70  1009.40
                             1062.04  1080.24  1120.53  1158.96  1189.54
                             1238.74  1305.83  1324.70  1346.05  1445.79
                             1473.25  1529.40  1607.98  1675.73  1740.20
                             1812.54  1841.25  1952.92  2000.99  2106.53
                             2158.13  2225.91  2303.12  2347.67  2601.35
                             2628.55  2685.96  4626.41  4632.78  4653.13
                             4705.91

 Zero-point correction=                           0.121570 (Hartree/Particle)
 Thermal correction to Energy=                    0.132676
 Thermal correction to Enthalpy=                  0.133620
 Thermal correction to Gibbs Free Energy=         0.083831
 Sum of electronic and zero-point Energies=          -1045.340267
 Sum of electronic and thermal Energies=             -1045.329161
 Sum of electronic and thermal Enthalpies=           -1045.328217
 Sum of electronic and thermal Free Energies=        -1045.378007

                     E (Thermal)             CV                S
                      KCal/Mol        Cal/Mol-Kelvin    Cal/Mol-Kelvin
 Total                   83.256             43.128            104.792
 Electronic               0.000              0.000              0.000
 Translational            0.889              2.981             42.013
 Rotational               0.889              2.981             32.223
 Vibrational             81.478             37.167             30.556
 Vibration     1          0.597              1.972              4.345
 Vibration     2          0.601              1.957              3.691
 Vibration     3          0.605              1.944              3.342
 Vibration     4          0.626              1.876              2.403
 Vibration     5          0.655              1.786              1.833
 Vibration     6          0.658              1.778              1.799
 Vibration     7          0.681              1.708              1.526
 Vibration     8          0.691              1.679              1.432
 Vibration     9          0.713              1.615              1.259
 Vibration    10          0.743              1.532              1.076
 Vibration    11          0.765              1.472              0.966
 Vibration    12          0.803              1.375              0.816
 Vibration    13          0.836              1.295              0.711
 Vibration    14          0.883              1.187              0.591
 Vibration    15          0.902              1.147              0.551
 Vibration    16          0.904              1.142              0.546
 Vibration    17          0.952              1.045              0.460

 Optimization completed.
    -- Stationary point found.
 Normal termination of Gaussian 16 at Thu Dec 10 14:51:24 2020.

 ----------------------------------------------------------------------
 # B3LYP/6-311++G(d,p) empiricaldispersion=gd3bj scf=xqc pop=npa geom=c
 heck
 ----------------------------------------------------------------------

 --------------------------------------
 CID_58820657_JID_5231_Energie_neutraal
 --------------------------------------
 Structure from the checkpoint file:  "JID_5231.chk"
 Charge =  0 Multiplicity = 1

 SCF Done:  E(RB3LYP) =  -1045.66141504     A.U. after   17 cycles
 Normal termination of Gaussian 16 at Thu Dec 10 14:54:15 2020.

 ----------------------------------------------------------------------
 # B3LYP/6-311++G(d,p) empiricaldispersion=gd3bj scf=xqc pop=npa geom=c
 heck
 ----------------------------------------------------------------------

 ------------------------------------
 CID_58820657_JID_5231_Energie_kation
 ------------------------------------
 Structure from the checkpoint file:  "JID_5231.chk"
 Charge =  1 Multiplicity = 2

 SCF Done:  E(UB3LYP) =  -1045.34409506     A.U. after   33 cycles
 SCF Done:  E(UB3LYP) =  -1045.34409506     a.u. after    1 cycles
 Normal termination of Gaussian 16 at Thu Dec 10 15:01:28 2020.
 Gaussian 16:  ES64L-G16RevA.03 25-Dec-2016

 ----------------------------------------------------------------------
 # B3LYP/6-311++G(d,p) empiricaldispersion=gd3bj scf=xqc pop=npa geom=c
 heck
 ----------------------------------------------------------------------

 -----------------------------------
 CID_58820657_JID_5231_Energie_anion
 -----------------------------------
 Structure from the checkpoint file:  "JID_5231.chk"
 Charge = -1 Multiplicity = 2

                         Standard orientation:
 ---------------------------------------------------------------------
 Center     Atomic      Atomic             Coordinates (Angstroms)
 Number     Number       Type             X           Y           Z
 ---------------------------------------------------------------------
      1          6           0        2.896954    1.505815   -0.000027
      2          6           0        3.891762    0.580593   -0.000044
      3         16           0        3.312043   -1.070407   -0.000027
      4          6           0        1.651004   -0.516319    0.000008
      5          6           0        0.510119   -1.317534    0.000037
      6          6           0       -0.715062   -0.662266    0.000066
      7          6           0       -0.800025    0.756518    0.000058
      8          6           0        0.335749    1.551940    0.000027
      9          6           0        1.586494    0.915999    0.000004
     10          6           0       -2.210346    1.201211    0.000074
     11          8           0       -2.639211    2.336446   -0.000002
     12          6           0       -3.061604   -0.094718    0.000046
     13          8           0       -4.263999   -0.168467   -0.000191
     14          6           0       -2.058713   -1.276943    0.000105
     15          8           0       -2.344760   -2.456619   -0.000012
     16          1           0        3.069738    2.575736   -0.000037
     17          1           0        4.958523    0.761803   -0.000068
     18          1           0        0.555913   -2.401836    0.000042
     19          1           0        0.248919    2.634149    0.000020
 ---------------------------------------------------------------------

 SCF Done:  E(UB3LYP) =  -1045.74181996     A.U. after   25 cycles

 The electronic state is 2-A.
 Alpha  occ. eigenvalues --  -88.78232 -18.97661 -18.97084 -18.96052 -10.11357
 Alpha  occ. eigenvalues --  -10.11108 -10.11046 -10.10876 -10.09070 -10.08827
 Alpha  occ. eigenvalues --  -10.08684 -10.07286 -10.07140 -10.06908 -10.06806
 Alpha  occ. eigenvalues --   -7.86859  -5.83160  -5.82809  -5.82409  -0.91588
 Alpha  occ. eigenvalues --   -0.90402  -0.88647  -0.79653  -0.74109  -0.67501
 Alpha  occ. eigenvalues --   -0.66418  -0.61859  -0.57344  -0.51578  -0.48697
 Alpha  occ. eigenvalues --   -0.47597  -0.43092  -0.41295  -0.38488  -0.36287
 Alpha  occ. eigenvalues --   -0.34448  -0.33714  -0.31977  -0.31941  -0.29950
 Alpha  occ. eigenvalues --   -0.29794  -0.29678  -0.28418  -0.28256  -0.26477
 Alpha  occ. eigenvalues --   -0.25878  -0.24056  -0.23863  -0.21409  -0.19255
 Alpha  occ. eigenvalues --   -0.16487  -0.14443  -0.14252  -0.12839  -0.07376
 Alpha  occ. eigenvalues --   -0.01958
 Alpha virt. eigenvalues --    0.04303   0.06632   0.07941   0.08411   0.09351
 Alpha virt. eigenvalues --    0.09924   0.11058   0.12356   0.12572   0.13272
 Alpha virt. eigenvalues --    0.13347   0.14274   0.15677   0.16335   0.16656

  Beta  occ. eigenvalues --  -88.78238 -18.97422 -18.96756 -18.95418 -10.11276
  Beta  occ. eigenvalues --  -10.11103 -10.10921 -10.10776 -10.08958 -10.08845
  Beta  occ. eigenvalues --  -10.08613 -10.07218 -10.07098 -10.06945 -10.06638
  Beta  occ. eigenvalues --   -7.86864  -5.83166  -5.82815  -5.82421  -0.90975
  Beta  occ. eigenvalues --   -0.89868  -0.87670  -0.79492  -0.73944  -0.67295
  Beta  occ. eigenvalues --   -0.66072  -0.61686  -0.56782  -0.51377  -0.48315
  Beta  occ. eigenvalues --   -0.47409  -0.42750  -0.41202  -0.38172  -0.36095
  Beta  occ. eigenvalues --   -0.34268  -0.33589  -0.31672  -0.31187  -0.29706
  Beta  occ. eigenvalues --   -0.29589  -0.28706  -0.28186  -0.27781  -0.26393
  Beta  occ. eigenvalues --   -0.24602  -0.23981  -0.22403  -0.19424  -0.18741
  Beta  occ. eigenvalues --   -0.16041  -0.13947  -0.13779  -0.12113  -0.06949
  Beta virt. eigenvalues --    0.03710   0.05195   0.06625   0.08419   0.09353
  Beta virt. eigenvalues --    0.09513   0.10946   0.11060   0.12359   0.12577
  Beta virt. eigenvalues --    0.13356   0.13539   0.14542   0.15722   0.16347

 Mulliken charges and spin densities:
               1          2
     1  C   -0.239891  -0.024905
     2  C    0.171555   0.096717
     3  S   -0.767970  -0.012487
     4  C   -0.603508  -0.023820
     5  C   -0.242826   0.149519
     6  C    0.845014  -0.037844
     7  C    0.106120  -0.021108
     8  C   -0.473670   0.148866
     9  C    1.713459   0.039559
    10  C   -0.617047   0.068435
    11  O   -0.343167   0.092890
    12  C    0.373244   0.122271
    13  O   -0.365996   0.234717
    14  C   -0.817466   0.070772
    15  O   -0.357803   0.124962
    16  H    0.122275   0.000251
    17  H    0.222502  -0.005934
    18  H    0.155618  -0.011771
    19  H    0.119557  -0.011089
 Sum of Mulliken charges =  -1.00000   1.00000

 Dipole moment (field-independent basis, Debye):
    X=             11.8270    Y=              1.0871    Z=              0.0005  Tot=             11.8769
 Quadrupole moment (field-independent basis, Debye-Ang):
   XX=           -150.8968   YY=           -114.5963   ZZ=            -96.5253
   XY=              1.6893   XZ=             -0.0023   YZ=             -0.0002

 Summary of Natural Population Analysis:

                                       Natural Population
                Natural  -----------------------------------------------
    Atom  No    Charge         Core      Valence    Rydberg      Total
 -----------------------------------------------------------------------
      C    1   -0.12534      0.99950     2.11659    0.00926     3.12534
      C    2   -0.15772      0.99954     2.14749    0.01069     3.15772
      S    3    0.17627      4.99945     2.80172    0.02256     7.82373
      C    4   -0.08180      0.99943     2.07257    0.00980     3.08180
      C    5   -0.06316      0.99946     2.05341    0.01029     3.06316
      C    6   -0.05505      0.99946     2.04679    0.00880     3.05505
      C    7   -0.06131      0.99947     2.05302    0.00882     3.06131
      C    8   -0.03930      0.99940     2.03090    0.00900     3.03930
      C    9   -0.03097      0.99949     2.02294    0.00854     3.03097
      C   10    0.24535      0.99957     1.73360    0.02147     2.75465
      O   11   -0.25333      0.99988     3.24546    0.00799     4.25333
      C   12    0.20794      0.99964     1.76836    0.02406     2.79206
      O   13   -0.17932      0.99987     3.17115    0.00830     4.17932
      C   14    0.24269      0.99957     1.73616    0.02158     2.75731
      O   15   -0.24236      0.99988     3.23461    0.00787     4.24236
      H   16    0.10472      0.00000     0.39427    0.00101     0.39528
      H   17    0.10251      0.00000     0.39654    0.00096     0.39749
      H   18    0.10676      0.00000     0.39120    0.00204     0.39324
      H   19    0.10343      0.00000     0.39441    0.00216     0.39657
 =======================================================================
   * Total *    0.00000     18.99361    35.81121    0.19519    55.00000

 Normal termination of Gaussian 16 at Thu Dec 10 15:07:14 2020.
