 Gaussian 16, Revision A.03,

 -----------------------------------------------------------
 # opt freq B3LYP/6-31G(d) empiricaldispersion=gd3bj scf=xqc
 -----------------------------------------------------------

 ------------------------------
 CID_64869038_JID_1610_neutraal
 ------------------------------
 Symbolic Z-matrix:
 Charge =  0 Multiplicity = 1

 SCF Done:  E(RB3LYP) =  -496.596212549     A.U. after   13 cycles
 SCF Done:  E(RB3LYP) =  -496.601216313     A.U. after   12 cycles
 SCF Done:  E(RB3LYP) =  -496.602555920     A.U. after   11 cycles
 SCF Done:  E(RB3LYP) =  -496.603361403     A.U. after   11 cycles
 SCF Done:  E(RB3LYP) =  -496.603510977     A.U. after   11 cycles
 SCF Done:  E(RB3LYP) =  -496.603553271     A.U. after   10 cycles
 SCF Done:  E(RB3LYP) =  -496.603571142     A.U. after   10 cycles
 SCF Done:  E(RB3LYP) =  -496.603582556     A.U. after   10 cycles
 SCF Done:  E(RB3LYP) =  -496.603602258     A.U. after   10 cycles
 SCF Done:  E(RB3LYP) =  -496.603614616     A.U. after   10 cycles
 SCF Done:  E(RB3LYP) =  -496.603711875     A.U. after   11 cycles
 SCF Done:  E(RB3LYP) =  -496.598803485     A.U. after   11 cycles
 SCF Done:  E(RB3LYP) =  -496.603719341     A.U. after   10 cycles
 SCF Done:  E(RB3LYP) =  -496.603706675     A.U. after   11 cycles
 SCF Done:  E(RB3LYP) =  -496.603720968     A.U. after   11 cycles
 SCF Done:  E(RB3LYP) =  -496.603721055     A.U. after    7 cycles
 Optimization completed.
    -- Stationary point found.

 1\1\GINC-NODE357\FOpt\RB3LYP\6-31G(d)\C7H18N4\VSC10255\08-Dec-2020\0\\
 # opt freq B3LYP/6-31G(d) empiricaldispersion=gd3bj scf=xqc\\CID_64869
 038_JID_1610_neutraal\\0,1\C,1.0666413473,-0.1967798422,0.072288623\C,
 0.1902148466,-0.2341666742,1.3303020712\C,0.3763673526,1.0434325591,2.
 1579985007\C,-1.299351405,-0.4391391025,1.0015424339\C,-1.6482946422,-
 1.7194651143,0.2307460353\C,-1.184506634,-3.0020662142,0.936257378\N,-
 1.7532740216,-3.0773413071,2.2645224414\C,-1.0352030316,-3.3255149395,
 3.29296097\N,0.2974270352,-3.7412833831,3.3569541192\N,-1.5952458628,-

 Normal termination of Gaussian 16 at Tue Dec  8 21:05:06 2020.

 --------------------------------------------------------------------
 #N Geom=AllCheck Guess=TCheck SCRF=Check GenChk RB3LYP/6-31G(d) Freq
 --------------------------------------------------------------------

 Structure from the checkpoint file:  "JID_1610.chk"
 ------------------------------
 CID_64869038_JID_1610_neutraal
 ------------------------------
 Charge =  0 Multiplicity = 1

 SCF Done:  E(RB3LYP) =  -496.603721055     A.U. after    1 cycles

  Exact polarizability: 108.149  10.126  99.377   1.713  -4.339  97.948
 Approx polarizability: 136.544  19.259 142.700  -0.362 -11.508 146.952

                      1                      2                      3
                      A                      A                      A
 Frequencies --     25.1629                37.7735                54.2878
 Red. masses --      3.6710                 4.0811                 2.6563
 Frc consts  --      0.0014                 0.0034                 0.0046
 IR Inten    --      2.5728                 0.3035                 0.0669

                      4                      5                      6
                      A                      A                      A
 Frequencies --    103.7023               151.8319               197.0094
 Red. masses --      3.3302                 3.2035                 2.4336
 Frc consts  --      0.0211                 0.0435                 0.0557
 IR Inten    --      0.4989                 0.5914                 6.2202

                      7                      8                      9
                      A                      A                      A
 Frequencies --    216.4548               233.1854               246.0782
 Red. masses --      1.3505                 1.3752                 1.4393
 Frc consts  --      0.0373                 0.0441                 0.0514
 IR Inten    --      1.2035                 5.9313                 5.9144

                     10                     11                     12
                      A                      A                      A
 Frequencies --    267.6749               286.3626               316.1392
 Red. masses --      1.4547                 1.5736                 2.1770
 Frc consts  --      0.0614                 0.0760                 0.1282
 IR Inten    --      4.5602                13.5329                 1.5642

                     13                     14                     15
                      A                      A                      A
 Frequencies --    341.3943               365.5016               376.4647
 Red. masses --      2.9219                 1.4224                 1.6935
 Frc consts  --      0.2006                 0.1120                 0.1414
 IR Inten    --      5.1232                19.5733                11.4634

                     16                     17                     18
                      A                      A                      A
 Frequencies --    418.7164               443.0137               501.8099
 Red. masses --      1.9095                 2.3036                 3.1000
 Frc consts  --      0.1973                 0.2664                 0.4599
 IR Inten    --      2.3485                 4.9586                17.9661

                     19                     20                     21
                      A                      A                      A
 Frequencies --    546.7585               566.5720               643.7527
 Red. masses --      2.7793                 1.9246                 2.0407
 Frc consts  --      0.4895                 0.3640                 0.4983
 IR Inten    --      6.3952               144.1476               117.3959

                     22                     23                     24
                      A                      A                      A
 Frequencies --    716.0950               745.2959               754.9383
 Red. masses --      1.7407                 3.0298                 1.9144
 Frc consts  --      0.5259                 0.9916                 0.6429
 IR Inten    --    220.6864               104.1916                 8.7058

                     25                     26                     27
                      A                      A                      A
 Frequencies --    833.7889               872.2742               887.0379
 Red. masses --      1.9315                 2.4162                 2.3526
 Frc consts  --      0.7912                 1.0831                 1.0906
 IR Inten    --      0.3356                20.1057                11.3333

                     28                     29                     30
                      A                      A                      A
 Frequencies --    940.4808               957.3187               977.2249
 Red. masses --      1.1875                 1.9667                 1.4235
 Frc consts  --      0.6189                 1.0619                 0.8010
 IR Inten    --      1.0153                 7.4290                 1.6476

                     31                     32                     33
                      A                      A                      A
 Frequencies --    985.8544              1017.7293              1051.2990
 Red. masses --      1.6635                 2.0485                 1.6269
 Frc consts  --      0.9526                 1.2501                 1.0594
 IR Inten    --     11.6552                55.6313                 1.4676

                     34                     35                     36
                      A                      A                      A
 Frequencies --   1074.9751              1102.1432              1153.5179
 Red. masses --      2.2235                 1.7568                 1.9278
 Frc consts  --      1.5139                 1.2573                 1.5113
 IR Inten    --      2.6207                 9.9230                 3.2129

                     37                     38                     39
                      A                      A                      A
 Frequencies --   1166.2391              1190.7334              1207.1231
 Red. masses --      2.1585                 2.7869                 1.7299
 Frc consts  --      1.7297                 2.3281                 1.4852
 IR Inten    --      0.3930                 7.5436                 5.1210

                     40                     41                     42
                      A                      A                      A
 Frequencies --   1251.3655              1259.6819              1264.4084
 Red. masses --      1.3029                 1.9272                 1.4013
 Frc consts  --      1.2021                 1.8018                 1.3200
 IR Inten    --     11.6717                81.3709                 4.6202

                     43                     44                     45
                      A                      A                      A
 Frequencies --   1323.8862              1357.4654              1359.0768
 Red. masses --      1.2342                 1.2781                 1.5670
 Frc consts  --      1.2745                 1.3877                 1.7054
 IR Inten    --      0.9860                16.3386                53.3225

                     46                     47                     48
                      A                      A                      A
 Frequencies --   1383.8261              1392.6555              1406.3164
 Red. masses --      1.3894                 1.4440                 1.3774
 Frc consts  --      1.5676                 1.6501                 1.6050
 IR Inten    --      5.5795                39.8551                15.4181

                     49                     50                     51
                      A                      A                      A
 Frequencies --   1410.0441              1427.7764              1429.8299
 Red. masses --      1.4664                 1.3649                 1.2818
 Frc consts  --      1.7178                 1.6393                 1.5439
 IR Inten    --      1.6214                10.4412                11.9716

                     52                     53                     54
                      A                      A                      A
 Frequencies --   1448.8520              1498.4871              1504.7336
 Red. masses --      1.2388                 1.4154                 1.0761
 Frc consts  --      1.5322                 1.8725                 1.4355
 IR Inten    --      3.3110                74.4074                 1.8160

                     55                     56                     57
                      A                      A                      A
 Frequencies --   1513.4630              1523.4484              1524.9825
 Red. masses --      1.0746                 1.0576                 1.0989
 Frc consts  --      1.4502                 1.4462                 1.5056
 IR Inten    --      8.5726                10.9157                14.3305

                     58                     59                     60
                      A                      A                      A
 Frequencies --   1526.6577              1535.7961              1542.8809
 Red. masses --      1.0730                 1.0570                 1.0512
 Frc consts  --      1.4735                 1.4689                 1.4743
 IR Inten    --      5.8606                 3.4088                 6.8294

                     61                     62                     63
                      A                      A                      A
 Frequencies --   1663.9522              1746.4589              1769.7408
 Red. masses --      1.1810                 1.1248                 4.5929
 Frc consts  --      1.9266                 2.0213                 8.4754
 IR Inten    --     88.4425                89.0326               271.2591

                     64                     65                     66
                      A                      A                      A
 Frequencies --   2954.9928              3016.5556              3028.2889
 Red. masses --      1.0703                 1.0777                 1.0668
 Frc consts  --      5.5063                 5.7777                 5.7640
 IR Inten    --     75.8889                 4.2198                29.0549

                     67                     68                     69
                      A                      A                      A
 Frequencies --   3034.6453              3035.4274              3040.8623
 Red. masses --      1.0777                 1.0390                 1.0413
 Frc consts  --      5.8472                 5.6402                 5.6729
 IR Inten    --     37.2505                19.6265                46.1961

                     70                     71                     72
                      A                      A                      A
 Frequencies --   3051.3359              3074.2769              3088.6040
 Red. masses --      1.0652                 1.0983                 1.1023
 Frc consts  --      5.8434                 6.1157                 6.1956
 IR Inten    --     60.2120                21.1308                56.3290

                     73                     74                     75
                      A                      A                      A
 Frequencies --   3097.4702              3104.7223              3108.4823
 Red. masses --      1.1018                 1.1009                 1.1022
 Frc consts  --      6.2282                 6.2525                 6.2752
 IR Inten    --      2.6860                79.1440                46.4016

                     76                     77                     78
                      A                      A                      A
 Frequencies --   3113.6655              3409.8897              3500.9892
 Red. masses --      1.1007                 1.0515                 1.0889
 Frc consts  --      6.2875                 7.2036                 7.8637
 IR Inten    --     43.1941                13.2302                 1.9707

                     79                     80                     81
                      A                      A                      A
 Frequencies --   3545.3320              3551.6753              3656.6932
 Red. masses --      1.0741                 1.0504                 1.0962
 Frc consts  --      7.9543                 7.8071                 8.6359
 IR Inten    --     13.2414                 6.6215                11.8079

 - Thermochemistry -
 -------------------
 Temperature   298.150 Kelvin.  Pressure   1.00000 Atm.
 Atom     1 has atomic number  6 and mass  12.00000

 Molecular mass:   158.15315 amu.
 Principal axes and moments of inertia in atomic units:
                           1         2         3
     Eigenvalues --  1204.357803091.674633243.48518
           X            0.99998  -0.00645   0.00278
           Y            0.00642   0.99994   0.00880
           Z           -0.00283  -0.00878   0.99996
 This molecule is an asymmetric top.
 Rotational symmetry number  1.
 Warning -- assumption of classical behavior for rotation
           may cause significant error
 Rotational temperatures (Kelvin)      0.07192     0.02802     0.02670
 Rotational constants (GHZ):           1.49851     0.58374     0.55642
 Zero-point vibrational energy     696546.1 (Joules/Mol)
                                  166.47851 (Kcal/Mol)
 Warning -- explicit consideration of  20 degrees of freedom as
           vibrations may cause significant error
 Vibrational temperatures:     36.20    54.35    78.11   149.20   218.45
          (Kelvin)            283.45   311.43   335.50   354.05   385.12
                              412.01   454.85   491.19   525.88   541.65
                              602.44   637.40   721.99   786.66   815.17
                              926.22  1030.30  1072.31  1086.19  1199.64
                             1255.01  1276.25  1353.14  1377.37  1406.01
                             1418.42  1464.29  1512.58  1546.65  1585.74
                             1659.65  1677.96  1713.20  1736.78  1800.44
                             1812.40  1819.20  1904.78  1953.09  1955.41
                             1991.02  2003.72  2023.38  2028.74  2054.25
                             2057.21  2084.57  2155.99  2164.98  2177.54
                             2191.90  2194.11  2196.52  2209.67  2219.86
                             2394.06  2512.76  2546.26  4251.58  4340.15
                             4357.03  4366.18  4367.30  4375.12  4390.19
                             4423.20  4443.81  4456.57  4467.00  4472.41
                             4479.87  4906.07  5037.14  5100.94  5110.07
                             5261.17

 Zero-point correction=                           0.265300 (Hartree/Particle)
 Thermal correction to Energy=                    0.278817
 Thermal correction to Enthalpy=                  0.279762
 Thermal correction to Gibbs Free Energy=         0.224588
 Sum of electronic and zero-point Energies=           -496.338421
 Sum of electronic and thermal Energies=              -496.324904
 Sum of electronic and thermal Enthalpies=            -496.323959
 Sum of electronic and thermal Free Energies=         -496.379133

                     E (Thermal)             CV                S
                      KCal/Mol        Cal/Mol-Kelvin    Cal/Mol-Kelvin
 Total                  174.961             49.934            116.123
 Electronic               0.000              0.000              0.000
 Translational            0.889              2.981             41.084
 Rotational               0.889              2.981             30.869
 Vibrational            173.183             43.973             44.170
 Vibration     1          0.593              1.985              6.178
 Vibration     2          0.594              1.982              5.373
 Vibration     3          0.596              1.976              4.655
 Vibration     4          0.605              1.946              3.384
 Vibration     5          0.619              1.901              2.649
 Vibration     6          0.636              1.844              2.161
 Vibration     7          0.645              1.816              1.989
 Vibration     8          0.654              1.790              1.854
 Vibration     9          0.661              1.769              1.759
 Vibration    10          0.673              1.733              1.611
 Vibration    11          0.684              1.699              1.495
 Vibration    12          0.703              1.643              1.330
 Vibration    13          0.721              1.593              1.206
 Vibration    14          0.739              1.543              1.099
 Vibration    15          0.747              1.520              1.053
 Vibration    16          0.782              1.430              0.896
 Vibration    17          0.803              1.376              0.817
 Vibration    18          0.857              1.246              0.654
 Vibration    19          0.902              1.147              0.551
 Vibration    20          0.922              1.104              0.511

                           ! Non-Optimized Parameters !

 1\1\GINC-NODE357\Freq\RB3LYP\6-31G(d)\C7H18N4\VSC10255\08-Dec-2020\0\\
 #N Geom=AllCheck Guess=TCheck SCRF=Check GenChk RB3LYP/6-31G(d) Freq\\
 CID_64869038_JID_1610_neutraal\\0,1\C,1.0666413473,-0.1967798422,0.072
 288623\C,0.1902148466,-0.2341666742,1.3303020712\C,0.3763673526,1.0434
 325591,2.1579985007\C,-1.299351405,-0.4391391025,1.0015424339\C,-1.648
 2946422,-1.7194651143,0.2307460353\C,-1.184506634,-3.0020662142,0.9362
 57378\N,-1.7532740216,-3.0773413071,2.2645224414\C,-1.0352030316,-3.32
 55149395,3.29296097\N,0.2974270352,-3.7412833831,3.3569541192\N,-1.595

 Normal termination of Gaussian 16 at Tue Dec  8 21:11:34 2020.

 ----------------------------------------------------------------------
 # B3LYP/6-311++G(d,p) empiricaldispersion=gd3bj scf=xqc pop=npa geom=c
 heck
 ----------------------------------------------------------------------

 --------------------------------------
 CID_64869038_JID_1610_Energie_neutraal
 --------------------------------------
 Structure from the checkpoint file:  "JID_1610.chk"
 Charge =  0 Multiplicity = 1

 SCF Done:  E(RB3LYP) =  -496.763313847     A.U. after   13 cycles
 Normal termination of Gaussian 16 at Tue Dec  8 21:15:01 2020.

 ----------------------------------------------------------------------
 # B3LYP/6-311++G(d,p) empiricaldispersion=gd3bj scf=xqc pop=npa geom=c
 heck
 ----------------------------------------------------------------------

 ------------------------------------
 CID_64869038_JID_1610_Energie_kation
 ------------------------------------
 Structure from the checkpoint file:  "JID_1610.chk"
 Charge =  1 Multiplicity = 2

 SCF Done:  E(UB3LYP) =  -496.452476272     A.U. after   23 cycles
 Normal termination of Gaussian 16 at Tue Dec  8 21:21:49 2020.
 Gaussian 16:  ES64L-G16RevA.03 25-Dec-2016

 -----------------------------------
 CID_64869038_JID_1610_Energie_anion
 -----------------------------------
 Structure from the checkpoint file:  "JID_1610.chk"
 Charge = -1 Multiplicity = 2

                         Standard orientation:
 ---------------------------------------------------------------------
 Center     Atomic      Atomic             Coordinates (Angstroms)
 Number     Number       Type             X           Y           Z
 ---------------------------------------------------------------------
      1          6           0       -3.160092   -0.083816   -0.816418
      2          6           0       -1.996902    0.575506   -0.065150
      3          6           0       -2.397482    1.967516    0.438674
      4          6           0       -1.491761   -0.285853    1.106087
      5          6           0       -0.990185   -1.689660    0.741570
      6          6           0        0.135550   -1.683387   -0.302745
      7          7           0        1.249525   -0.887708    0.165663
      8          6           0        1.790342    0.011943   -0.564437
      9          7           0        1.592811    0.280924   -1.921453
     10          7           0        2.754569    0.869925   -0.014545
     11          7           0        3.184484    0.602623    1.313943
     12          1           0       -4.002150   -0.271647   -0.137560
     13          1           0       -2.872034   -1.043153   -1.259752
     14          1           0       -3.523444    0.561002   -1.625389
     15          1           0       -1.166321    0.709985   -0.773496
     16          1           0       -3.229631    1.899080    1.151235
     17          1           0       -1.561560    2.459793    0.949300
     18          1           0       -2.718781    2.614602   -0.386187
     19          1           0       -0.671490    0.248978    1.600047
     20          1           0       -2.299070   -0.376982    1.847252
     21          1           0       -0.614090   -2.172504    1.651765
     22          1           0       -1.812924   -2.313385    0.369098
     23          1           0        0.474592   -2.715553   -0.467990
     24          1           0       -0.284062   -1.344986   -1.267112
     25          1           0        1.587593    1.270173   -2.143215
     26          1           0        0.809705   -0.204520   -2.338578
     27          1           0        3.557027    0.991476   -0.624001
     28          1           0        2.563683    1.132900    1.925298
     29          1           0        2.956419   -0.379101    1.498546
 ---------------------------------------------------------------------

 SCF Done:  E(UB3LYP) =  -496.751000145     A.U. after   27 cycles

 The electronic state is 2-A.
 Alpha  occ. eigenvalues --  -14.24099 -14.22483 -14.21182 -14.17219 -10.15907
 Alpha  occ. eigenvalues --  -10.08583 -10.06230 -10.05865 -10.05438 -10.04976
 Alpha  occ. eigenvalues --  -10.04796  -0.90016  -0.82283  -0.76486  -0.70521
 Alpha  occ. eigenvalues --   -0.67811  -0.64663  -0.57732  -0.57385  -0.50816
 Alpha  occ. eigenvalues --   -0.47084  -0.44245  -0.42625  -0.41365  -0.39821
 Alpha  occ. eigenvalues --   -0.36956  -0.36326  -0.35377  -0.33709  -0.32479
 Alpha  occ. eigenvalues --   -0.31656  -0.29024  -0.27952  -0.27168  -0.26004
 Alpha  occ. eigenvalues --   -0.24611  -0.24563  -0.21526  -0.21387  -0.20623
 Alpha  occ. eigenvalues --   -0.18493  -0.15603  -0.14923  -0.12970   0.04718
 Alpha virt. eigenvalues --    0.07418   0.07705   0.08021   0.09429   0.09788
 Alpha virt. eigenvalues --    0.10120   0.10595   0.10685   0.12103   0.12753
 Alpha virt. eigenvalues --    0.13076   0.13476   0.13770   0.14276   0.14812

  Beta  occ. eigenvalues --  -14.24080 -14.22476 -14.21096 -14.17213 -10.15899
  Beta  occ. eigenvalues --  -10.08557 -10.06214 -10.05858 -10.05432 -10.04951
  Beta  occ. eigenvalues --  -10.04762  -0.89988  -0.82230  -0.76413  -0.70488
  Beta  occ. eigenvalues --   -0.67755  -0.64628  -0.57676  -0.57336  -0.50769
  Beta  occ. eigenvalues --   -0.47010  -0.44185  -0.42525  -0.41300  -0.39806
  Beta  occ. eigenvalues --   -0.36905  -0.36282  -0.35313  -0.33662  -0.32444
  Beta  occ. eigenvalues --   -0.31625  -0.28986  -0.27924  -0.27134  -0.25969
  Beta  occ. eigenvalues --   -0.24581  -0.24526  -0.21487  -0.21351  -0.20596
  Beta  occ. eigenvalues --   -0.18471  -0.15553  -0.14888  -0.12944
  Beta virt. eigenvalues --    0.07072   0.08120   0.08308   0.08352   0.09791
  Beta virt. eigenvalues --    0.09998   0.10699   0.10986   0.11269   0.12492
  Beta virt. eigenvalues --    0.12938   0.13263   0.13653   0.14052   0.14693

 Mulliken charges and spin densities:
               1          2
     1  C    0.487760  -1.162613
     2  C   -0.915032   1.337782
     3  C    0.285121  -0.896947
     4  C    0.349386  -0.554777
     5  C   -0.177370  -0.195201
     6  C    0.336340  -0.666771
     7  N   -0.125641   0.048582
     8  C    0.582456  -0.970932
     9  N   -0.271378  -0.012575
    10  N   -0.313067   0.122398
    11  N   -0.251635  -0.083022
    12  H   -0.017048   0.147272
    13  H   -0.316562   0.451493
    14  H   -0.390864   0.535860
    15  H    0.413930  -0.222848
    16  H    0.002251   0.112061
    17  H   -0.156079   0.286184
    18  H   -0.246834   0.391647
    19  H    0.132114   0.001392
    20  H    0.038213   0.108171
    21  H    0.122163   0.019366
    22  H    0.074672   0.049010
    23  H   -0.183270   0.365826
    24  H   -0.044038   0.111849
    25  H   -0.564426   0.836073
    26  H   -0.296426   0.548644
    27  H    0.022175   0.252611
    28  H    0.175021   0.058694
    29  H    0.248065  -0.019231
 Sum of Mulliken charges =  -1.00000   1.00000

 Dipole moment (field-independent basis, Debye):
    X=              0.3746    Y=             -2.8744    Z=              6.4553  Tot=              7.0762
 Quadrupole moment (field-independent basis, Debye-Ang):
   XX=           -125.0185   YY=           -108.2266   ZZ=           -113.4729
   XY=             -0.2189   XZ=             -3.0440   YZ=              4.1666

 Summary of Natural Population Analysis:

                                       Natural Population
                Natural  -----------------------------------------------
    Atom  No    Charge         Core      Valence    Rydberg      Total
 -----------------------------------------------------------------------
      C    1   -0.28533      0.99965     2.27895    0.00673     3.28533
      C    2   -0.12274      0.99961     2.11273    0.01039     3.12274
      C    3   -0.28020      0.99965     2.27410    0.00645     3.28020
      C    4   -0.18780      0.99961     2.18027    0.00792     3.18780
      C    5   -0.18823      0.99962     2.17979    0.00882     3.18823
      C    6   -0.09511      0.99961     2.08307    0.01243     3.09511
      N    7   -0.31801      0.99962     2.80640    0.01199     3.81801
      C    8    0.30330      0.99959     1.68089    0.01623     2.69670
      N    9   -0.41620      0.99971     2.90585    0.01064     3.91620
      N   10   -0.24442      0.99968     2.73071    0.01403     3.74442
      N   11   -0.32459      0.99978     2.81390    0.01091     3.82459
      H   12    0.09200      0.00000     0.40706    0.00094     0.40800
      H   13    0.09978      0.00000     0.39897    0.00125     0.40022
      H   14    0.10176      0.00000     0.39709    0.00115     0.39824
      H   15    0.09681      0.00000     0.39918    0.00401     0.40319
      H   16    0.09139      0.00000     0.40768    0.00093     0.40861
      H   17    0.09860      0.00000     0.40035    0.00105     0.40140
      H   18    0.10071      0.00000     0.39833    0.00096     0.39929
      H   19    0.10086      0.00000     0.39754    0.00160     0.39914
      H   20    0.09180      0.00000     0.40717    0.00103     0.40820
      H   21    0.09486      0.00000     0.40403    0.00112     0.40514
      H   22    0.09476      0.00000     0.40418    0.00107     0.40524
      H   23    0.09276      0.00000     0.40602    0.00123     0.40724
      H   24    0.07929      0.00000     0.41824    0.00246     0.42071
      H   25    0.19783      0.00000     0.29136    0.01081     0.30217
      H   26    0.19521      0.00000     0.29919    0.00560     0.30479
      H   27    0.18289      0.00000     0.31477    0.00235     0.31711
      H   28    0.16902      0.00000     0.32844    0.00253     0.33098
      H   29    0.17901      0.00000     0.31839    0.00260     0.32099
 =======================================================================
   * Total *   -0.00000     10.99614    32.84466    0.15920    44.00000

 Normal termination of Gaussian 16 at Tue Dec  8 21:30:19 2020.
