 Gaussian 16, Revision A.03,

 -----------------------------------------------------------
 # opt freq B3LYP/6-31G(d) empiricaldispersion=gd3bj scf=xqc
 -----------------------------------------------------------

 ------------------------------
 CID_62951497_JID_2301_neutraal
 ------------------------------
 Symbolic Z-matrix:
 Charge =  0 Multiplicity = 1

 SCF Done:  E(RB3LYP) =  -569.407278375     A.U. after   14 cycles
 SCF Done:  E(RB3LYP) =  -569.411800274     A.U. after   12 cycles
 SCF Done:  E(RB3LYP) =  -569.412313497     A.U. after   12 cycles
 SCF Done:  E(RB3LYP) =  -569.412596069     A.U. after   12 cycles
 SCF Done:  E(RB3LYP) =  -569.412727738     A.U. after   12 cycles
 SCF Done:  E(RB3LYP) =  -569.412833214     A.U. after   11 cycles
 SCF Done:  E(RB3LYP) =  -569.412907051     A.U. after   11 cycles
 SCF Done:  E(RB3LYP) =  -569.412937192     A.U. after   10 cycles
 SCF Done:  E(RB3LYP) =  -569.412947990     A.U. after   10 cycles
 SCF Done:  E(RB3LYP) =  -569.412951704     A.U. after   10 cycles
 SCF Done:  E(RB3LYP) =  -569.412952197     A.U. after    8 cycles
 SCF Done:  E(RB3LYP) =  -569.412952289     A.U. after    7 cycles
 SCF Done:  E(RB3LYP) =  -569.412952330     A.U. after    6 cycles
 Optimization completed.
    -- Stationary point found.
 Normal termination of Gaussian 16 at Wed Dec  9 16:59:25 2020.

 --------------------------------------------------------------------
 #N Geom=AllCheck Guess=TCheck SCRF=Check GenChk RB3LYP/6-31G(d) Freq
 --------------------------------------------------------------------

 Structure from the checkpoint file:  "JID_2301.chk"
 ------------------------------
 CID_62951497_JID_2301_neutraal
 ------------------------------
 Charge =  0 Multiplicity = 1

 SCF Done:  E(RB3LYP) =  -569.412952330     A.U. after    1 cycles

  Exact polarizability: 118.828   8.538  91.673  -5.156   5.179  84.208
 Approx polarizability: 150.503  14.234 139.279 -11.366  16.474 132.453

                      1                      2                      3
                      A                      A                      A
 Frequencies --     31.8975                51.2068                65.5075
 Red. masses --      4.0591                 3.5832                 3.1713
 Frc consts  --      0.0024                 0.0055                 0.0080
 IR Inten    --      0.6679                 0.2345                 3.1060

                      4                      5                      6
                      A                      A                      A
 Frequencies --     97.5057               123.9784               146.4238
 Red. masses --      2.7828                 2.5628                 3.4106
 Frc consts  --      0.0156                 0.0232                 0.0431
 IR Inten    --      2.4986                 1.8802                 2.2146

                      7                      8                      9
                      A                      A                      A
 Frequencies --    168.7941               223.5795               232.8084
 Red. masses --      3.3636                 1.3266                 1.5597
 Frc consts  --      0.0565                 0.0391                 0.0498
 IR Inten    --      0.7117                 6.2081                56.7111

                     10                     11                     12
                      A                      A                      A
 Frequencies --    278.4812               307.9969               356.1323
 Red. masses --      2.2542                 1.9663                 2.1825
 Frc consts  --      0.1030                 0.1099                 0.1631
 IR Inten    --     16.8294                14.5797                 3.4991

                     13                     14                     15
                      A                      A                      A
 Frequencies --    383.0513               441.2361               469.1121
 Red. masses --      2.6264                 5.6985                 4.1014
 Frc consts  --      0.2271                 0.6537                 0.5318
 IR Inten    --      1.6090                 6.7592                 1.7626

                     16                     17                     18
                      A                      A                      A
 Frequencies --    497.7058               559.9608               668.4906
 Red. masses --      2.3941                 1.6718                 2.3824
 Frc consts  --      0.3494                 0.3089                 0.6273
 IR Inten    --      8.4954                59.1146                18.2317

                     19                     20                     21
                      A                      A                      A
 Frequencies --    715.5689               754.4283               758.9605
 Red. masses --      3.9080                 2.3521                 2.1822
 Frc consts  --      1.1790                 0.7887                 0.7406
 IR Inten    --      6.8337                 9.1826                 9.3761

                     22                     23                     24
                      A                      A                      A
 Frequencies --    790.0383               871.4253               887.3233
 Red. masses --      4.6063                 1.9935                 1.2810
 Frc consts  --      1.6939                 0.8919                 0.5943
 IR Inten    --     30.8781                 3.8415               129.4636

                     25                     26                     27
                      A                      A                      A
 Frequencies --    929.1817               944.9195              1018.4611
 Red. masses --      2.8109                 1.4017                 5.7297
 Frc consts  --      1.4299                 0.7374                 3.5017
 IR Inten    --     15.7491                 6.2869                 1.9243

                     28                     29                     30
                      A                      A                      A
 Frequencies --   1031.4042              1037.9801              1061.5231
 Red. masses --      2.4906                 2.1458                 2.6035
 Frc consts  --      1.5610                 1.3621                 1.7285
 IR Inten    --     30.5957                 8.0907                14.4227

                     31                     32                     33
                      A                      A                      A
 Frequencies --   1080.8050              1092.1507              1105.9084
 Red. masses --      3.0890                 2.1576                 2.3145
 Frc consts  --      2.1260                 1.5163                 1.6678
 IR Inten    --     29.4775                 1.6114                54.1821

                     34                     35                     36
                      A                      A                      A
 Frequencies --   1148.7305              1151.7146              1179.3829
 Red. masses --      2.3667                 2.2216                 2.3425
 Frc consts  --      1.8400                 1.7362                 1.9197
 IR Inten    --     25.0255                43.7393                35.9730

                     37                     38                     39
                      A                      A                      A
 Frequencies --   1185.6173              1272.2675              1296.2904
 Red. masses --      1.7131                 1.4926                 1.3035
 Frc consts  --      1.4188                 1.4234                 1.2906
 IR Inten    --      6.5373                32.6128                 3.8599

                     40                     41                     42
                      A                      A                      A
 Frequencies --   1309.4161              1316.4542              1349.1827
 Red. masses --      1.2442                 1.4070                 1.1423
 Frc consts  --      1.2568                 1.4366                 1.2251
 IR Inten    --      4.2187                11.7990                 4.6582

                     43                     44                     45
                      A                      A                      A
 Frequencies --   1381.7779              1386.3883              1397.6440
 Red. masses --      1.7171                 1.6000                 1.7203
 Frc consts  --      1.9316                 1.8120                 1.9799
 IR Inten    --     44.0853                14.2861                 0.4246

                     46                     47                     48
                      A                      A                      A
 Frequencies --   1429.8529              1437.0414              1456.0647
 Red. masses --      1.6097                 1.4391                 1.2318
 Frc consts  --      1.9389                 1.7510                 1.5387
 IR Inten    --     20.8783                14.4940                 7.9339

                     49                     50                     51
                      A                      A                      A
 Frequencies --   1486.5365              1511.7769              1524.0025
 Red. masses --      2.9985                 1.0911                 1.0857
 Frc consts  --      3.9039                 1.4693                 1.4857
 IR Inten    --     29.4660                 5.8080                 0.6919

                     52                     53                     54
                      A                      A                      A
 Frequencies --   1530.2463              1535.2693              1536.8991
 Red. masses --      1.0893                 1.0968                 1.0514
 Frc consts  --      1.5028                 1.5232                 1.4633
 IR Inten    --      0.2443                 0.9817                 8.7083

                     55                     56                     57
                      A                      A                      A
 Frequencies --   1542.5404              1555.8020              1598.9756
 Red. masses --      1.0833                 5.1144                 5.1423
 Frc consts  --      1.5188                 7.2938                 7.7462
 IR Inten    --      9.9197                 7.5257                28.2352

                     58                     59                     60
                      A                      A                      A
 Frequencies --   1690.3302              2949.6644              3012.3237
 Red. masses --      1.0878                 1.0739                 1.0705
 Frc consts  --      1.8312                 5.5050                 5.7235
 IR Inten    --     36.0600                72.1789                37.2705

                     61                     62                     63
                      A                      A                      A
 Frequencies --   3044.0505              3052.4415              3064.0906
 Red. masses --      1.0618                 1.0396                 1.0577
 Frc consts  --      5.7970                 5.7073                 5.8506
 IR Inten    --     23.2562                19.7389                22.9047

                     64                     65                     66
                      A                      A                      A
 Frequencies --   3076.6857              3101.7999              3103.6346
 Red. masses --      1.1009                 1.1069                 1.0877
 Frc consts  --      6.1401                 6.2747                 6.1733
 IR Inten    --     20.8616                19.3734                21.0675

                     67                     68                     69
                      A                      A                      A
 Frequencies --   3112.3948              3113.4671              3139.1517
 Red. masses --      1.0951                 1.1007                 1.1005
 Frc consts  --      6.2499                 6.2863                 6.3896
 IR Inten    --     47.3825                36.5337                21.9360

                     70                     71                     72
                      A                      A                      A
 Frequencies --   3466.2561              3554.4971              3657.8872
 Red. masses --      1.0496                 1.0925                 1.0816
 Frc consts  --      7.4299                 8.1329                 8.5269
 IR Inten    --      3.8948                 0.6403                73.2265

 - Thermochemistry -
 -------------------
 Temperature   298.150 Kelvin.  Pressure   1.00000 Atm.
 Atom     1 has atomic number  6 and mass  12.00000

 Molecular mass:   170.11676 amu.
 Principal axes and moments of inertia in atomic units:
                           1         2         3
     Eigenvalues --  1066.846273541.149334015.53010
           X            0.99999  -0.00320   0.00390
           Y            0.00324   0.99994  -0.01067
           Z           -0.00387   0.01068   0.99994
 This molecule is an asymmetric top.
 Rotational symmetry number  1.
 Warning -- assumption of classical behavior for rotation
           may cause significant error
 Rotational temperatures (Kelvin)      0.08119     0.02446     0.02157
 Rotational constants (GHZ):           1.69166     0.50965     0.44944
 Zero-point vibrational energy     591209.4 (Joules/Mol)
                                  141.30244 (Kcal/Mol)
 Warning -- explicit consideration of  17 degrees of freedom as
           vibrations may cause significant error
 Vibrational temperatures:     45.89    73.68    94.25   140.29   178.38
          (Kelvin)            210.67   242.86   321.68   334.96   400.67
                              443.14   512.40   551.13   634.84   674.95
                              716.09   805.66   961.81  1029.54  1085.45
                             1091.97  1136.69  1253.79  1276.66  1336.89
                             1359.53  1465.34  1483.96  1493.42  1527.29
                             1555.04  1571.36  1591.16  1652.77  1657.06
                             1696.87  1705.84  1830.51  1865.07  1883.96
                             1894.08  1941.17  1988.07  1994.70  2010.90
                             2057.24  2067.58  2094.95  2138.79  2175.11
                             2192.70  2201.68  2208.91  2211.25  2219.37
                             2238.45  2300.57  2432.01  4243.91  4334.06
                             4379.71  4391.78  4408.54  4426.66  4462.80
                             4465.44  4478.04  4479.58  4516.54  4987.17
                             5114.13  5262.88

 Zero-point correction=                           0.225180 (Hartree/Particle)
 Thermal correction to Energy=                    0.237841
 Thermal correction to Enthalpy=                  0.238785
 Thermal correction to Gibbs Free Energy=         0.184901
 Sum of electronic and zero-point Energies=           -569.187773
 Sum of electronic and thermal Energies=              -569.175112
 Sum of electronic and thermal Enthalpies=            -569.174167
 Sum of electronic and thermal Free Energies=         -569.228051

                     E (Thermal)             CV                S
                      KCal/Mol        Cal/Mol-Kelvin    Cal/Mol-Kelvin
 Total                  149.247             45.526            113.409
 Electronic               0.000              0.000              0.000
 Translational            0.889              2.981             41.302
 Rotational               0.889              2.981             31.096
 Vibrational            147.470             39.564             41.011
 Vibration     1          0.594              1.983              5.708
 Vibration     2          0.595              1.977              4.770
 Vibration     3          0.597              1.971              4.284
 Vibration     4          0.603              1.951              3.504
 Vibration     5          0.610              1.929              3.037
 Vibration     6          0.617              1.907              2.718
 Vibration     7          0.625              1.881              2.449
 Vibration     8          0.649              1.805              1.930
 Vibration     9          0.654              1.791              1.857
 Vibration    10          0.679              1.713              1.543
 Vibration    11          0.698              1.659              1.373
 Vibration    12          0.732              1.563              1.139
 Vibration    13          0.752              1.506              1.027
 Vibration    14          0.801              1.380              0.823
 Vibration    15          0.826              1.319              0.740
 Vibration    16          0.853              1.255              0.664
 Vibration    17          0.916              1.118              0.524

                           ! Non-Optimized Parameters !
 Normal termination of Gaussian 16 at Wed Dec  9 17:05:14 2020.

 ----------------------------------------------------------------------
 # B3LYP/6-311++G(d,p) empiricaldispersion=gd3bj scf=xqc pop=npa geom=c
 heck
 ----------------------------------------------------------------------

 --------------------------------------
 CID_62951497_JID_2301_Energie_neutraal
 --------------------------------------
 Structure from the checkpoint file:  "JID_2301.chk"
 Charge =  0 Multiplicity = 1

 SCF Done:  E(RB3LYP) =  -569.584421770     A.U. after   14 cycles
 Normal termination of Gaussian 16 at Wed Dec  9 17:07:56 2020.

 ----------------------------------------------------------------------
 # B3LYP/6-311++G(d,p) empiricaldispersion=gd3bj scf=xqc pop=npa geom=c
 heck
 ----------------------------------------------------------------------

 ------------------------------------
 CID_62951497_JID_2301_Energie_kation
 ------------------------------------
 Structure from the checkpoint file:  "JID_2301.chk"
 Charge =  1 Multiplicity = 2

 SCF Done:  E(UB3LYP) =  -569.260908719     A.U. after   25 cycles
 Normal termination of Gaussian 16 at Wed Dec  9 17:14:31 2020.
 Gaussian 16:  ES64L-G16RevA.03 25-Dec-2016

 ----------------------------------------------------------------------
 # B3LYP/6-311++G(d,p) empiricaldispersion=gd3bj scf=xqc pop=npa geom=c
 heck
 ----------------------------------------------------------------------

 -----------------------------------
 CID_62951497_JID_2301_Energie_anion
 -----------------------------------
 Structure from the checkpoint file:  "JID_2301.chk"
 Charge = -1 Multiplicity = 2

                         Standard orientation:
 ---------------------------------------------------------------------
 Center     Atomic      Atomic             Coordinates (Angstroms)
 Number     Number       Type             X           Y           Z
 ---------------------------------------------------------------------
      1          6           0       -2.070625    2.164546   -0.304354
      2          6           0       -3.149524    1.078482   -0.199160
      3          6           0       -2.698406   -0.328174   -0.627155
      4          8           0       -2.307739   -1.194601    0.445845
      5          6           0       -1.231600   -0.737948    1.245911
      6          6           0        0.054589   -0.656683    0.480759
      7          7           0        0.993979    0.271436    0.572649
      8          6           0        1.941005   -0.142428   -0.329968
      9          7           0        1.634496   -1.258690   -0.977091
     10          7           0        0.423295   -1.572764   -0.442105
     11          6           0        3.200950    0.630086   -0.562250
     12          7           0        3.882402    0.858237    0.718587
     13          1           0       -1.178775    1.939356    0.287867
     14          1           0       -2.461343    3.133214    0.026425
     15          1           0       -1.743415    2.278050   -1.344840
     16          1           0       -3.548439    1.013948    0.821520
     17          1           0       -3.997235    1.368277   -0.833101
     18          1           0       -3.525564   -0.868464   -1.095380
     19          1           0       -1.886420   -0.253935   -1.366990
     20          1           0       -1.425105    0.237926    1.705312
     21          1           0       -1.145145   -1.471785    2.055047
     22          1           0       -0.089744   -2.381476   -0.762500
     23          1           0        3.848309    0.043931   -1.221607
     24          1           0        2.939332    1.559158   -1.101578
     25          1           0        4.639619    1.525608    0.581541
     26          1           0        3.218306    1.298182    1.354541
 ---------------------------------------------------------------------

 SCF Done:  E(UB3LYP) =  -569.570452078     A.U. after   30 cycles

 The electronic state is 2-A.
 Alpha  occ. eigenvalues --  -19.03715 -14.29315 -14.23935 -14.20831 -14.19642
 Alpha  occ. eigenvalues --  -10.14691 -10.13885 -10.12491 -10.11723 -10.10322
 Alpha  occ. eigenvalues --  -10.07112 -10.05905  -0.98029  -0.94556  -0.80579
 Alpha  occ. eigenvalues --   -0.78403  -0.74055  -0.68511  -0.63639  -0.59740
 Alpha  occ. eigenvalues --   -0.56926  -0.52630  -0.49992  -0.48102  -0.43871
 Alpha  occ. eigenvalues --   -0.40503  -0.40476  -0.39242  -0.37425  -0.36162
 Alpha  occ. eigenvalues --   -0.34461  -0.32768  -0.31872  -0.31521  -0.30728
 Alpha  occ. eigenvalues --   -0.28513  -0.27956  -0.25534  -0.24198  -0.23817
 Alpha  occ. eigenvalues --   -0.21925  -0.20127  -0.18778  -0.17673  -0.16709
 Alpha  occ. eigenvalues --   -0.14759   0.04421
 Alpha virt. eigenvalues --    0.06121   0.07007   0.07712   0.08480   0.08965
 Alpha virt. eigenvalues --    0.09528   0.09877   0.10418   0.11447   0.11568
 Alpha virt. eigenvalues --    0.11952   0.13183   0.13492   0.13897   0.15330

  Beta  occ. eigenvalues --  -19.03711 -14.29266 -14.23893 -14.20828 -14.19611
  Beta  occ. eigenvalues --  -10.14681 -10.13866 -10.12490 -10.11697 -10.10309
  Beta  occ. eigenvalues --  -10.07088 -10.05881  -0.97980  -0.94542  -0.80534
  Beta  occ. eigenvalues --   -0.78357  -0.73984  -0.68464  -0.63589  -0.59670
  Beta  occ. eigenvalues --   -0.56863  -0.52574  -0.49929  -0.48054  -0.43810
  Beta  occ. eigenvalues --   -0.40459  -0.40410  -0.39193  -0.37363  -0.36124
  Beta  occ. eigenvalues --   -0.34384  -0.32735  -0.31832  -0.31462  -0.30694
  Beta  occ. eigenvalues --   -0.28476  -0.27922  -0.25478  -0.24159  -0.23762
  Beta  occ. eigenvalues --   -0.21897  -0.20054  -0.18751  -0.17640  -0.16590
  Beta  occ. eigenvalues --   -0.14711
  Beta virt. eigenvalues --    0.06670   0.07221   0.07896   0.08354   0.09041
  Beta virt. eigenvalues --    0.09331   0.09890   0.10246   0.10942   0.11881
  Beta virt. eigenvalues --    0.11959   0.12271   0.13300   0.13668   0.14000

 Mulliken charges and spin densities:
               1          2
     1  C    0.288827  -0.810973
     2  C    0.208363  -0.387293
     3  C    0.135628  -0.392591
     4  O   -0.132505   0.035292
     5  C    0.167532  -1.067669
     6  C    0.675167  -0.401229
     7  N   -0.102264   0.102967
     8  C   -0.326797   0.482842
     9  N   -0.228105   0.198390
    10  N   -0.183672  -0.008512
    11  C    0.642796  -1.083505
    12  N   -0.406463   0.027406
    13  H    0.022080   0.112713
    14  H   -0.155618   0.287478
    15  H   -0.038088   0.188683
    16  H    0.054888   0.100864
    17  H   -0.426609   0.583862
    18  H   -0.835608   1.042448
    19  H    0.075320   0.043269
    20  H    0.099339   0.099935
    21  H   -0.296822   0.481405
    22  H   -0.093128   0.438276
    23  H    0.032677   0.137296
    24  H   -0.225895   0.366085
    25  H   -0.117630   0.355593
    26  H    0.166586   0.066967
 Sum of Mulliken charges =  -1.00000   1.00000

 Dipole moment (field-independent basis, Debye):
    X=              1.1632    Y=             -0.0299    Z=              1.2656  Tot=              1.7192
 Quadrupole moment (field-independent basis, Debye-Ang):
   XX=           -154.2356   YY=           -114.5475   ZZ=           -102.6613
   XY=             -3.0499   XZ=             -9.2827   YZ=              1.0926

 Summary of Natural Population Analysis:

                                       Natural Population
                Natural  -----------------------------------------------
    Atom  No    Charge         Core      Valence    Rydberg      Total
 -----------------------------------------------------------------------
      C    1   -0.29040      0.99966     2.28485    0.00590     3.29040
      C    2   -0.21078      0.99964     2.20361    0.00753     3.21078
      C    3   -0.01151      0.99957     1.99841    0.01353     3.01151
      O    4   -0.29846      0.99989     3.28811    0.01046     4.29846
      C    5   -0.03100      0.99953     2.01836    0.01312     3.03100
      C    6    0.18222      0.99962     1.80204    0.01612     2.81778
      N    7   -0.27350      0.99967     2.76498    0.00885     3.77350
      C    8    0.17259      0.99965     1.80897    0.01879     2.82741
      N    9   -0.15614      0.99970     2.64479    0.01165     3.65614
      N   10   -0.17464      0.99964     2.66281    0.01218     3.67464
      C   11   -0.10677      0.99959     2.09551    0.01166     3.10677
      N   12   -0.41881      0.99978     2.90893    0.01010     3.91881
      H   13    0.10269      0.00000     0.39570    0.00161     0.39731
      H   14    0.09784      0.00000     0.40121    0.00095     0.40216
      H   15    0.09729      0.00000     0.40151    0.00121     0.40271
      H   16    0.09786      0.00000     0.40098    0.00116     0.40214
      H   17    0.10273      0.00000     0.39519    0.00208     0.39727
      H   18    0.09554      0.00000     0.40176    0.00270     0.40446
      H   19    0.07839      0.00000     0.41947    0.00214     0.42161
      H   20    0.09410      0.00000     0.40430    0.00160     0.40590
      H   21    0.10315      0.00000     0.39503    0.00181     0.39685
      H   22    0.20802      0.00000     0.28795    0.00403     0.29198
      H   23    0.09881      0.00000     0.39970    0.00149     0.40119
      H   24    0.08815      0.00000     0.41007    0.00178     0.41185
      H   25    0.17375      0.00000     0.32371    0.00254     0.32625
      H   26    0.17886      0.00000     0.31880    0.00234     0.32114
 =======================================================================
   * Total *   -0.00000     11.99593    33.83676    0.16731    46.00000

 Normal termination of Gaussian 16 at Wed Dec  9 17:22:03 2020.
