 Gaussian 16, Revision A.03,

 -----------------------------------------------------------
 # opt freq B3LYP/6-31G(d) empiricaldispersion=gd3bj scf=xqc
 -----------------------------------------------------------

 -----------------------------
 CID_57289871_JID_203_neutraal
 -----------------------------
 Symbolic Z-matrix:
 Charge =  0 Multiplicity = 1

 SCF Done:  E(RB3LYP) =  -461.148555166     A.U. after   14 cycles
 SCF Done:  E(RB3LYP) =  -461.150707359     A.U. after   12 cycles
 SCF Done:  E(RB3LYP) =  -461.150869556     A.U. after   12 cycles
 SCF Done:  E(RB3LYP) =  -461.150958743     A.U. after   12 cycles
 SCF Done:  E(RB3LYP) =  -461.151054001     A.U. after   11 cycles
 SCF Done:  E(RB3LYP) =  -461.151069612     A.U. after   10 cycles
 SCF Done:  E(RB3LYP) =  -461.151073547     A.U. after   10 cycles
 SCF Done:  E(RB3LYP) =  -461.151075728     A.U. after    9 cycles
 SCF Done:  E(RB3LYP) =  -461.151077555     A.U. after    9 cycles
 SCF Done:  E(RB3LYP) =  -461.151079870     A.U. after    8 cycles
 SCF Done:  E(RB3LYP) =  -461.151082138     A.U. after   10 cycles
 SCF Done:  E(RB3LYP) =  -461.151084649     A.U. after    9 cycles
 SCF Done:  E(RB3LYP) =  -461.151086113     A.U. after   10 cycles
 SCF Done:  E(RB3LYP) =  -461.151086395     A.U. after    8 cycles
 SCF Done:  E(RB3LYP) =  -461.151086488     A.U. after    8 cycles
 Optimization completed.
    -- Stationary point found.
 Normal termination of Gaussian 16 at Tue Dec  8 10:22:37 2020.

 --------------------------------------------------------------------
 #N Geom=AllCheck Guess=TCheck SCRF=Check GenChk RB3LYP/6-31G(d) Freq
 --------------------------------------------------------------------

 Structure from the checkpoint file:  "JID_203.chk"
 -----------------------------
 CID_57289871_JID_203_neutraal
 -----------------------------
 Charge =  0 Multiplicity = 1

 SCF Done:  E(RB3LYP) =  -461.151086488     A.U. after    1 cycles

  Exact polarizability:  94.298   1.654  87.154  -0.288   3.956  86.476
 Approx polarizability: 114.632   2.535 123.023   1.226   4.668 136.403

                      1                      2                      3
                      A                      A                      A
 Frequencies --     39.6427                46.1946                83.3115
 Red. masses --      2.9394                 3.7350                 2.8340
 Frc consts  --      0.0027                 0.0047                 0.0116
 IR Inten    --      2.7303                 5.7037                 4.7564

                      4                      5                      6
                      A                      A                      A
 Frequencies --    119.7405               160.9678               181.0182
 Red. masses --      2.0755                 3.1822                 2.7712
 Frc consts  --      0.0175                 0.0486                 0.0535
 IR Inten    --      1.8206                 3.1940                 2.1298

                      7                      8                      9
                      A                      A                      A
 Frequencies --    217.8653               236.1397               243.3928
 Red. masses --      1.2216                 1.7464                 1.2011
 Frc consts  --      0.0342                 0.0574                 0.0419
 IR Inten    --    213.9131                 7.0958                 6.0608

                     10                     11                     12
                      A                      A                      A
 Frequencies --    268.0558               271.0240               315.2745
 Red. masses --      1.0825                 1.7839                 2.1063
 Frc consts  --      0.0458                 0.0772                 0.1234
 IR Inten    --      1.1548                 1.4140                 2.9167

                     13                     14                     15
                      A                      A                      A
 Frequencies --    369.4598               381.2803               414.3304
 Red. masses --      3.2469                 2.9162                 2.2270
 Frc consts  --      0.2611                 0.2498                 0.2252
 IR Inten    --      1.4323                 8.4460                 1.4286

                     16                     17                     18
                      A                      A                      A
 Frequencies --    471.2876               500.1363               595.2340
 Red. masses --      2.4912                 2.6038                 1.2511
 Frc consts  --      0.3260                 0.3837                 0.2612
 IR Inten    --      3.5293                 3.2955                14.0278

                     19                     20                     21
                      A                      A                      A
 Frequencies --    641.1109               730.3202               766.9096
 Red. masses --      3.2074                 2.0036                 1.9824
 Frc consts  --      0.7767                 0.6296                 0.6869
 IR Inten    --     12.4449                 7.7635                 6.9635

                     22                     23                     24
                      A                      A                      A
 Frequencies --    829.3631               875.0806               897.2557
 Red. masses --      2.0295                 3.4806                 2.5726
 Frc consts  --      0.8225                 1.5704                 1.2203
 IR Inten    --      6.4162                 2.5674                 2.4865

                     25                     26                     27
                      A                      A                      A
 Frequencies --    937.6857              1019.3511              1066.6026
 Red. masses --      1.5097                 1.7864                 2.3707
 Frc consts  --      0.7821                 1.0936                 1.5890
 IR Inten    --      4.8218                 9.9222                27.2679

                     28                     29                     30
                      A                      A                      A
 Frequencies --   1073.8294              1080.0241              1098.5273
 Red. masses --      1.7172                 1.6187                 2.2917
 Frc consts  --      1.1667                 1.1124                 1.6294
 IR Inten    --      4.5780                14.2005                 7.7715

                     31                     32                     33
                      A                      A                      A
 Frequencies --   1133.7687              1138.9975              1157.7128
 Red. masses --      1.5121                 1.4843                 2.0471
 Frc consts  --      1.1452                 1.1346                 1.6165
 IR Inten    --      1.4013                 8.5374                 5.2511

                     34                     35                     36
                      A                      A                      A
 Frequencies --   1202.1779              1228.5551              1261.2941
 Red. masses --      1.4552                 2.1568                 1.4336
 Frc consts  --      1.2391                 1.9180                 1.3438
 IR Inten    --      4.6733                21.9405                19.5832

                     37                     38                     39
                      A                      A                      A
 Frequencies --   1298.8123              1313.0124              1326.6831
 Red. masses --      1.6618                 2.3348                 1.3931
 Frc consts  --      1.6516                 2.3715                 1.4446
 IR Inten    --     51.3123                14.5280                19.4855

                     40                     41                     42
                      A                      A                      A
 Frequencies --   1376.1027              1395.7792              1420.3325
 Red. masses --      1.3920                 1.4977                 1.5225
 Frc consts  --      1.5531                 1.7191                 1.8096
 IR Inten    --      1.0668                 7.7238                 6.8898

                     43                     44                     45
                      A                      A                      A
 Frequencies --   1427.0047              1443.1600              1471.7981
 Red. masses --      1.5428                 1.2689                 1.1532
 Frc consts  --      1.8511                 1.5571                 1.4719
 IR Inten    --     17.6623                 4.9372                 1.5779

                     46                     47                     48
                      A                      A                      A
 Frequencies --   1499.8070              1510.7021              1512.6951
 Red. masses --      1.1590                 1.0907                 1.0531
 Frc consts  --      1.5361                 1.4666                 1.4198
 IR Inten    --      0.9588                 2.5564                11.1318

                     49                     50                     51
                      A                      A                      A
 Frequencies --   1523.3340              1528.1510              1530.9671
 Red. masses --      1.0532                 1.0575                 1.0532
 Frc consts  --      1.4400                 1.4549                 1.4544
 IR Inten    --      0.9034                11.2066                 7.0418

                     52                     53                     54
                      A                      A                      A
 Frequencies --   1533.7545              1540.8653              1547.2252
 Red. masses --      1.0620                 1.0620                 1.0520
 Frc consts  --      1.4719                 1.4856                 1.4838
 IR Inten    --      3.6328                 6.0009                 5.1932

                     55                     56                     57
                      A                      A                      A
 Frequencies --   1642.0216              1791.9356              2950.1524
 Red. masses --      1.2414                 8.3792                 1.0594
 Frc consts  --      1.9721                15.8525                 5.4327
 IR Inten    --     93.2108               222.4672                76.8089

                     58                     59                     60
                      A                      A                      A
 Frequencies --   3001.8619              3041.4939              3047.3574
 Red. masses --      1.0535                 1.0486                 1.0589
 Frc consts  --      5.5934                 5.7151                 5.7936
 IR Inten    --     57.6194                 2.5390                38.4579

                     61                     62                     63
                      A                      A                      A
 Frequencies --   3049.7030              3057.9107              3066.3963
 Red. masses --      1.0741                 1.0677                 1.0731
 Frc consts  --      5.8857                 5.8824                 5.9450
 IR Inten    --     29.4430                 8.5699                45.1539

                     64                     65                     66
                      A                      A                      A
 Frequencies --   3079.3975              3087.2104              3109.7202
 Red. masses --      1.0967                 1.0868                 1.1016
 Frc consts  --      6.1273                 6.1027                 6.2766
 IR Inten    --      9.4486                44.9133                31.2642

                     67                     68                     69
                      A                      A                      A
 Frequencies --   3111.2122              3113.2993              3118.0808
 Red. masses --      1.1020                 1.1016                 1.1006
 Frc consts  --      6.2851                 6.2909                 6.3046
 IR Inten    --     63.6122                49.7392                29.2376

                     70                     71                     72
                      A                      A                      A
 Frequencies --   3155.1737              3583.3061              3714.5174
 Red. masses --      1.0963                 1.0456                 1.1039
 Frc consts  --      6.4303                 7.9102                 8.9740
 IR Inten    --     24.7417                27.3519                23.5712

 - Thermochemistry -
 -------------------
 Temperature   298.150 Kelvin.  Pressure   1.00000 Atm.
 Atom     1 has atomic number  6 and mass  12.00000

 Molecular mass:   144.12626 amu.
 Principal axes and moments of inertia in atomic units:
                           1         2         3
     Eigenvalues --  1115.861951902.921192147.01810
           X            0.99999  -0.00160   0.00310
           Y            0.00124   0.99383   0.11091
           Z           -0.00325  -0.11091   0.99383
 This molecule is an asymmetric top.
 Rotational symmetry number  1.
 Warning -- assumption of classical behavior for rotation
           may cause significant error
 Rotational temperatures (Kelvin)      0.07762     0.04552     0.04034
 Rotational constants (GHZ):           1.61735     0.94841     0.84058
 Zero-point vibrational energy     615920.5 (Joules/Mol)
                                  147.20852 (Kcal/Mol)
 Warning -- explicit consideration of  18 degrees of freedom as
           vibrations may cause significant error
 Vibrational temperatures:     57.04    66.46   119.87   172.28   231.60
          (Kelvin)            260.44   313.46   339.75   350.19   385.67
                              389.94   453.61   531.57   548.58   596.13
                              678.08   719.58   856.41   922.42  1050.77
                             1103.41  1193.27  1259.05  1290.95  1349.12
                             1466.62  1534.60  1545.00  1553.91  1580.54
                             1631.24  1638.76  1665.69  1729.67  1767.62
                             1814.72  1868.70  1889.13  1908.80  1979.90
                             2008.21  2043.54  2053.14  2076.39  2117.59
                             2157.89  2173.56  2176.43  2191.74  2198.67
                             2202.72  2206.73  2216.96  2226.11  2362.50
                             2578.20  4244.61  4319.01  4376.03  4384.47
                             4387.84  4399.65  4411.86  4430.57  4441.81
                             4474.19  4476.34  4479.34  4486.22  4539.59
                             5155.58  5344.36

 Zero-point correction=                           0.234592 (Hartree/Particle)
 Thermal correction to Energy=                    0.247183
 Thermal correction to Enthalpy=                  0.248127
 Thermal correction to Gibbs Free Energy=         0.195803
 Sum of electronic and zero-point Energies=           -460.916495
 Sum of electronic and thermal Energies=              -460.903903
 Sum of electronic and thermal Enthalpies=            -460.902959
 Sum of electronic and thermal Free Energies=         -460.955284

                     E (Thermal)             CV                S
                      KCal/Mol        Cal/Mol-Kelvin    Cal/Mol-Kelvin
 Total                  155.110             45.204            110.126
 Electronic               0.000              0.000              0.000
 Translational            0.889              2.981             40.808
 Rotational               0.889              2.981             29.901
 Vibrational            153.332             39.243             39.418
 Vibration     1          0.594              1.981              5.277
 Vibration     2          0.595              1.979              4.974
 Vibration     3          0.600              1.961              3.811
 Vibration     4          0.609              1.933              3.105
 Vibration     5          0.622              1.890              2.538
 Vibration     6          0.630              1.866              2.318
 Vibration     7          0.646              1.814              1.977
 Vibration     8          0.655              1.785              1.832
 Vibration     9          0.659              1.774              1.778
 Vibration    10          0.673              1.732              1.609
 Vibration    11          0.675              1.727              1.590
 Vibration    12          0.703              1.644              1.335
 Vibration    13          0.742              1.535              1.082
 Vibration    14          0.751              1.510              1.034
 Vibration    15          0.778              1.439              0.911
 Vibration    16          0.828              1.314              0.734
 Vibration    17          0.856              1.250              0.658
 Vibration    18          0.953              1.042              0.458

 Optimization completed.
    -- Stationary point found.
 Normal termination of Gaussian 16 at Tue Dec  8 10:27:36 2020.

 ----------------------------------------------------------------------
 # B3LYP/6-311++G(d,p) empiricaldispersion=gd3bj scf=xqc pop=npa geom=c
 heck
 ----------------------------------------------------------------------

 -------------------------------------
 CID_57289871_JID_203_Energie_neutraal
 -------------------------------------
 Structure from the checkpoint file:  "JID_203.chk"
 Charge =  0 Multiplicity = 1

 SCF Done:  E(RB3LYP) =  -461.293978414     A.U. after   15 cycles
 Normal termination of Gaussian 16 at Tue Dec  8 10:29:52 2020.

 ----------------------------------------------------------------------
 # B3LYP/6-311++G(d,p) empiricaldispersion=gd3bj scf=xqc pop=npa geom=c
 heck
 ----------------------------------------------------------------------

 -----------------------------------
 CID_57289871_JID_203_Energie_kation
 -----------------------------------
 Structure from the checkpoint file:  "JID_203.chk"
 Charge =  1 Multiplicity = 2

 SCF Done:  E(UB3LYP) =  -461.003411434     A.U. after   19 cycles
 Normal termination of Gaussian 16 at Tue Dec  8 10:34:41 2020.
 Gaussian 16:  ES64L-G16RevA.03 25-Dec-2016

 ----------------------------------------------------------------------
 # B3LYP/6-311++G(d,p) empiricaldispersion=gd3bj scf=xqc pop=npa geom=c
 heck
 ----------------------------------------------------------------------

 ----------------------------------
 CID_57289871_JID_203_Energie_anion
 ----------------------------------
 Structure from the checkpoint file:  "JID_203.chk"
 Charge = -1 Multiplicity = 2

                         Standard orientation:
 ---------------------------------------------------------------------
 Center     Atomic      Atomic             Coordinates (Angstroms)
 Number     Number       Type             X           Y           Z
 ---------------------------------------------------------------------
      1          6           0        2.998358   -0.350177    0.913514
      2          6           0        2.389842   -0.522187   -0.482086
      3          6           0        0.966521   -1.100098   -0.494882
      4          6           0       -0.053354   -0.254204    0.273438
      5          6           0       -0.174719    1.139825   -0.370847
      6          8           0       -0.307508    1.294691   -1.578521
      7          7           0       -0.156310    2.195407    0.499836
      8          7           0       -1.359038   -0.923152    0.383943
      9          6           0       -2.230079   -0.303575    1.371166
     10          6           0       -2.066925   -1.146053   -0.874325
     11          1           0        2.479281    0.422537    1.492076
     12          1           0        4.050446   -0.051630    0.848122
     13          1           0        2.950621   -1.284973    1.485945
     14          1           0        2.391781    0.440892   -1.007647
     15          1           0        3.029618   -1.190037   -1.072511
     16          1           0        0.642745   -1.185809   -1.536145
     17          1           0        0.957160   -2.105291   -0.056122
     18          1           0        0.300627   -0.139500    1.305299
     19          1           0       -0.178197    2.061422    1.498971
     20          1           0       -0.356822    3.117070    0.135075
     21          1           0       -2.595939    0.700745    1.085004
     22          1           0       -3.105683   -0.942441    1.529539
     23          1           0       -1.701102   -0.215886    2.327791
     24          1           0       -2.416553   -0.218465   -1.355753
     25          1           0       -1.423524   -1.670097   -1.583148
     26          1           0       -2.934811   -1.783044   -0.670646
 ---------------------------------------------------------------------

 SCF Done:  E(UB3LYP) =  -461.282778050     A.U. after   30 cycles

 The electronic state is 2-A.
 Alpha  occ. eigenvalues --  -18.98070 -14.21999 -14.20586 -10.16128 -10.09886
 Alpha  occ. eigenvalues --  -10.08052 -10.07745 -10.06418 -10.06147 -10.05341
 Alpha  occ. eigenvalues --   -0.93015  -0.82105  -0.79155  -0.69491  -0.62947
 Alpha  occ. eigenvalues --   -0.60201  -0.56193  -0.51397  -0.48899  -0.45278
 Alpha  occ. eigenvalues --   -0.41515  -0.39589  -0.38410  -0.35660  -0.33910
 Alpha  occ. eigenvalues --   -0.33659  -0.32066  -0.30861  -0.28993  -0.28758
 Alpha  occ. eigenvalues --   -0.27566  -0.27127  -0.26231  -0.25998  -0.23102
 Alpha  occ. eigenvalues --   -0.23018  -0.22022  -0.16533  -0.16218  -0.10837
 Alpha  occ. eigenvalues --    0.04627
 Alpha virt. eigenvalues --    0.07262   0.07663   0.08708   0.09701   0.09847
 Alpha virt. eigenvalues --    0.10598   0.10975   0.11787   0.12319   0.12600
 Alpha virt. eigenvalues --    0.13098   0.13404   0.14197   0.14877   0.15431

  Beta  occ. eigenvalues --  -18.98062 -14.21916 -14.20580 -10.16126 -10.09867
  Beta  occ. eigenvalues --  -10.08039 -10.07699 -10.06411 -10.06143 -10.05304
  Beta  occ. eigenvalues --   -0.92994  -0.82081  -0.79044  -0.69467  -0.62905
  Beta  occ. eigenvalues --   -0.60153  -0.56131  -0.51316  -0.48831  -0.45163
  Beta  occ. eigenvalues --   -0.41447  -0.39545  -0.38379  -0.35625  -0.33879
  Beta  occ. eigenvalues --   -0.33630  -0.32035  -0.30836  -0.28965  -0.28724
  Beta  occ. eigenvalues --   -0.27525  -0.27094  -0.26186  -0.25967  -0.23077
  Beta  occ. eigenvalues --   -0.22997  -0.21990  -0.16481  -0.16174  -0.10806
  Beta virt. eigenvalues --    0.07084   0.07947   0.08520   0.09336   0.10104
  Beta virt. eigenvalues --    0.10237   0.10978   0.11445   0.12125   0.12661
  Beta virt. eigenvalues --    0.12888   0.13364   0.14014   0.14404   0.15108

 Mulliken charges and spin densities:
               1          2
     1  C    0.853585  -1.463506
     2  C   -1.241503   1.075265
     3  C    0.285085  -0.806371
     4  C   -0.388916   0.283741
     5  C    0.434866  -0.719196
     6  O   -0.349876   0.014127
     7  N   -0.403816   0.119759
     8  N    0.105122   0.103366
     9  C    1.105821  -1.372563
    10  C    0.080219  -0.406348
    11  H   -0.511498   0.666240
    12  H   -0.422339   0.555352
    13  H   -0.003952   0.132782
    14  H    0.206705  -0.051875
    15  H   -0.116445   0.266087
    16  H    0.194341  -0.047229
    17  H    0.081314   0.091073
    18  H    0.844014  -0.573946
    19  H   -0.456217   0.737042
    20  H   -0.258339   0.544628
    21  H   -0.172623   0.318527
    22  H   -0.197947   0.330611
    23  H   -0.837948   0.969660
    24  H    0.086556   0.064221
    25  H    0.041876   0.081588
    26  H    0.041916   0.086964
 Sum of Mulliken charges =  -1.00000   1.00000

 Dipole moment (field-independent basis, Debye):
    X=              0.0759    Y=             -4.6259    Z=             -5.1965  Tot=              6.9576
 Quadrupole moment (field-independent basis, Debye-Ang):
   XX=           -110.0063   YY=           -103.0158   ZZ=           -108.6017
   XY=              1.4547   XZ=              0.2687   YZ=             -4.5541

 Summary of Natural Population Analysis:

                                       Natural Population
                Natural  -----------------------------------------------
    Atom  No    Charge         Core      Valence    Rydberg      Total
 -----------------------------------------------------------------------
      C    1   -0.28825      0.99967     2.28353    0.00506     3.28825
      C    2   -0.19114      0.99964     2.18333    0.00817     3.19114
      C    3   -0.19226      0.99961     2.18291    0.00974     3.19226
      C    4   -0.04344      0.99952     2.02740    0.01652     3.04344
      C    5    0.33082      0.99966     1.64442    0.02509     2.66918
      O    6   -0.33041      0.99988     3.32426    0.00628     4.33041
      N    7   -0.39718      0.99970     2.88795    0.00952     3.89718
      N    8   -0.27340      0.99973     2.76087    0.01280     3.77340
      C    9   -0.17812      0.99964     2.16909    0.00938     3.17812
      C   10   -0.17734      0.99964     2.17074    0.00696     3.17734
      H   11    0.10145      0.00000     0.39698    0.00158     0.39855
      H   12    0.09808      0.00000     0.40096    0.00096     0.40192
      H   13    0.09427      0.00000     0.40461    0.00112     0.40573
      H   14    0.09926      0.00000     0.39969    0.00104     0.40074
      H   15    0.09290      0.00000     0.40619    0.00091     0.40710
      H   16    0.10358      0.00000     0.39503    0.00139     0.39642
      H   17    0.09871      0.00000     0.39996    0.00133     0.40129
      H   18    0.10242      0.00000     0.39403    0.00355     0.39758
      H   19    0.20395      0.00000     0.27785    0.01820     0.29605
      H   20    0.19532      0.00000     0.30142    0.00327     0.30468
      H   21    0.08333      0.00000     0.41458    0.00209     0.41667
      H   22    0.09349      0.00000     0.40525    0.00126     0.40651
      H   23    0.09978      0.00000     0.39804    0.00218     0.40022
      H   24    0.08847      0.00000     0.41009    0.00143     0.41153
      H   25    0.09510      0.00000     0.40395    0.00095     0.40490
      H   26    0.09061      0.00000     0.40831    0.00109     0.40939
 =======================================================================
   * Total *   -0.00000      9.99669    29.85144    0.15187    40.00000

 Normal termination of Gaussian 16 at Tue Dec  8 10:44:27 2020.
