 Gaussian 16, Revision A.03,

 -----------------------------------------------------------
 # opt freq B3LYP/6-31G(d) empiricaldispersion=gd3bj scf=xqc
 -----------------------------------------------------------

 ------------------------------
 CID_21437708_JID_1156_neutraal
 ------------------------------
 Symbolic Z-matrix:
 Charge =  0 Multiplicity = 1

 SCF Done:  E(RB3LYP) =  -468.377073897     A.U. after   13 cycles
 SCF Done:  E(RB3LYP) =  -468.378024727     A.U. after   12 cycles
 SCF Done:  E(RB3LYP) =  -468.377879963     A.U. after   12 cycles
 SCF Done:  E(RB3LYP) =  -468.379555981     A.U. after   12 cycles
 SCF Done:  E(RB3LYP) =  -468.380043271     A.U. after   11 cycles
 SCF Done:  E(RB3LYP) =  -468.380269020     A.U. after   12 cycles
 SCF Done:  E(RB3LYP) =  -468.380343885     A.U. after   12 cycles
 SCF Done:  E(RB3LYP) =  -468.380386544     A.U. after   10 cycles
 SCF Done:  E(RB3LYP) =  -468.380425583     A.U. after   11 cycles
 SCF Done:  E(RB3LYP) =  -468.380475078     A.U. after   12 cycles
 SCF Done:  E(RB3LYP) =  -468.384954157     A.U. after   10 cycles
 SCF Done:  E(RB3LYP) =  -468.384954497     A.U. after    8 cycles
 SCF Done:  E(RB3LYP) =  -468.384956232     A.U. after    9 cycles
 SCF Done:  E(RB3LYP) =  -468.384956593     A.U. after    8 cycles
 SCF Done:  E(RB3LYP) =  -468.384956701     A.U. after    8 cycles
 Optimization completed.
    -- Stationary point found.
 Normal termination of Gaussian 16 at Tue Dec  8 19:34:56 2020.

 --------------------------------------------------------------------
 #N Geom=AllCheck Guess=TCheck SCRF=Check GenChk RB3LYP/6-31G(d) Freq
 --------------------------------------------------------------------

 Structure from the checkpoint file:  "JID_1156.chk"
 ------------------------------
 CID_21437708_JID_1156_neutraal
 ------------------------------
 Charge =  0 Multiplicity = 1

 SCF Done:  E(RB3LYP) =  -468.384956701     A.U. after    1 cycles

  Exact polarizability: 122.231  -4.091 108.487  -2.031   0.591  91.027
 Approx polarizability: 150.277  -9.626 153.817  -4.112   0.852 138.676

                      1                      2                      3
                      A                      A                      A
 Frequencies --     24.2708                79.1276                82.5574
 Red. masses --      3.2150                 3.1353                 3.7464
 Frc consts  --      0.0011                 0.0116                 0.0150
 IR Inten    --      0.6122                 0.9456                 1.5010

                      4                      5                      6
                      A                      A                      A
 Frequencies --     88.1516               147.9670               177.7850
 Red. masses --      3.2592                 2.6150                 2.4585
 Frc consts  --      0.0149                 0.0337                 0.0458
 IR Inten    --      4.2193                 1.5078                 5.1803

                      7                      8                      9
                      A                      A                      A
 Frequencies --    191.3360               213.6377               232.2981
 Red. masses --      2.8538                 1.4710                 1.0874
 Frc consts  --      0.0616                 0.0396                 0.0346
 IR Inten    --      1.4414                 0.0143                 0.1199

                     10                     11                     12
                      A                      A                      A
 Frequencies --    240.1230               284.6942               285.5930
 Red. masses --      1.1214                 1.2010                 1.7010
 Frc consts  --      0.0381                 0.0574                 0.0817
 IR Inten    --      0.2929                 0.1726                 0.9643

                     13                     14                     15
                      A                      A                      A
 Frequencies --    314.4526               354.3494               384.8351
 Red. masses --      2.2729                 2.4210                 2.7502
 Frc consts  --      0.1324                 0.1791                 0.2400
 IR Inten    --      1.9445                 1.8996                 0.2654

                     16                     17                     18
                      A                      A                      A
 Frequencies --    390.9093               420.6784               433.5932
 Red. masses --      1.9530                 2.0536                 1.7990
 Frc consts  --      0.1758                 0.2141                 0.1993
 IR Inten    --      0.1634                 0.1843                 0.1204

                     19                     20                     21
                      A                      A                      A
 Frequencies --    486.6560               514.7198               703.1235
 Red. masses --      2.9074                 2.2036                 2.2210
 Frc consts  --      0.4057                 0.3440                 0.6469
 IR Inten    --      1.1304                 0.3639                 7.0014

                     22                     23                     24
                      A                      A                      A
 Frequencies --    722.0468               786.7427               849.7464
 Red. masses --      2.1363                 2.1614                 2.1761
 Frc consts  --      0.6562                 0.7882                 0.9258
 IR Inten    --      7.0764                 0.7033                 1.5365

                     25                     26                     27
                      A                      A                      A
 Frequencies --    882.4026               896.6243               926.6104
 Red. masses --      2.2444                 1.5620                 2.1643
 Frc consts  --      1.0296                 0.7399                 1.0949
 IR Inten    --      7.4711                 1.5491                 4.7375

                     28                     29                     30
                      A                      A                      A
 Frequencies --    947.0304               963.4765               980.1753
 Red. masses --      1.1611                 1.7217                 1.4458
 Frc consts  --      0.6135                 0.9416                 0.8184
 IR Inten    --      0.5685                 3.3494                 0.3373

                     31                     32                     33
                      A                      A                      A
 Frequencies --    987.3393              1002.4690              1010.4135
 Red. masses --      1.5291                 1.4025                 1.4531
 Frc consts  --      0.8782                 0.8304                 0.8740
 IR Inten    --      0.7913                 5.8406                 2.9381

                     34                     35                     36
                      A                      A                      A
 Frequencies --   1059.7022              1095.4239              1106.8348
 Red. masses --      2.0671                 2.0395                 2.0503
 Frc consts  --      1.3676                 1.4419                 1.4799
 IR Inten    --      0.5645                 2.9704                 1.9543

                     37                     38                     39
                      A                      A                      A
 Frequencies --   1163.1418              1172.4941              1185.2122
 Red. masses --      2.0674                 2.2002                 2.0302
 Frc consts  --      1.6480                 1.7821                 1.6803
 IR Inten    --      4.4016                 5.3826                 2.3387

                     40                     41                     42
                      A                      A                      A
 Frequencies --   1202.1127              1218.2191              1242.9807
 Red. masses --      1.8385                 1.8666                 1.3068
 Frc consts  --      1.5653                 1.6321                 1.1896
 IR Inten    --      2.1427                 0.8572                 0.5513

                     43                     44                     45
                      A                      A                      A
 Frequencies --   1290.4745              1321.2696              1326.7557
 Red. masses --      1.2879                 1.2767                 1.3442
 Frc consts  --      1.2637                 1.3132                 1.3941
 IR Inten    --      0.9495                 6.6161                 2.7101

                     46                     47                     48
                      A                      A                      A
 Frequencies --   1347.4574              1368.3263              1378.7937
 Red. masses --      1.3335                 1.3302                 1.3623
 Frc consts  --      1.4265                 1.4674                 1.5259
 IR Inten    --      6.2658                 2.3509                 0.2162

                     49                     50                     51
                      A                      A                      A
 Frequencies --   1399.4625              1409.3944              1418.0467
 Red. masses --      1.4638                 1.5078                 1.4851
 Frc consts  --      1.6890                 1.7647                 1.7595
 IR Inten    --      3.6596                 4.3034                10.5353

                     52                     53                     54
                      A                      A                      A
 Frequencies --   1431.7080              1438.9135              1441.4646
 Red. masses --      1.2621                 1.2112                 1.2234
 Frc consts  --      1.5242                 1.4775                 1.4978
 IR Inten    --      2.8315                 5.9884                 3.9464

                     55                     56                     57
                      A                      A                      A
 Frequencies --   1444.4571              1455.6594              1473.3772
 Red. masses --      1.2204                 1.2188                 1.1097
 Frc consts  --      1.5002                 1.5216                 1.4194
 IR Inten    --      4.6033                 5.4198                17.0038

                     58                     59                     60
                      A                      A                      A
 Frequencies --   1517.4670              1522.9292              1525.9463
 Red. masses --      1.0573                 1.0557                 1.0471
 Frc consts  --      1.4345                 1.4426                 1.4366
 IR Inten    --      1.0320                 1.2198                 5.4653

                     61                     62                     63
                      A                      A                      A
 Frequencies --   1529.0814              1533.0251              1534.1698
 Red. masses --      1.0511                 1.0647                 1.0468
 Frc consts  --      1.4479                 1.4743                 1.4516
 IR Inten    --      1.9468                 2.3256                 3.7969

                     64                     65                     66
                      A                      A                      A
 Frequencies --   1542.3352              1545.6833              1558.0625
 Red. masses --      1.0525                 1.0515                 1.0474
 Frc consts  --      1.4751                 1.4801                 1.4981
 IR Inten    --      7.9749                 6.0842                 7.7213

                     67                     68                     69
                      A                      A                      A
 Frequencies --   1828.7900              2895.4897              2995.5417
 Red. masses --      9.6182                 1.0833                 1.0804
 Frc consts  --     18.9527                 5.3509                 5.7122
 IR Inten    --    137.1122               181.6401                 3.0507

                     70                     71                     72
                      A                      A                      A
 Frequencies --   3006.0630              3011.0983              3021.4552
 Red. masses --      1.0630                 1.0831                 1.0693
 Frc consts  --      5.6595                 5.7860                 5.7514
 IR Inten    --     31.1090                25.0824                22.1192

                     73                     74                     75
                      A                      A                      A
 Frequencies --   3031.1493              3034.8557              3040.3546
 Red. masses --      1.0957                 1.0418                 1.0392
 Frc consts  --      5.9313                 5.6533                 5.6600
 IR Inten    --     10.4219                13.2142                33.3000

                     76                     77                     78
                      A                      A                      A
 Frequencies --   3040.5904              3042.3952              3066.2221
 Red. masses --      1.0399                 1.0415                 1.0831
 Frc consts  --      5.6645                 5.6799                 5.9997
 IR Inten    --     51.6226                22.4694                19.5107

                     79                     80                     81
                      A                      A                      A
 Frequencies --   3092.7025              3094.1071              3100.5235
 Red. masses --      1.0931                 1.0986                 1.1004
 Frc consts  --      6.1603                 6.1967                 6.2326
 IR Inten    --      5.9152                12.6609                27.0141

                     82                     83                     84
                      A                      A                      A
 Frequencies --   3103.4074              3103.5574              3119.6643
 Red. masses --      1.1001                 1.0989                 1.1012
 Frc consts  --      6.2423                 6.2361                 6.3145
 IR Inten    --     44.0803                97.3873                45.3305

                     85                     86                     87
                      A                      A                      A
 Frequencies --   3123.3208              3132.2885              3148.5950
 Red. masses --      1.0996                 1.0982                 1.0978
 Frc consts  --      6.3198                 6.3484                 6.4122
 IR Inten    --     34.0507                36.4482                 2.9464

 - Thermochemistry -
 -------------------
 Temperature   298.150 Kelvin.  Pressure   1.00000 Atm.
 Atom     1 has atomic number  6 and mass  12.00000

 Molecular mass:   156.15142 amu.
 Principal axes and moments of inertia in atomic units:
                           1         2         3
     Eigenvalues --  1261.328262722.480143476.14319
           X            0.99949  -0.03191   0.00201
           Y            0.03189   0.99943   0.01106
           Z           -0.00236  -0.01099   0.99994
 This molecule is an asymmetric top.
 Rotational symmetry number  1.
 Warning -- assumption of classical behavior for rotation
           may cause significant error
 Rotational temperatures (Kelvin)      0.06867     0.03181     0.02492
 Rotational constants (GHZ):           1.43083     0.66290     0.51918
 Zero-point vibrational energy     749092.5 (Joules/Mol)
                                  179.03741 (Kcal/Mol)
 Warning -- explicit consideration of  20 degrees of freedom as
           vibrations may cause significant error
 Vibrational temperatures:     34.92   113.85   118.78   126.83   212.89
          (Kelvin)            255.79   275.29   307.38   334.23   345.48
                              409.61   410.90   452.43   509.83   553.69
                              562.43   605.26   623.84   700.19   740.57
                             1011.64  1038.86  1131.95  1222.60  1269.58
                             1290.04  1333.19  1362.57  1386.23  1410.25
                             1420.56  1442.33  1453.76  1524.68  1576.07
                             1592.49  1673.50  1686.96  1705.26  1729.57
                             1752.75  1788.37  1856.71  1901.01  1908.91
                             1938.69  1968.72  1983.78  2013.51  2027.80
                             2040.25  2059.91  2070.28  2073.95  2078.25
                             2094.37  2119.86  2183.30  2191.16  2195.50
                             2200.01  2205.68  2207.33  2219.08  2223.89
                             2241.70  2631.22  4165.96  4309.92  4325.05
                             4332.30  4347.20  4361.15  4366.48  4374.39
                             4374.73  4377.33  4411.61  4449.71  4451.73
                             4460.96  4465.11  4465.33  4488.50  4493.76
                             4506.66  4530.13

 Zero-point correction=                           0.285314 (Hartree/Particle)
 Thermal correction to Energy=                    0.299102
 Thermal correction to Enthalpy=                  0.300046
 Thermal correction to Gibbs Free Energy=         0.244971
 Sum of electronic and zero-point Energies=           -468.099642
 Sum of electronic and thermal Energies=              -468.085855
 Sum of electronic and thermal Enthalpies=            -468.084911
 Sum of electronic and thermal Free Energies=         -468.139986

                     E (Thermal)             CV                S
                      KCal/Mol        Cal/Mol-Kelvin    Cal/Mol-Kelvin
 Total                  187.689             50.885            115.915
 Electronic               0.000              0.000              0.000
 Translational            0.889              2.981             41.046
 Rotational               0.889              2.981             30.857
 Vibrational            185.912             44.923             44.012
 Vibration     1          0.593              1.985              6.250
 Vibration     2          0.600              1.963              3.912
 Vibration     3          0.600              1.961              3.829
 Vibration     4          0.601              1.958              3.701
 Vibration     5          0.617              1.905              2.698
 Vibration     6          0.628              1.870              2.352
 Vibration     7          0.634              1.852              2.215
 Vibration     8          0.644              1.820              2.012
 Vibration     9          0.653              1.792              1.861
 Vibration    10          0.657              1.779              1.802
 Vibration    11          0.683              1.702              1.505
 Vibration    12          0.683              1.700              1.500
 Vibration    13          0.702              1.646              1.339
 Vibration    14          0.730              1.566              1.147
 Vibration    15          0.754              1.503              1.020
 Vibration    16          0.759              1.490              0.997
 Vibration    17          0.783              1.425              0.890
 Vibration    18          0.794              1.397              0.847
 Vibration    19          0.843              1.280              0.692
 Vibration    20          0.870              1.217              0.622

 Optimization completed.
    -- Stationary point found.
 Normal termination of Gaussian 16 at Tue Dec  8 19:42:37 2020.

 ----------------------------------------------------------------------
 # B3LYP/6-311++G(d,p) empiricaldispersion=gd3bj scf=xqc pop=npa geom=c
 heck
 ----------------------------------------------------------------------

 --------------------------------------
 CID_21437708_JID_1156_Energie_neutraal
 --------------------------------------
 Structure from the checkpoint file:  "JID_1156.chk"
 Charge =  0 Multiplicity = 1

 SCF Done:  E(RB3LYP) =  -468.519962370     A.U. after   13 cycles
 Normal termination of Gaussian 16 at Tue Dec  8 19:46:04 2020.

 ----------------------------------------------------------------------
 # B3LYP/6-311++G(d,p) empiricaldispersion=gd3bj scf=xqc pop=npa geom=c
 heck
 ----------------------------------------------------------------------

 ------------------------------------
 CID_21437708_JID_1156_Energie_kation
 ------------------------------------
 Structure from the checkpoint file:  "JID_1156.chk"
 Charge =  1 Multiplicity = 2

 SCF Done:  E(UB3LYP) =  -468.175494607     A.U. after   27 cycles
 Normal termination of Gaussian 16 at Tue Dec  8 19:56:50 2020.
 Gaussian 16:  ES64L-G16RevA.03 25-Dec-2016

 ----------------------------------------------------------------------
 # B3LYP/6-311++G(d,p) empiricaldispersion=gd3bj scf=xqc pop=npa geom=c
 heck
 ----------------------------------------------------------------------

 -----------------------------------
 CID_21437708_JID_1156_Energie_anion
 -----------------------------------
 Structure from the checkpoint file:  "JID_1156.chk"
 Charge = -1 Multiplicity = 2

                         Standard orientation:
 ---------------------------------------------------------------------
 Center     Atomic      Atomic             Coordinates (Angstroms)
 Number     Number       Type             X           Y           Z
 ---------------------------------------------------------------------
      1          6           0       -3.409295    0.742941    0.285130
      2          6           0       -1.935055    0.787781   -0.141723
      3          6           0       -1.174559    1.782908    0.747008
      4          6           0       -1.272075   -0.612525   -0.129866
      5          6           0       -2.071506   -1.650054   -0.932165
      6          6           0        0.193726   -0.561935   -0.640360
      7          6           0        1.272320   -0.688838    0.452768
      8          6           0        1.261943   -2.082813    1.094251
      9          6           0        2.665548   -0.397227   -0.118219
     10          6           0        2.945381    1.039353   -0.485933
     11          8           0        2.203464    1.978412   -0.291094
     12          1           0       -3.512769    0.288211    1.279505
     13          1           0       -4.031041    0.172525   -0.411325
     14          1           0       -3.822868    1.756258    0.342475
     15          1           0       -1.894226    1.157022   -1.178919
     16          1           0       -1.184786    1.446401    1.792801
     17          1           0       -0.132918    1.910250    0.441990
     18          1           0       -1.653547    2.768571    0.716376
     19          1           0       -1.266322   -0.944924    0.919377
     20          1           0       -2.167487   -1.342136   -1.981770
     21          1           0       -1.561985   -2.620484   -0.918388
     22          1           0       -3.078791   -1.800706   -0.533322
     23          1           0        0.358691   -1.376039   -1.360905
     24          1           0        0.351664    0.368975   -1.194997
     25          1           0        1.068250    0.057005    1.230519
     26          1           0        1.511223   -2.853765    0.353536
     27          1           0        1.992550   -2.152312    1.908762
     28          1           0        0.279229   -2.328554    1.508673
     29          1           0        3.454066   -0.684059    0.597232
     30          1           0        2.864371   -1.013457   -1.009891
     31          1           0        3.940418    1.206384   -0.958322
 ---------------------------------------------------------------------

 SCF Done:  E(UB3LYP) =  -468.503987025     A.U. after   33 cycles
 SCF Done:  E(UB3LYP) =  -468.503987025     a.u. after    1 cycles

 The electronic state is 2-A.
 Alpha  occ. eigenvalues --  -19.00983 -10.14482 -10.07113 -10.07015 -10.06923
 Alpha  occ. eigenvalues --  -10.06777 -10.05892 -10.05460 -10.05379 -10.05239
 Alpha  occ. eigenvalues --  -10.04958  -0.94007  -0.72788  -0.69838  -0.64349
 Alpha  occ. eigenvalues --   -0.61180  -0.58829  -0.56741  -0.51780  -0.48551
 Alpha  occ. eigenvalues --   -0.45198  -0.44008  -0.38058  -0.36743  -0.35694
 Alpha  occ. eigenvalues --   -0.34668  -0.34178  -0.31946  -0.31410  -0.31042
 Alpha  occ. eigenvalues --   -0.29969  -0.28977  -0.28478  -0.26784  -0.26456
 Alpha  occ. eigenvalues --   -0.25968  -0.24988  -0.24407  -0.23205  -0.22532
 Alpha  occ. eigenvalues --   -0.21225  -0.20619  -0.20052  -0.14889   0.04772
 Alpha virt. eigenvalues --    0.06483   0.07040   0.07703   0.07846   0.08831
 Alpha virt. eigenvalues --    0.09373   0.09779   0.10534   0.10602   0.11788
 Alpha virt. eigenvalues --    0.11852   0.12406   0.12788   0.12920   0.14178

  Beta  occ. eigenvalues --  -19.00879 -10.14356 -10.07108 -10.07010 -10.06901
  Beta  occ. eigenvalues --  -10.06769 -10.05873 -10.05448 -10.05355 -10.05209
  Beta  occ. eigenvalues --  -10.04954  -0.93800  -0.72765  -0.69798  -0.64306
  Beta  occ. eigenvalues --   -0.61063  -0.58794  -0.56698  -0.51711  -0.48410
  Beta  occ. eigenvalues --   -0.45161  -0.43841  -0.37962  -0.36666  -0.35637
  Beta  occ. eigenvalues --   -0.34582  -0.34125  -0.31799  -0.31295  -0.30995
  Beta  occ. eigenvalues --   -0.29885  -0.28927  -0.28460  -0.26736  -0.26395
  Beta  occ. eigenvalues --   -0.25713  -0.24871  -0.24374  -0.23148  -0.22488
  Beta  occ. eigenvalues --   -0.21181  -0.20595  -0.20026  -0.14778
  Beta virt. eigenvalues --    0.06828   0.07658   0.08111   0.08232   0.08284
  Beta virt. eigenvalues --    0.09325   0.10026   0.10157   0.10850   0.10959
  Beta virt. eigenvalues --    0.12188   0.12355   0.12606   0.13102   0.13226

 Mulliken charges and spin densities:
               1          2
     1  C    0.433525  -1.148306
     2  C   -0.910001   1.145474
     3  C   -0.579854  -0.187553
     4  C   -0.109837   0.545338
     5  C    1.237887  -1.984582
     6  C    0.589730  -1.009462
     7  C   -1.474786   1.796916
     8  C    1.491965  -2.204782
     9  C    0.099361  -0.288734
    10  C    0.259701  -0.430900
    11  O   -0.281649   0.028621
    12  H   -0.158167   0.307710
    13  H   -0.050141   0.189611
    14  H    0.020539   0.100505
    15  H   -0.053805   0.205044
    16  H    0.008603   0.127314
    17  H    0.315774  -0.103614
    18  H    0.036428   0.083164
    19  H    0.393502  -0.261877
    20  H    0.051478   0.103670
    21  H   -0.170552   0.307540
    22  H   -0.303756   0.431360
    23  H   -0.205289   0.395017
    24  H    0.234115  -0.078236
    25  H    0.181619  -0.019562
    26  H   -0.277364   0.437228
    27  H   -0.194869   0.335797
    28  H   -0.362924   0.493479
    29  H   -0.382414   0.571301
    30  H   -0.258428   0.425245
    31  H   -0.580391   0.687277
 Sum of Mulliken charges =  -1.00000   1.00000

 Dipole moment (field-independent basis, Debye):
    X=             -3.4141    Y=              3.2535    Z=              0.1290  Tot=              4.7179
 Quadrupole moment (field-independent basis, Debye-Ang):
   XX=           -146.1246   YY=           -121.5145   ZZ=           -100.9783
   XY=             -1.2722   XZ=              0.2174   YZ=              0.0747

 Summary of Natural Population Analysis:

                                       Natural Population
                Natural  -----------------------------------------------
    Atom  No    Charge         Core      Valence    Rydberg      Total
 -----------------------------------------------------------------------
      C    1   -0.28569      0.99965     2.28014    0.00590     3.28569
      C    2   -0.10663      0.99960     2.09847    0.00856     3.10663
      C    3   -0.29139      0.99964     2.28666    0.00508     3.29139
      C    4   -0.11148      0.99958     2.10089    0.01100     3.11148
      C    5   -0.28268      0.99965     2.27721    0.00582     3.28268
      C    6   -0.18899      0.99959     2.17943    0.00996     3.18899
      C    7   -0.11413      0.99960     2.10376    0.01078     3.11413
      C    8   -0.28236      0.99965     2.27689    0.00582     3.28236
      C    9   -0.24190      0.99959     2.23159    0.01072     3.24190
      C   10    0.24762      0.99973     1.73245    0.02020     2.75238
      O   11   -0.27634      0.99988     3.26999    0.00647     4.27634
      H   12    0.09611      0.00000     0.40297    0.00092     0.40389
      H   13    0.09960      0.00000     0.39956    0.00084     0.40040
      H   14    0.09603      0.00000     0.40317    0.00080     0.40397
      H   15    0.08939      0.00000     0.40906    0.00155     0.41061
      H   16    0.09293      0.00000     0.40615    0.00092     0.40707
      H   17    0.11627      0.00000     0.38259    0.00114     0.38373
      H   18    0.09378      0.00000     0.40548    0.00074     0.40622
      H   19    0.09103      0.00000     0.40695    0.00202     0.40897
      H   20    0.09503      0.00000     0.40400    0.00097     0.40497
      H   21    0.10093      0.00000     0.39806    0.00102     0.39907
      H   22    0.09836      0.00000     0.40064    0.00100     0.40164
      H   23    0.09607      0.00000     0.40254    0.00140     0.40393
      H   24    0.10345      0.00000     0.39511    0.00144     0.39655
      H   25    0.09959      0.00000     0.39812    0.00229     0.40041
      H   26    0.09857      0.00000     0.39983    0.00159     0.40143
      H   27    0.09862      0.00000     0.40028    0.00110     0.40138
      H   28    0.09853      0.00000     0.40039    0.00108     0.40147
      H   29    0.11405      0.00000     0.38461    0.00134     0.38595
      H   30    0.11178      0.00000     0.38521    0.00302     0.38822
      H   31    0.04385      0.00000     0.45320    0.00295     0.45615
 =======================================================================
   * Total *    0.00000     10.99616    32.87539    0.12845    44.00000

 Normal termination of Gaussian 16 at Tue Dec  8 20:09:33 2020.
