 Gaussian 16, Revision A.03,

 -----------------------------------------------------------
 # opt freq B3LYP/6-31G(d) empiricaldispersion=gd3bj scf=xqc
 -----------------------------------------------------------

 -------------------------------
 CID_83115621_JID_10777_neutraal
 -------------------------------
 Symbolic Z-matrix:
 Charge =  0 Multiplicity = 1

 SCF Done:  E(RB3LYP) =  -916.312119134     A.U. after   14 cycles
 SCF Done:  E(RB3LYP) =  -916.319113971     A.U. after   13 cycles
 SCF Done:  E(RB3LYP) =  -916.320213240     A.U. after   12 cycles
 SCF Done:  E(RB3LYP) =  -916.321017432     A.U. after   13 cycles
 SCF Done:  E(RB3LYP) =  -916.321363891     A.U. after   12 cycles
 SCF Done:  E(RB3LYP) =  -916.321544579     A.U. after   12 cycles
 SCF Done:  E(RB3LYP) =  -916.321640338     A.U. after   12 cycles
 SCF Done:  E(RB3LYP) =  -916.321774666     A.U. after   12 cycles
 SCF Done:  E(RB3LYP) =  -916.321480684     A.U. after   13 cycles
 SCF Done:  E(RB3LYP) =  -916.322641804     A.U. after   13 cycles
 SCF Done:  E(RB3LYP) =  -916.325252596     A.U. after    9 cycles
 SCF Done:  E(RB3LYP) =  -916.325253238     A.U. after    9 cycles
 SCF Done:  E(RB3LYP) =  -916.325253935     A.U. after    9 cycles
 SCF Done:  E(RB3LYP) =  -916.325254051     A.U. after    7 cycles
 SCF Done:  E(RB3LYP) =  -916.325254088     A.U. after    6 cycles
 Optimization completed.
    -- Stationary point found.
 Normal termination of Gaussian 16 at Sun Dec 13 21:15:39 2020.

 --------------------------------------------------------------------
 #N Geom=AllCheck Guess=TCheck SCRF=Check GenChk RB3LYP/6-31G(d) Freq
 --------------------------------------------------------------------

 Structure from the checkpoint file:  "JID_10777.chk"
 -------------------------------
 CID_83115621_JID_10777_neutraal
 -------------------------------
 Charge =  0 Multiplicity = 1

 SCF Done:  E(RB3LYP) =  -916.325254088     A.U. after    2 cycles

  Exact polarizability: 193.176  14.359 206.261 -19.822   4.813 132.231
 Approx polarizability: 270.778  28.753 317.771 -43.989   9.750 215.958

                      1                      2                      3
                      A                      A                      A
 Frequencies --     31.3133                40.3300                46.6072
 Red. masses --      4.8704                 1.2432                 2.7577
 Frc consts  --      0.0028                 0.0012                 0.0035
 IR Inten    --      3.1731                 0.0944                 1.0157

                      4                      5                      6
                      A                      A                      A
 Frequencies --     50.4896                61.7324                65.1135
 Red. masses --      3.7726                 3.8025                 5.7443
 Frc consts  --      0.0057                 0.0085                 0.0143
 IR Inten    --      3.5328                 1.2925                 0.3370

                      7                      8                      9
                      A                      A                      A
 Frequencies --     84.1281                94.1334               109.4927
 Red. masses --      6.4329                 4.4985                 2.6106
 Frc consts  --      0.0268                 0.0235                 0.0184
 IR Inten    --      1.8520                 4.1127                 0.1343

                     10                     11                     12
                      A                      A                      A
 Frequencies --    127.9815               157.5629               166.1909
 Red. masses --      5.6967                 2.6913                 3.1827
 Frc consts  --      0.0550                 0.0394                 0.0518
 IR Inten    --      6.5048                 1.9188                 1.1076

                     13                     14                     15
                      A                      A                      A
 Frequencies --    179.1462               207.2467               231.7166
 Red. masses --      4.0217                 2.2727                 2.5556
 Frc consts  --      0.0760                 0.0575                 0.0808
 IR Inten    --      2.1308                 1.4618                 4.3006

                     16                     17                     18
                      A                      A                      A
 Frequencies --    268.6950               274.9627               297.7655
 Red. masses --      2.4233                 1.6861                 3.4168
 Frc consts  --      0.1031                 0.0751                 0.1785
 IR Inten    --      3.1522                 0.5685                 1.3327

                     19                     20                     21
                      A                      A                      A
 Frequencies --    311.7865               344.0207               369.0403
 Red. masses --      3.7506                 4.1425                 2.9903
 Frc consts  --      0.2148                 0.2889                 0.2399
 IR Inten    --      2.1931                 5.2304                 1.3349

                     22                     23                     24
                      A                      A                      A
 Frequencies --    385.9850               408.5746               434.1286
 Red. masses --      3.3442                 3.0341                 3.8030
 Frc consts  --      0.2936                 0.2984                 0.4223
 IR Inten    --      0.1965                 3.6705                 5.6259

                     25                     26                     27
                      A                      A                      A
 Frequencies --    438.2072               481.1772               499.9600
 Red. masses --      1.1061                 2.6922                 3.3469
 Frc consts  --      0.1251                 0.3673                 0.4929
 IR Inten    --     24.7156                 5.0274                 5.1082

                     28                     29                     30
                      A                      A                      A
 Frequencies --    515.3775               536.4046               568.4758
 Red. masses --      3.3736                 4.4538                 2.7780
 Frc consts  --      0.5279                 0.7550                 0.5289
 IR Inten    --      6.7075                30.0215                22.5690

                     31                     32                     33
                      A                      A                      A
 Frequencies --    588.2985               623.0276               644.3800
 Red. masses --      3.5922                 4.3477                 1.5602
 Frc consts  --      0.7325                 0.9943                 0.3817
 IR Inten    --     14.1213                 7.5264               161.4504

                     34                     35                     36
                      A                      A                      A
 Frequencies --    662.6420               691.4941               712.8727
 Red. masses --      2.0522                 2.4037                 4.4987
 Frc consts  --      0.5309                 0.6772                 1.3470
 IR Inten    --     44.3031                82.9098                 4.8764

                     37                     38                     39
                      A                      A                      A
 Frequencies --    742.7073               750.1332               776.1249
 Red. masses --      2.5899                 1.7803                 1.8980
 Frc consts  --      0.8417                 0.5902                 0.6736
 IR Inten    --     77.0853                31.5230                88.8768

                     40                     41                     42
                      A                      A                      A
 Frequencies --    794.6066               798.3184               810.8193
 Red. masses --      1.9050                 3.4698                 2.4289
 Frc consts  --      0.7087                 1.3029                 0.9408
 IR Inten    --     44.8723                30.7123                58.0661

                     43                     44                     45
                      A                      A                      A
 Frequencies --    827.1514               832.7503               851.4126
 Red. masses --      1.9168                 1.5505                 2.3047
 Frc consts  --      0.7727                 0.6335                 0.9844
 IR Inten    --     11.8911                44.6884                 1.4557

                     46                     47                     48
                      A                      A                      A
 Frequencies --    871.0712               884.5504               918.2584
 Red. masses --      2.2939                 1.6533                 1.9930
 Frc consts  --      1.0255                 0.7622                 0.9901
 IR Inten    --     11.0013                32.7041                 3.1374

                     49                     50                     51
                      A                      A                      A
 Frequencies --    928.1067               932.1982               939.3581
 Red. masses --      1.6025                 1.6581                 2.8060
 Frc consts  --      0.8133                 0.8489                 1.4588
 IR Inten    --      2.4908                 1.1235                 4.2173

                     52                     53                     54
                      A                      A                      A
 Frequencies --    954.9874              1018.2384              1030.7808
 Red. masses --      1.3097                 1.7028                 1.4448
 Frc consts  --      0.7037                 1.0402                 0.9045
 IR Inten    --      1.4646                 5.9677                 7.0039

                     55                     56                     57
                      A                      A                      A
 Frequencies --   1060.1946              1075.5224              1090.3395
 Red. masses --      2.1658                 1.4862                 2.8353
 Frc consts  --      1.4343                 1.0129                 1.9860
 IR Inten    --      0.6224                11.5832                 2.2213

                     58                     59                     60
                      A                      A                      A
 Frequencies --   1107.9162              1135.5514              1155.8255
 Red. masses --      2.1102                 2.0549                 1.8220
 Frc consts  --      1.5261                 1.5612                 1.4341
 IR Inten    --     30.8085                21.8350                33.0106

                     61                     62                     63
                      A                      A                      A
 Frequencies --   1165.1567              1174.6290              1190.8880
 Red. masses --      1.7630                 2.4682                 3.8836
 Frc consts  --      1.4102                 2.0065                 3.2451
 IR Inten    --      0.4542                 1.9355                30.4424

                     64                     65                     66
                      A                      A                      A
 Frequencies --   1199.8884              1251.8151              1282.9118
 Red. masses --      1.4205                 2.2174                 1.3777
 Frc consts  --      1.2049                 2.0472                 1.3360
 IR Inten    --     10.5087                 9.4199                43.3291

                     67                     68                     69
                      A                      A                      A
 Frequencies --   1294.1611              1305.0215              1306.2104
 Red. masses --      2.0106                 1.4253                 1.1459
 Frc consts  --      1.9840                 1.4302                 1.1519
 IR Inten    --     43.2286                12.3409                14.0352

                     70                     71                     72
                      A                      A                      A
 Frequencies --   1314.5330              1335.9776              1356.7255
 Red. masses --      1.2351                 2.0516                 2.2114
 Frc consts  --      1.2575                 2.1574                 2.3983
 IR Inten    --     14.3580                34.0066               111.4032

                     73                     74                     75
                      A                      A                      A
 Frequencies --   1376.5761              1382.8836              1395.1578
 Red. masses --      2.5426                 1.6490                 1.3670
 Frc consts  --      2.8388                 1.8579                 1.5677
 IR Inten    --     85.0863                99.8093                 5.3286

                     76                     77                     78
                      A                      A                      A
 Frequencies --   1410.2465              1436.3871              1444.1756
 Red. masses --      1.3252                 1.6522                 1.2627
 Frc consts  --      1.5528                 2.0084                 1.5517
 IR Inten    --      5.6060                17.7521                 5.6881

                     79                     80                     81
                      A                      A                      A
 Frequencies --   1453.2901              1458.0824              1465.1466
 Red. masses --      1.3162                 1.8981                 2.7535
 Frc consts  --      1.6379                 2.3776                 3.4825
 IR Inten    --      5.6880               101.9613                70.5376

                     82                     83                     84
                      A                      A                      A
 Frequencies --   1484.6888              1514.0781              1516.4294
 Red. masses --      1.5545                 1.1355                 1.0504
 Frc consts  --      2.0188                 1.5337                 1.4231
 IR Inten    --     62.4307                 0.8063                 3.6989

                     85                     86                     87
                      A                      A                      A
 Frequencies --   1518.3399              1525.5219              1528.6045
 Red. masses --      1.3402                 1.1523                 1.1413
 Frc consts  --      1.8203                 1.5799                 1.5712
 IR Inten    --      9.0737                17.1114                 3.0592

                     88                     89                     90
                      A                      A                      A
 Frequencies --   1530.1172              1532.0112              1537.4288
 Red. masses --      1.3439                 1.3811                 1.0706
 Frc consts  --      1.8539                 1.9099                 1.4909
 IR Inten    --     38.5494                16.3219                11.4863

                     91                     92                     93
                      A                      A                      A
 Frequencies --   1542.2971              1548.2937              1579.6992
 Red. masses --      1.1584                 1.0564                 1.9651
 Frc consts  --      1.6235                 1.4921                 2.8892
 IR Inten    --     13.5597                12.4067               132.4609

                     94                     95                     96
                      A                      A                      A
 Frequencies --   1644.5132              1658.5988              1676.1438
 Red. masses --      3.0978                 1.1917                 5.8965
 Frc consts  --      4.9361                 1.9315                 9.7604
 IR Inten    --     45.8761               131.9424                24.5958

                     97                     98                     99
                      A                      A                      A
 Frequencies --   1748.8967              1821.7506              3019.1224
 Red. masses --      6.7904                 6.0797                 1.0745
 Frc consts  --     12.2370                11.8880                 5.7705
 IR Inten    --    224.8832               389.2929                65.8383

                    100                    101                    102
                      A                      A                      A
 Frequencies --   3038.6403              3040.5103              3046.8735
 Red. masses --      1.0394                 1.0617                 1.0384
 Frc consts  --      5.6544                 5.7827                 5.6797
 IR Inten    --     50.0717                25.8397                24.9411

                    103                    104                    105
                      A                      A                      A
 Frequencies --   3062.4395              3077.4127              3086.7168
 Red. masses --      1.0640                 1.0974                 1.0650
 Frc consts  --      5.8795                 6.1235                 5.9786
 IR Inten    --     29.4512                43.5068                34.4281

                    106                    107                    108
                      A                      A                      A
 Frequencies --   3092.4346              3104.2794              3113.7131
 Red. masses --      1.0976                 1.1044                 1.1011
 Frc consts  --      6.1846                 6.2702                 6.2897
 IR Inten    --     22.4909                19.5783                47.4122

                    109                    110                    111
                      A                      A                      A
 Frequencies --   3119.9294              3128.5849              3128.8405
 Red. masses --      1.1018                 1.1027                 1.0935
 Frc consts  --      6.3192                 6.3592                 6.3071
 IR Inten    --     17.3285                23.9030                 1.2073

                    112                    113                    114
                      A                      A                      A
 Frequencies --   3145.7563              3177.2370              3180.8143
 Red. masses --      1.0990                 1.0890                 1.0898
 Frc consts  --      6.4075                 6.4771                 6.4963
 IR Inten    --     36.9215                19.7982                11.1537

                    115                    116                    117
                      A                      A                      A
 Frequencies --   3219.8088              3471.1367              3525.7577
 Red. masses --      1.0912                 1.0798                 1.0755
 Frc consts  --      6.6651                 7.6652                 7.8771
 IR Inten    --     14.2397               296.3494                83.5816

                    118                    119                    120
                      A                      A                      A
 Frequencies --   3540.2351              3572.8419              3651.6861
 Red. masses --      1.0486                 1.0755                 1.0977
 Frc consts  --      7.7434                 8.0885                 8.6239
 IR Inten    --     15.3177                31.5218                22.7436

 - Thermochemistry -
 -------------------
 Temperature   298.150 Kelvin.  Pressure   1.00000 Atm.
 Atom     1 has atomic number  6 and mass  12.00000

 Molecular mass:   278.17428 amu.
 Principal axes and moments of inertia in atomic units:
                           1         2         3
     Eigenvalues --  4571.434565835.030788492.46384
           X            0.99906  -0.04338  -0.00034
           Y            0.04338   0.99904  -0.00642
           Z            0.00062   0.00640   0.99998
 This molecule is an asymmetric top.
 Rotational symmetry number  1.
 Warning -- assumption of classical behavior for rotation
           may cause significant error
 Rotational temperatures (Kelvin)      0.01895     0.01484     0.01020
 Rotational constants (GHZ):           0.39479     0.30929     0.21251
 Zero-point vibrational energy     953719.4 (Joules/Mol)
                                  227.94441 (Kcal/Mol)
 Warning -- explicit consideration of  31 degrees of freedom as
           vibrations may cause significant error
 Vibrational temperatures:     45.05    58.03    67.06    72.64    88.82
          (Kelvin)             93.68   121.04   135.44   157.54   184.14
                              226.70   239.11   257.75   298.18   333.39
                              386.59   395.61   428.42   448.59   494.97
                              530.97   555.35   587.85   624.61   630.48
                              692.31   719.33   741.51   771.77   817.91
                              846.43   896.40   927.12   953.39   994.91
                             1025.66  1068.59  1079.27  1116.67  1143.26
                             1148.60  1166.59  1190.09  1198.14  1224.99
                             1253.28  1272.67  1321.17  1335.34  1341.23
                             1351.53  1374.01  1465.02  1483.06  1525.38
                             1547.44  1568.76  1594.04  1633.81  1662.98
                             1676.40  1690.03  1713.42  1726.37  1801.08
                             1845.82  1862.01  1877.63  1879.35  1891.32
                             1922.17  1952.03  1980.59  1989.66  2007.32
                             2029.03  2066.64  2077.85  2090.96  2097.86
                             2108.02  2136.14  2178.42  2181.80  2184.55
                             2194.89  2199.32  2201.50  2204.22  2212.02
                             2219.02  2227.65  2272.83  2366.09  2386.35
                             2411.60  2516.27  2621.09  4343.84  4371.93
                             4374.62  4383.77  4406.17  4427.71  4441.10
                             4449.32  4466.37  4479.94  4488.88  4501.34
                             4501.70  4526.04  4571.34  4576.48  4632.59
                             4994.19  5072.78  5093.61  5140.52  5253.96

 Zero-point correction=                           0.363253 (Hartree/Particle)
 Thermal correction to Energy=                    0.383969
 Thermal correction to Enthalpy=                  0.384913
 Thermal correction to Gibbs Free Energy=         0.312638
 Sum of electronic and zero-point Energies=           -915.962002
 Sum of electronic and thermal Energies=              -915.941285
 Sum of electronic and thermal Enthalpies=            -915.940341
 Sum of electronic and thermal Free Energies=         -916.012616

                     E (Thermal)             CV                S
                      KCal/Mol        Cal/Mol-Kelvin    Cal/Mol-Kelvin
 Total                  240.944             77.581            152.116
 Electronic               0.000              0.000              0.000
 Translational            0.889              2.981             42.768
 Rotational               0.889              2.981             33.782
 Vibrational            239.167             71.620             75.567
 Vibration     1          0.594              1.983              5.744
 Vibration     2          0.594              1.981              5.243
 Vibration     3          0.595              1.979              4.956
 Vibration     4          0.595              1.977              4.798
 Vibration     5          0.597              1.973              4.401
 Vibration     6          0.597              1.971              4.296
 Vibration     7          0.601              1.960              3.792
 Vibration     8          0.603              1.953              3.572
 Vibration     9          0.606              1.942              3.278
 Vibration    10          0.611              1.925              2.976
 Vibration    11          0.621              1.894              2.579
 Vibration    12          0.624              1.884              2.478
 Vibration    13          0.629              1.868              2.337
 Vibration    14          0.641              1.830              2.068
 Vibration    15          0.653              1.792              1.866
 Vibration    16          0.673              1.731              1.605
 Vibration    17          0.677              1.720              1.565
 Vibration    18          0.691              1.678              1.429
 Vibration    19          0.700              1.651              1.353
 Vibration    20          0.723              1.587              1.193
 Vibration    21          0.741              1.536              1.084
 Vibration    22          0.755              1.500              1.016
 Vibration    23          0.773              1.452              0.932
 Vibration    24          0.795              1.396              0.845
 Vibration    25          0.798              1.387              0.832
 Vibration    26          0.837              1.292              0.707
 Vibration    27          0.855              1.250              0.658
 Vibration    28          0.870              1.216              0.621
 Vibration    29          0.891              1.170              0.573
 Vibration    30          0.924              1.099              0.507
 Vibration    31          0.946              1.057              0.470

 Optimization completed.
    -- Stationary point found.
 Normal termination of Gaussian 16 at Sun Dec 13 21:39:33 2020.

 ----------------------------------------------------------------------
 # B3LYP/6-311++G(d,p) empiricaldispersion=gd3bj scf=xqc pop=npa geom=c
 heck
 ----------------------------------------------------------------------

 ---------------------------------------
 CID_83115621_JID_10777_Energie_neutraal
 ---------------------------------------
 Structure from the checkpoint file:  "JID_10777.chk"
 Charge =  0 Multiplicity = 1

 SCF Done:  E(RB3LYP) =  -916.595161480     A.U. after   15 cycles
 Normal termination of Gaussian 16 at Sun Dec 13 21:48:50 2020.

 ----------------------------------------------------------------------
 # B3LYP/6-311++G(d,p) empiricaldispersion=gd3bj scf=xqc pop=npa geom=c
 heck
 ----------------------------------------------------------------------

 -------------------------------------
 CID_83115621_JID_10777_Energie_kation
 -------------------------------------
 Structure from the checkpoint file:  "JID_10777.chk"
 Charge =  1 Multiplicity = 2

 SCF Done:  E(UB3LYP) =  -916.325839679     A.U. after   23 cycles
 Normal termination of Gaussian 16 at Sun Dec 13 22:07:53 2020.
 Gaussian 16:  ES64L-G16RevA.03 25-Dec-2016

 ----------------------------------------------------------------------
 # B3LYP/6-311++G(d,p) empiricaldispersion=gd3bj scf=xqc pop=npa geom=c
 heck
 ----------------------------------------------------------------------

 ------------------------------------
 CID_83115621_JID_10777_Energie_anion
 ------------------------------------
 Structure from the checkpoint file:  "JID_10777.chk"
 Charge = -1 Multiplicity = 2

                         Standard orientation:
 ---------------------------------------------------------------------
 Center     Atomic      Atomic             Coordinates (Angstroms)
 Number     Number       Type             X           Y           Z
 ---------------------------------------------------------------------
      1          6           0        1.363659   -3.720858    1.274658
      2          6           0        1.924793   -3.431895   -0.120602
      3          6           0        0.891777   -2.778847   -1.051500
      4          7           0        0.341431   -1.522632   -0.543537
      5          6           0        1.153289   -0.404410   -0.345024
      6          6           0        0.735241    0.614061    0.544686
      7          6           0        1.478136    1.790084    0.669746
      8          6           0        2.648989    2.008787   -0.058667
      9          6           0        3.047460    0.999490   -0.943930
     10          6           0        2.323250   -0.179194   -1.090385
     11          6           0        3.466430    3.264243    0.121348
     12          6           0       -0.487942    0.394559    1.377056
     13          8           0       -0.640249   -0.626258    2.049671
     14          7           0       -1.439943    1.382519    1.366318
     15          6           0       -1.671263    2.310220    0.265328
     16          6           0       -1.699845    1.665677   -1.158504
     17          7           0       -2.045255    0.257098   -1.210502
     18          6           0       -3.117434   -0.325416   -0.576347
     19          8           0       -3.162521   -1.520099   -0.314759
     20          7           0       -4.144702    0.556801   -0.215084
     21          1           0        1.039008   -2.801833    1.774168
     22          1           0        2.117725   -4.199153    1.908845
     23          1           0        0.497953   -4.392787    1.219474
     24          1           0        2.800400   -2.776083   -0.036904
     25          1           0        2.272158   -4.361371   -0.591466
     26          1           0        1.319177   -2.607471   -2.045690
     27          1           0        0.036228   -3.448444   -1.190751
     28          1           0       -0.287803   -1.676157    0.240533
     29          1           0        1.138287    2.543721    1.376137
     30          1           0        3.950435    1.135912   -1.534934
     31          1           0        2.666879   -0.928908   -1.793987
     32          1           0        4.335936    3.090326    0.769001
     33          1           0        3.847536    3.636298   -0.836567
     34          1           0        2.873963    4.062707    0.580066
     35          1           0       -2.278653    1.080880    1.850992
     36          1           0       -2.632649    2.780235    0.478735
     37          1           0       -0.918191    3.103696    0.263689
     38          1           0       -2.378937    2.261324   -1.785863
     39          1           0       -0.710896    1.747963   -1.612483
     40          1           0       -1.274614   -0.401539   -1.315079
     41          1           0       -4.327645    1.318729   -0.858964
     42          1           0       -4.984097    0.047305    0.034204
 ---------------------------------------------------------------------

 SCF Done:  E(UB3LYP) =  -916.590529634     A.U. after   33 cycles
 SCF Done:  E(UB3LYP) =  -916.590529634     a.u. after    1 cycles

 The electronic state is 2-A.
 Alpha  occ. eigenvalues --  -18.97101 -18.97058 -14.21726 -14.21527 -14.21405
 Alpha  occ. eigenvalues --  -14.21380 -10.18209 -10.15113 -10.10759 -10.10473
 Alpha  occ. eigenvalues --  -10.10280 -10.09994 -10.07858 -10.07640 -10.06902
 Alpha  occ. eigenvalues --  -10.06603 -10.06152 -10.06005 -10.05973 -10.05855
 Alpha  occ. eigenvalues --   -0.93567  -0.92223  -0.83238  -0.82562  -0.80045
 Alpha  occ. eigenvalues --   -0.77518  -0.74417  -0.68961  -0.65885  -0.64790
 Alpha  occ. eigenvalues --   -0.63641  -0.59975  -0.56964  -0.55288  -0.52646
 Alpha  occ. eigenvalues --   -0.50859  -0.48808  -0.47951  -0.45412  -0.43134
 Alpha  occ. eigenvalues --   -0.41826  -0.40185  -0.39553  -0.38035  -0.36385
 Alpha  occ. eigenvalues --   -0.36311  -0.36125  -0.35523  -0.34987  -0.33762
 Alpha  occ. eigenvalues --   -0.33218  -0.32652  -0.31875  -0.31726  -0.30708
 Alpha  occ. eigenvalues --   -0.30129  -0.29729  -0.28795  -0.28695  -0.28008
 Alpha  occ. eigenvalues --   -0.27269  -0.26117  -0.25861  -0.25168  -0.24899
 Alpha  occ. eigenvalues --   -0.24496  -0.23482  -0.19242  -0.17663  -0.16125
 Alpha  occ. eigenvalues --   -0.15512  -0.15131  -0.14058  -0.13751  -0.09974
 Alpha  occ. eigenvalues --    0.04367
 Alpha virt. eigenvalues --    0.06022   0.06649   0.07079   0.08284   0.08838
 Alpha virt. eigenvalues --    0.09147   0.09204   0.09486   0.10233   0.10512
 Alpha virt. eigenvalues --    0.10923   0.11604   0.11797   0.12293   0.12557

  Beta  occ. eigenvalues --  -18.97047 -18.96997 -14.21705 -14.21523 -14.21378
  Beta  occ. eigenvalues --  -14.21345 -10.18204 -10.15016 -10.10758 -10.10434
  Beta  occ. eigenvalues --  -10.10256 -10.09968 -10.07857 -10.07637 -10.06944
  Beta  occ. eigenvalues --  -10.06602 -10.06052 -10.05976 -10.05865 -10.05667
  Beta  occ. eigenvalues --   -0.93540  -0.92022  -0.83193  -0.82506  -0.79951
  Beta  occ. eigenvalues --   -0.77428  -0.74249  -0.68925  -0.65808  -0.64530
  Beta  occ. eigenvalues --   -0.63562  -0.59933  -0.56867  -0.55150  -0.52347
  Beta  occ. eigenvalues --   -0.50827  -0.48741  -0.47874  -0.45348  -0.43039
  Beta  occ. eigenvalues --   -0.41728  -0.40112  -0.39501  -0.37908  -0.36338
  Beta  occ. eigenvalues --   -0.36262  -0.36018  -0.35463  -0.34921  -0.33711
  Beta  occ. eigenvalues --   -0.33172  -0.32607  -0.31813  -0.31643  -0.30638
  Beta  occ. eigenvalues --   -0.30078  -0.29653  -0.28726  -0.28585  -0.27802
  Beta  occ. eigenvalues --   -0.27043  -0.26019  -0.25814  -0.25110  -0.24829
  Beta  occ. eigenvalues --   -0.24273  -0.23410  -0.18942  -0.17615  -0.16014
  Beta  occ. eigenvalues --   -0.15208  -0.14841  -0.13758  -0.13372  -0.09630
  Beta virt. eigenvalues --    0.06480   0.06987   0.07685   0.07897   0.08254
  Beta virt. eigenvalues --    0.08931   0.09316   0.09466   0.09878   0.10273
  Beta virt. eigenvalues --    0.10694   0.11118   0.11715   0.11957   0.12380

 Mulliken charges and spin densities:
               1          2
     1  C   -0.555866   0.001965
     2  C   -0.258303  -0.005653
     3  C   -0.169944   0.005806
     4  N   -0.001807   0.015095
     5  C    0.156346  -0.018704
     6  C    0.368595   0.070666
     7  C   -0.522667   0.006801
     8  C    0.196764  -0.031095
     9  C   -0.304209   0.141426
    10  C   -0.221197  -0.004285
    11  C   -0.627764   0.004881
    12  C   -0.728637   0.299952
    13  O   -0.287548   0.037480
    14  N   -0.063238  -0.054277
    15  C    0.628897  -0.836869
    16  C    0.037165  -0.405042
    17  N   -0.171101  -0.021920
    18  C    0.602307  -0.655010
    19  O   -0.345168   0.006690
    20  N   -0.486752   0.083187
    21  H    0.214694  -0.000348
    22  H    0.117267   0.000219
    23  H    0.120032  -0.000444
    24  H    0.133198   0.001176
    25  H    0.123675   0.001584
    26  H    0.119681   0.001836
    27  H    0.178658  -0.000417
    28  H    0.274759  -0.010404
    29  H    0.120912   0.046353
    30  H    0.147568  -0.012461
    31  H    0.093488   0.002163
    32  H    0.148249  -0.001808
    33  H    0.117688   0.011828
    34  H    0.135072   0.002700
    35  H    0.189328   0.128512
    36  H   -0.529701   0.737086
    37  H    0.198683  -0.064538
    38  H   -0.630519   0.833070
    39  H    0.217542  -0.074058
    40  H    0.507038  -0.038675
    41  H   -0.262205   0.525721
    42  H    0.019024   0.269810
 Sum of Mulliken charges =  -1.00000   1.00000

 Dipole moment (field-independent basis, Debye):
    X=              9.0367    Y=             -2.7292    Z=             -1.3216  Tot=              9.5319
 Quadrupole moment (field-independent basis, Debye-Ang):
   XX=           -190.6998   YY=           -156.7928   ZZ=           -148.7874
   XY=             11.5346   XZ=             -6.7008   YZ=              7.1985

 Summary of Natural Population Analysis:

                                       Natural Population
                Natural  -----------------------------------------------
    Atom  No    Charge         Core      Valence    Rydberg      Total
 -----------------------------------------------------------------------
      C    1   -0.29451      0.99967     2.29007    0.00477     3.29451
      C    2   -0.19851      0.99964     2.19348    0.00539     3.19851
      C    3   -0.08356      0.99963     2.07450    0.00943     3.08356
      N    4   -0.33820      0.99969     2.82653    0.01199     3.83820
      C    5    0.10392      0.99943     1.88408    0.01257     2.89608
      C    6   -0.07332      0.99943     2.06164    0.01225     3.07332
      C    7   -0.06718      0.99946     2.05936    0.00836     3.06718
      C    8   -0.05038      0.99952     2.04299    0.00788     3.05038
      C    9   -0.05807      0.99954     2.05030    0.00823     3.05807
      C   10   -0.12379      0.99948     2.11709    0.00722     3.12379
      C   11   -0.28715      0.99964     2.28287    0.00464     3.28715
      C   12    0.35286      0.99961     1.62371    0.02383     2.64714
      O   13   -0.32165      0.99988     3.31642    0.00535     4.32165
      N   14   -0.31740      0.99967     2.80753    0.01020     3.81740
      C   15   -0.09775      0.99962     2.08548    0.01265     3.09775
      C   16   -0.10006      0.99962     2.08767    0.01277     3.10006
      N   17   -0.34238      0.99967     2.83287    0.00985     3.84238
      C   18    0.40151      0.99972     1.57451    0.02426     2.59849
      O   19   -0.33852      0.99987     3.33334    0.00531     4.33852
      N   20   -0.42416      0.99972     2.91444    0.00999     3.92416
      H   21    0.11422      0.00000     0.38493    0.00085     0.38578
      H   22    0.09399      0.00000     0.40518    0.00083     0.40601
      H   23    0.09395      0.00000     0.40514    0.00091     0.40605
      H   24    0.09912      0.00000     0.39977    0.00111     0.40088
      H   25    0.08931      0.00000     0.40952    0.00117     0.41069
      H   26    0.09095      0.00000     0.40804    0.00101     0.40905
      H   27    0.09748      0.00000     0.40165    0.00088     0.40252
      H   28    0.20823      0.00000     0.28978    0.00199     0.29177
      H   29    0.09761      0.00000     0.40131    0.00108     0.40239
      H   30    0.08994      0.00000     0.40914    0.00093     0.41006
      H   31    0.09503      0.00000     0.40335    0.00162     0.40497
      H   32    0.09722      0.00000     0.40167    0.00110     0.40278
      H   33    0.09739      0.00000     0.40167    0.00094     0.40261
      H   34    0.09874      0.00000     0.40045    0.00082     0.40126
      H   35    0.19671      0.00000     0.30084    0.00245     0.30329
      H   36    0.10576      0.00000     0.39173    0.00251     0.39424
      H   37    0.09534      0.00000     0.40349    0.00117     0.40466
      H   38    0.09594      0.00000     0.40233    0.00174     0.40406
      H   39    0.10403      0.00000     0.39472    0.00125     0.39597
      H   40    0.21137      0.00000     0.28648    0.00214     0.28863
      H   41    0.19359      0.00000     0.29666    0.00975     0.30641
      H   42    0.19240      0.00000     0.30593    0.00167     0.30760
 =======================================================================
   * Total *    0.00001     19.99250    54.76265    0.24484    74.99999

 Normal termination of Gaussian 16 at Sun Dec 13 22:35:52 2020.
