 Gaussian 16, Revision A.03,

 -----------------------------------------------------------
 # opt freq B3LYP/6-31G(d) empiricaldispersion=gd3bj scf=xqc
 -----------------------------------------------------------

 ------------------------------
 CID_126547342_JID_127_neutraal
 ------------------------------
 Symbolic Z-matrix:
 Charge =  0 Multiplicity = 1

 SCF Done:  E(RB3LYP) =  -405.537154260     A.U. after   13 cycles
 SCF Done:  E(RB3LYP) =  -405.541338869     A.U. after   12 cycles
 SCF Done:  E(RB3LYP) =  -405.541647126     A.U. after   10 cycles
 SCF Done:  E(RB3LYP) =  -405.542280115     A.U. after   11 cycles
 SCF Done:  E(RB3LYP) =  -405.542508871     A.U. after   11 cycles
 SCF Done:  E(RB3LYP) =  -405.543280486     A.U. after   11 cycles
 SCF Done:  E(RB3LYP) =  -405.544237602     A.U. after   11 cycles
 SCF Done:  E(RB3LYP) =  -405.544032156     A.U. after   11 cycles
 SCF Done:  E(RB3LYP) =  -405.544371470     A.U. after   11 cycles
 SCF Done:  E(RB3LYP) =  -405.544402559     A.U. after   10 cycles
 SCF Done:  E(RB3LYP) =  -405.544404328     A.U. after    9 cycles
 SCF Done:  E(RB3LYP) =  -405.544404875     A.U. after    8 cycles
 Optimization completed.
    -- Stationary point found.

 1\1\GINC-NODE302\FOpt\RB3LYP\6-31G(d)\C9H13N1\VSC10255\08-Dec-2020\0\\
 # opt freq B3LYP/6-31G(d) empiricaldispersion=gd3bj scf=xqc\\CID_12654
 7342_JID_127_neutraal\\0,1\C,-2.0925699474,0.5717050337,-0.245948094\C
 ,-2.0047860679,-0.7949968429,0.4609296191\C,-0.6793317324,-1.486435689
 4,0.2301724666\C,0.4134317168,-0.748882452,-0.0028750837\C,1.856807667
 9,-1.1952335506,-0.0985066315\C,2.6128308037,0.050962931,0.4441339642\
 C,1.7805985354,1.2573406953,-0.0442334961\C,0.3608853746,0.7212802579,
 -0.0603821014\C,-0.809427503,1.3684291806,-0.1342089663\N,2.0951722764

 Normal termination of Gaussian 16 at Tue Dec  8 10:18:03 2020.

 --------------------------------------------------------------------
 #N Geom=AllCheck Guess=TCheck SCRF=Check GenChk RB3LYP/6-31G(d) Freq
 --------------------------------------------------------------------

 Structure from the checkpoint file:  "JID_127.chk"
 ------------------------------
 CID_126547342_JID_127_neutraal
 ------------------------------
 Charge =  0 Multiplicity = 1

 SCF Done:  E(RB3LYP) =  -405.544404875     A.U. after    1 cycles

  Exact polarizability: 119.843   2.017 102.518  -2.697  -1.715  65.909
 Approx polarizability: 162.260   1.713 154.611  -6.813  -3.354 101.953

                      1                      2                      3
                      A                      A                      A
 Frequencies --    104.2654               152.4316               195.8856
 Red. masses --      2.8628                 2.2689                 2.2985
 Frc consts  --      0.0183                 0.0311                 0.0520
 IR Inten    --      0.4599                 3.3199                 2.5711

                      4                      5                      6
                      A                      A                      A
 Frequencies --    247.2768               273.1079               301.2326
 Red. masses --      2.5015                 2.1221                 1.1815
 Frc consts  --      0.0901                 0.0933                 0.0632
 IR Inten    --      1.8205                 0.7131                49.2867

                      7                      8                      9
                      A                      A                      A
 Frequencies --    312.0878               425.2053               477.5198
 Red. masses --      2.3098                 2.7254                 3.8242
 Frc consts  --      0.1325                 0.2903                 0.5138
 IR Inten    --      6.4106                 9.0599                 2.7903

                     10                     11                     12
                      A                      A                      A
 Frequencies --    506.4406               533.8206               581.3281
 Red. masses --      3.6074                 3.9816                 2.5185
 Frc consts  --      0.5451                 0.6685                 0.5015
 IR Inten    --      0.6734                 3.6231                 2.2368

                     13                     14                     15
                      A                      A                      A
 Frequencies --    636.5028               707.9972               734.1314
 Red. masses --      2.3557                 2.6702                 3.8914
 Frc consts  --      0.5623                 0.7886                 1.2357
 IR Inten    --      1.1225                 5.2059                 0.0800

                     16                     17                     18
                      A                      A                      A
 Frequencies --    814.6824               842.5272               851.3912
 Red. masses --      1.4301                 1.6143                 1.3775
 Frc consts  --      0.5592                 0.6752                 0.5883
 IR Inten    --      5.2412                30.6685                 8.1488

                     19                     20                     21
                      A                      A                      A
 Frequencies --    871.9352               885.5613               902.4011
 Red. masses --      1.8111                 2.4072                 1.5939
 Frc consts  --      0.8113                 1.1122                 0.7647
 IR Inten    --     21.9984                 6.5787                71.4225

                     22                     23                     24
                      A                      A                      A
 Frequencies --    966.9107               972.9022               992.8659
 Red. masses --      2.0102                 2.1860                 2.0691
 Frc consts  --      1.1073                 1.2191                 1.2017
 IR Inten    --     45.2711                 4.1935                 0.9393

                     25                     26                     27
                      A                      A                      A
 Frequencies --   1052.2867              1069.2087              1091.0037
 Red. masses --      2.0362                 2.0122                 2.7238
 Frc consts  --      1.3284                 1.3553                 1.9102
 IR Inten    --      1.3217                 8.6708                 8.1793

                     28                     29                     30
                      A                      A                      A
 Frequencies --   1098.4980              1145.8563              1160.2917
 Red. masses --      1.7326                 2.1625                 1.5999
 Frc consts  --      1.2318                 1.6729                 1.2691
 IR Inten    --      3.7549                 5.2378                 6.1621

                     31                     32                     33
                      A                      A                      A
 Frequencies --   1179.1253              1203.8525              1208.5477
 Red. masses --      1.6766                 1.1509                 1.2967
 Frc consts  --      1.3734                 0.9827                 1.1158
 IR Inten    --      2.0083                 4.0498                 2.7200

                     34                     35                     36
                      A                      A                      A
 Frequencies --   1238.3988              1281.5202              1301.9198
 Red. masses --      1.6637                 1.3766                 1.2814
 Frc consts  --      1.5033                 1.3320                 1.2797
 IR Inten    --      2.9082                 2.3844                 1.9707

                     37                     38                     39
                      A                      A                      A
 Frequencies --   1327.8055              1331.5004              1346.1669
 Red. masses --      1.4232                 1.5249                 1.3066
 Frc consts  --      1.4783                 1.5928                 1.3951
 IR Inten    --      5.7801                 1.3588                 1.8836

                     40                     41                     42
                      A                      A                      A
 Frequencies --   1373.9733              1392.1212              1410.8142
 Red. masses --      1.6177                 1.5466                 1.8214
 Frc consts  --      1.7993                 1.7660                 2.1359
 IR Inten    --     15.9892                 1.4890                 3.2252

                     43                     44                     45
                      A                      A                      A
 Frequencies --   1438.0177              1501.2832              1507.6413
 Red. masses --      1.5298                 1.0808                 1.0827
 Frc consts  --      1.8639                 1.4352                 1.4500
 IR Inten    --      8.4712                 1.6465                 2.1604

                     46                     47                     48
                      A                      A                      A
 Frequencies --   1512.5921              1523.2895              1684.5673
 Red. masses --      1.0994                 1.1022                 1.1602
 Frc consts  --      1.4820                 1.5069                 1.9398
 IR Inten    --      0.7073                 1.5324                30.5574

                     49                     50                     51
                      A                      A                      A
 Frequencies --   1707.1997              1759.9734              2977.4942
 Red. masses --      5.9408                 7.5650                 1.0751
 Frc consts  --     10.2015                13.8062                 5.6158
 IR Inten    --      1.2152                 1.8061                24.0512

                     52                     53                     54
                      A                      A                      A
 Frequencies --   2989.0815              3004.9436              3029.7347
 Red. masses --      1.0703                 1.0827                 1.0709
 Frc consts  --      5.6342                 5.7602                 5.7919
 IR Inten    --     64.0448                26.6468                22.3522

                     55                     56                     57
                      A                      A                      A
 Frequencies --   3041.0575              3075.7344              3076.2703
 Red. masses --      1.0636                 1.0907                 1.0868
 Frc consts  --      5.7955                 6.0794                 6.0599
 IR Inten    --     44.9155                30.5873                50.8999

                     58                     59                     60
                      A                      A                      A
 Frequencies --   3094.0313              3102.6208              3170.5969
 Red. masses --      1.0928                 1.1022                 1.0909
 Frc consts  --      6.1635                 6.2514                 6.4610
 IR Inten    --     31.6749                51.6065                24.5722

                     61                     62                     63
                      A                      A                      A
 Frequencies --   3193.3061              3456.1204              3545.8527
 Red. masses --      1.0904                 1.0493                 1.0925
 Frc consts  --      6.5511                 7.3843                 8.0929
 IR Inten    --      6.2500                 2.3551                 1.0602

 - Thermochemistry -
 -------------------
 Temperature   298.150 Kelvin.  Pressure   1.00000 Atm.
 Atom     1 has atomic number  6 and mass  12.00000

 Molecular mass:   135.10480 amu.
 Principal axes and moments of inertia in atomic units:
                           1         2         3
     Eigenvalues --   794.408381537.259812220.11931
           X            0.99984   0.01791   0.00218
           Y           -0.01789   0.99982  -0.00689
           Z           -0.00230   0.00685   0.99997
 This molecule is an asymmetric top.
 Rotational symmetry number  1.
 Warning -- assumption of classical behavior for rotation
           may cause significant error
 Rotational temperatures (Kelvin)      0.10903     0.05634     0.03901
 Rotational constants (GHZ):           2.27181     1.17400     0.81290
 Zero-point vibrational energy     537689.8 (Joules/Mol)
                                  128.51094 (Kcal/Mol)
 Warning -- explicit consideration of  12 degrees of freedom as
           vibrations may cause significant error
 Vibrational temperatures:    150.01   219.32   281.84   355.78   392.94
          (Kelvin)            433.41   449.02   611.78   687.04   728.66
                              768.05   836.40   915.79  1018.65  1056.25
                             1172.15  1212.21  1224.96  1254.52  1274.13
                             1298.35  1391.17  1399.79  1428.51  1514.01
                             1538.35  1569.71  1580.49  1648.63  1669.40
                             1696.50  1732.08  1738.83  1781.78  1843.82
                             1873.17  1910.42  1915.73  1936.83  1976.84
                             2002.95  2029.85  2068.99  2160.01  2169.16
                             2176.28  2191.67  2423.72  2456.28  2532.21
                             4283.95  4300.62  4323.44  4359.11  4375.40
                             4425.30  4426.07  4451.62  4463.98  4561.78
                             4594.46  4972.59  5101.69

 Zero-point correction=                           0.204795 (Hartree/Particle)
 Thermal correction to Energy=                    0.213615
 Thermal correction to Enthalpy=                  0.214560
 Thermal correction to Gibbs Free Energy=         0.171509
 Sum of electronic and zero-point Energies=           -405.339610
 Sum of electronic and thermal Energies=              -405.330790
 Sum of electronic and thermal Enthalpies=            -405.329845
 Sum of electronic and thermal Free Energies=         -405.372896

                     E (Thermal)             CV                S
                      KCal/Mol        Cal/Mol-Kelvin    Cal/Mol-Kelvin
 Total                  134.046             35.731             90.607
 Electronic               0.000              0.000              0.000
 Translational            0.889              2.981             40.615
 Rotational               0.889              2.981             29.385
 Vibrational            132.268             29.770             20.607
 Vibration     1          0.605              1.946              3.373
 Vibration     2          0.619              1.900              2.642
 Vibration     3          0.636              1.846              2.171
 Vibration     4          0.661              1.767              1.750
 Vibration     5          0.676              1.723              1.576
 Vibration     6          0.693              1.671              1.410
 Vibration     7          0.700              1.651              1.351
 Vibration     8          0.787              1.415              0.874
 Vibration     9          0.834              1.300              0.717
 Vibration    10          0.862              1.236              0.642
 Vibration    11          0.889              1.175              0.579
 Vibration    12          0.938              1.072              0.483

 Optimization completed.
    -- Stationary point found.

 1\1\GINC-NODE302\Freq\RB3LYP\6-31G(d)\C9H13N1\VSC10255\08-Dec-2020\0\\
 #N Geom=AllCheck Guess=TCheck SCRF=Check GenChk RB3LYP/6-31G(d) Freq\\
 CID_126547342_JID_127_neutraal\\0,1\C,-2.0925699474,0.5717050337,-0.24
 5948094\C,-2.0047860679,-0.7949968429,0.4609296191\C,-0.6793317324,-1.
 4864356894,0.2301724666\C,0.4134317168,-0.748882452,-0.0028750837\C,1.
 8568076679,-1.1952335506,-0.0985066315\C,2.6128308037,0.050962931,0.44
 41339642\C,1.7805985354,1.2573406953,-0.0442334961\C,0.3608853746,0.72
 12802579,-0.0603821014\C,-0.809427503,1.3684291806,-0.1342089663\N,2.0

 Normal termination of Gaussian 16 at Tue Dec  8 10:22:04 2020.

 ----------------------------------------------------------------------
 # B3LYP/6-311++G(d,p) empiricaldispersion=gd3bj scf=xqc pop=npa geom=c
 heck
 ----------------------------------------------------------------------

 --------------------------------------
 CID_126547342_JID_127_Energie_neutraal
 --------------------------------------
 Structure from the checkpoint file:  "JID_127.chk"
 Charge =  0 Multiplicity = 1

 SCF Done:  E(RB3LYP) =  -405.658756378     A.U. after   14 cycles
 Normal termination of Gaussian 16 at Tue Dec  8 10:23:28 2020.

 ----------------------------------------------------------------------
 # B3LYP/6-311++G(d,p) empiricaldispersion=gd3bj scf=xqc pop=npa geom=c
 heck
 ----------------------------------------------------------------------

 ------------------------------------
 CID_126547342_JID_127_Energie_kation
 ------------------------------------
 Structure from the checkpoint file:  "JID_127.chk"
 Charge =  1 Multiplicity = 2

 SCF Done:  E(UB3LYP) =  -405.380055038     A.U. after   20 cycles
 Normal termination of Gaussian 16 at Tue Dec  8 10:25:58 2020.
 Gaussian 16:  ES64L-G16RevA.03 25-Dec-2016

 -----------------------------------
 CID_126547342_JID_127_Energie_anion
 -----------------------------------
 Structure from the checkpoint file:  "JID_127.chk"
 Charge = -1 Multiplicity = 2

                         Standard orientation:
 ---------------------------------------------------------------------
 Center     Atomic      Atomic             Coordinates (Angstroms)
 Number     Number       Type             X           Y           Z
 ---------------------------------------------------------------------
      1          6           0       -2.649819    0.143821   -0.175074
      2          6           0       -2.122722   -1.221688    0.307430
      3          6           0       -0.673921   -1.450846   -0.062203
      4          6           0        0.140941   -0.398239   -0.205190
      5          6           0        1.641270   -0.380143   -0.406174
      6          6           0        2.042527    0.943725    0.304743
      7          6           0        0.865964    1.906942    0.032026
      8          6           0       -0.336685    0.983450   -0.031250
      9          6           0       -1.645958    1.259723    0.026752
     10          7           0        2.284592   -1.615775    0.028496
     11          1           0       -2.888610    0.080504   -1.250361
     12          1           0       -3.594546    0.373816    0.330906
     13          1           0       -2.213112   -1.283246    1.405648
     14          1           0       -2.757208   -2.022000   -0.090618
     15          1           0       -0.284874   -2.464029   -0.122650
     16          1           0        1.857605   -0.270010   -1.480368
     17          1           0        2.116684    0.745070    1.382689
     18          1           0        3.010420    1.329927   -0.032322
     19          1           0        0.767438    2.693132    0.787846
     20          1           0        1.006885    2.409921   -0.935295
     21          1           0       -2.008261    2.279919    0.138203
     22          1           0        3.291853   -1.549800   -0.109910
     23          1           0        2.134002   -1.733260    1.030397
 ---------------------------------------------------------------------

 SCF Done:  E(UB3LYP) =  -405.642620229     A.U. after   33 cycles
 SCF Done:  E(UB3LYP) =  -405.642620229     a.u. after    1 cycles

 The electronic state is 2-A.
 Alpha  occ. eigenvalues --  -14.16760 -10.06991 -10.05096 -10.05075 -10.04544
 Alpha  occ. eigenvalues --  -10.03747 -10.03675 -10.02927 -10.02857 -10.02442
 Alpha  occ. eigenvalues --   -0.76840  -0.71621  -0.66803  -0.61635  -0.58888
 Alpha  occ. eigenvalues --   -0.54565  -0.47752  -0.46894  -0.44133  -0.38429
 Alpha  occ. eigenvalues --   -0.35382  -0.34436  -0.33133  -0.31375  -0.30761
 Alpha  occ. eigenvalues --   -0.28175  -0.27143  -0.25834  -0.25326  -0.24467
 Alpha  occ. eigenvalues --   -0.23124  -0.21853  -0.20495  -0.17979  -0.15838
 Alpha  occ. eigenvalues --   -0.11741  -0.08298   0.05568
 Alpha virt. eigenvalues --    0.08022   0.08505   0.09166   0.09934   0.10205
 Alpha virt. eigenvalues --    0.10533   0.11536   0.11860   0.12571   0.13087
 Alpha virt. eigenvalues --    0.13413   0.14069   0.15581   0.17155   0.17944

  Beta  occ. eigenvalues --  -14.16721 -10.06985 -10.05099 -10.05076 -10.04537
  Beta  occ. eigenvalues --  -10.03710 -10.03653 -10.02901 -10.02709 -10.02252
  Beta  occ. eigenvalues --   -0.76748  -0.71461  -0.66693  -0.61373  -0.58803
  Beta  occ. eigenvalues --   -0.54451  -0.47528  -0.46823  -0.43958  -0.38320
  Beta  occ. eigenvalues --   -0.35254  -0.34293  -0.33046  -0.31259  -0.30637
  Beta  occ. eigenvalues --   -0.28093  -0.27059  -0.25752  -0.25229  -0.24328
  Beta  occ. eigenvalues --   -0.22976  -0.21773  -0.20392  -0.17901  -0.15377
  Beta  occ. eigenvalues --   -0.11675  -0.07482
  Beta virt. eigenvalues --    0.07926   0.08958   0.09161   0.09495   0.10360
  Beta virt. eigenvalues --    0.10652   0.11049   0.11745   0.12046   0.12874
  Beta virt. eigenvalues --    0.13539   0.13754   0.14034   0.15829   0.17150

 Mulliken charges and spin densities:
               1          2
     1  C   -0.016528  -0.360775
     2  C   -0.409150  -0.137560
     3  C   -0.652407   0.776821
     4  C    1.835317  -1.966445
     5  C   -1.113063   0.794494
     6  C    0.608596  -0.985956
     7  C    0.232808  -0.662032
     8  C    0.070412   0.405683
     9  C   -0.348619   0.270364
    10  N   -0.252190  -0.049977
    11  H    0.005927   0.110994
    12  H    0.067443   0.041825
    13  H    0.026479   0.081595
    14  H    0.116268  -0.000882
    15  H    0.036840   0.132845
    16  H   -0.125147   0.315796
    17  H    0.073654   0.055706
    18  H   -0.827781   0.985008
    19  H    0.176415  -0.046056
    20  H   -0.186098   0.344011
    21  H   -0.074056   0.210288
    22  H   -0.400500   0.644452
    23  H    0.155379   0.039805
 Sum of Mulliken charges =  -1.00000   1.00000

 Dipole moment (field-independent basis, Debye):
    X=             -6.3158    Y=             -0.2196    Z=              2.7422  Tot=              6.8889
 Quadrupole moment (field-independent basis, Debye-Ang):
   XX=           -118.3879   YY=            -92.0379   ZZ=            -81.2813
   XY=              2.4379   XZ=              6.0061   YZ=              1.5202

 Summary of Natural Population Analysis:

                                       Natural Population
                Natural  -----------------------------------------------
    Atom  No    Charge         Core      Valence    Rydberg      Total
 -----------------------------------------------------------------------
      C    1   -0.19833      0.99963     2.19076    0.00793     3.19833
      C    2   -0.19900      0.99963     2.19180    0.00756     3.19900
      C    3   -0.05229      0.99946     2.04418    0.00865     3.05229
      C    4   -0.03032      0.99945     2.01853    0.01234     3.03032
      C    5   -0.02122      0.99955     2.00737    0.01430     3.02122
      C    6   -0.18832      0.99963     2.17950    0.00919     3.18832
      C    7   -0.19987      0.99961     2.19149    0.00878     3.19987
      C    8   -0.02046      0.99947     2.00907    0.01193     3.02046
      C    9   -0.06893      0.99946     2.06069    0.00878     3.06893
      N   10   -0.41882      0.99977     2.90772    0.01133     3.91882
      H   11    0.09383      0.00000     0.40449    0.00168     0.40617
      H   12    0.09412      0.00000     0.40414    0.00174     0.40588
      H   13    0.09299      0.00000     0.40525    0.00176     0.40701
      H   14    0.09453      0.00000     0.40407    0.00140     0.40547
      H   15    0.09781      0.00000     0.40089    0.00130     0.40219
      H   16    0.09562      0.00000     0.40087    0.00352     0.40438
      H   17    0.08932      0.00000     0.40911    0.00157     0.41068
      H   18    0.10257      0.00000     0.39237    0.00505     0.39743
      H   19    0.09834      0.00000     0.40067    0.00099     0.40166
      H   20    0.10267      0.00000     0.39534    0.00199     0.39733
      H   21    0.08870      0.00000     0.41026    0.00103     0.41130
      H   22    0.17770      0.00000     0.31840    0.00390     0.32230
      H   23    0.16935      0.00000     0.32870    0.00195     0.33065
 =======================================================================
   * Total *   -0.00000      9.99566    26.87566    0.12868    37.00000

 Normal termination of Gaussian 16 at Tue Dec  8 10:30:33 2020.
