 Gaussian 16, Revision A.03,

 -----------------------------------------------------------
 # opt freq B3LYP/6-31G(d) empiricaldispersion=gd3bj scf=xqc
 -----------------------------------------------------------

 ------------------------------
 CID_83845666_JID_1514_neutraal
 ------------------------------
 Symbolic Z-matrix:
 Charge =  0 Multiplicity = 1

 SCF Done:  E(RB3LYP) =  -552.553872859     A.U. after   15 cycles
 SCF Done:  E(RB3LYP) =  -552.562866351     A.U. after   13 cycles
 SCF Done:  E(RB3LYP) =  -552.563279748     A.U. after   13 cycles
 SCF Done:  E(RB3LYP) =  -552.564361608     A.U. after   14 cycles
 SCF Done:  E(RB3LYP) =  -552.565147361     A.U. after   13 cycles
 SCF Done:  E(RB3LYP) =  -552.566145914     A.U. after   13 cycles
 SCF Done:  E(RB3LYP) =  -552.567122317     A.U. after   13 cycles
 SCF Done:  E(RB3LYP) =  -552.567902877     A.U. after   14 cycles
 SCF Done:  E(RB3LYP) =  -552.568523404     A.U. after   14 cycles
 SCF Done:  E(RB3LYP) =  -552.568779983     A.U. after   12 cycles
 SCF Done:  E(RB3LYP) =  -552.569004799     A.U. after   11 cycles
 SCF Done:  E(RB3LYP) =  -552.569050923     A.U. after   12 cycles
 SCF Done:  E(RB3LYP) =  -552.569071561     A.U. after   11 cycles
 SCF Done:  E(RB3LYP) =  -552.569074483     A.U. after    9 cycles
 SCF Done:  E(RB3LYP) =  -552.569075257     A.U. after    9 cycles
 SCF Done:  E(RB3LYP) =  -552.569075321     A.U. after    7 cycles
 Optimization completed.
    -- Stationary point found.
 Normal termination of Gaussian 16 at Tue Dec  8 20:16:42 2020.

 --------------------------------------------------------------------
 #N Geom=AllCheck Guess=TCheck SCRF=Check GenChk RB3LYP/6-31G(d) Freq
 --------------------------------------------------------------------

 Structure from the checkpoint file:  "JID_1514.chk"
 ------------------------------
 CID_83845666_JID_1514_neutraal
 ------------------------------
 Charge =  0 Multiplicity = 1

 SCF Done:  E(RB3LYP) =  -552.569075321     A.U. after    1 cycles

  Exact polarizability: 120.926   3.537  79.389  -6.740  -4.522  56.859
 Approx polarizability: 163.912  12.630 138.153 -18.004 -14.135  89.460

                      1                      2                      3
                      A                      A                      A
 Frequencies --     38.3224                51.8595                81.1534
 Red. masses --      3.9398                 2.9021                 6.0670
 Frc consts  --      0.0034                 0.0046                 0.0235
 IR Inten    --      1.1997                 0.5693                 2.0513

                      4                      5                      6
                      A                      A                      A
 Frequencies --    133.3959               196.5674               214.3574
 Red. masses --      4.0767                 3.6568                 5.6566
 Frc consts  --      0.0427                 0.0832                 0.1531
 IR Inten    --      5.3735                 0.4481                 2.7115

                      7                      8                      9
                      A                      A                      A
 Frequencies --    228.0263               291.8767               333.7482
 Red. masses --      1.1800                 3.7214                 5.8538
 Frc consts  --      0.0362                 0.1868                 0.3842
 IR Inten    --      0.6185                 1.3283                 1.3402

                     10                     11                     12
                      A                      A                      A
 Frequencies --    376.2831               504.2948               518.6813
 Red. masses --      2.3095                 5.7696                 3.2386
 Frc consts  --      0.1927                 0.8645                 0.5133
 IR Inten    --      1.2129                11.3993                 5.3899

                     13                     14                     15
                      A                      A                      A
 Frequencies --    571.9843               584.3843               698.1945
 Red. masses --      3.4626                 3.6246                 5.7957
 Frc consts  --      0.6675                 0.7293                 1.6646
 IR Inten    --      7.4816                32.3171                 5.0116

                     16                     17                     18
                      A                      A                      A
 Frequencies --    705.0268               730.1921               763.7312
 Red. masses --      2.1187                 3.5050                 3.3885
 Frc consts  --      0.6205                 1.1011                 1.1645
 IR Inten    --     60.8494                 3.8832                88.7432

                     19                     20                     21
                      A                      A                      A
 Frequencies --    794.1681               799.8807               836.5032
 Red. masses --      1.7600                 1.2820                 3.5143
 Frc consts  --      0.6540                 0.4833                 1.4488
 IR Inten    --     22.0710                 4.2915                 5.7780

                     22                     23                     24
                      A                      A                      A
 Frequencies --    889.8509               921.8352               968.4369
 Red. masses --      5.7052                 1.8622                 1.7034
 Frc consts  --      2.6617                 0.9324                 0.9413
 IR Inten    --     67.4246                28.4874                27.2321

                     25                     26                     27
                      A                      A                      A
 Frequencies --   1019.3573              1053.1434              1077.6886
 Red. masses --      3.4350                 2.3567                 3.7108
 Frc consts  --      2.1030                 1.5400                 2.5392
 IR Inten    --      5.7114                28.3743                57.1314

                     28                     29                     30
                      A                      A                      A
 Frequencies --   1092.1920              1154.9053              1191.6059
 Red. masses --      1.6757                 2.9942                 1.6267
 Frc consts  --      1.1777                 2.3530                 1.3609
 IR Inten    --      3.0483                88.3629                 2.2003

                     31                     32                     33
                      A                      A                      A
 Frequencies --   1207.6696              1224.1071              1292.0841
 Red. masses --      1.9245                 1.4364                 1.2180
 Frc consts  --      1.6537                 1.2681                 1.1981
 IR Inten    --     46.0444                 9.0962                 7.8639

                     34                     35                     36
                      A                      A                      A
 Frequencies --   1342.9563              1359.1405              1376.0559
 Red. masses --      1.6195                 1.5994                 1.6907
 Frc consts  --      1.7209                 1.7407                 1.8862
 IR Inten    --      9.8886                12.4717                59.1892

                     37                     38                     39
                      A                      A                      A
 Frequencies --   1442.4776              1460.1107              1476.3904
 Red. masses --      1.2114                 2.2831                 1.1475
 Frc consts  --      1.4852                 2.8677                 1.4737
 IR Inten    --      1.7829                60.8183                 9.2616

                     40                     41                     42
                      A                      A                      A
 Frequencies --   1500.9877              1533.4402              1534.9014
 Red. masses --      1.0810                 1.0426                 1.0551
 Frc consts  --      1.4349                 1.4444                 1.4645
 IR Inten    --      5.0041                 7.9426                 8.4790

                     43                     44                     45
                      A                      A                      A
 Frequencies --   1680.0582              1803.3700              1879.4205
 Red. masses --      7.1973                10.4989                12.4640
 Frc consts  --     11.9694                20.1170                25.9392
 IR Inten    --    119.5299               125.3058               589.8177

                     46                     47                     48
                      A                      A                      A
 Frequencies --   3037.0354              3041.9140              3061.9726
 Red. masses --      1.0690                 1.0676                 1.0354
 Frc consts  --      5.8092                 5.8204                 5.7194
 IR Inten    --     10.5250                 6.5054                19.8507

                     49                     50                     51
                      A                      A                      A
 Frequencies --   3118.2378              3120.8028              3136.1333
 Red. masses --      1.0978                 1.0926                 1.1032
 Frc consts  --      6.2889                 6.2699                 6.3928
 IR Inten    --      2.1034                 4.2576                19.6082

                     52                     53                     54
                      A                      A                      A
 Frequencies --   3139.2727              3296.4041              3489.1446
 Red. masses --      1.1004                 1.0980                 1.0771
 Frc consts  --      6.3896                 7.0294                 7.7255
 IR Inten    --     32.0702                 0.3178               114.5563

 - Thermochemistry -
 -------------------
 Temperature   298.150 Kelvin.  Pressure   1.00000 Atm.
 Atom     1 has atomic number  6 and mass  12.00000

 Molecular mass:   155.05824 amu.
 Principal axes and moments of inertia in atomic units:
                           1         2         3
     Eigenvalues --   534.455403548.915413823.00775
           X            0.99992  -0.01221  -0.00259
           Y            0.01223   0.99990   0.00647
           Z            0.00251  -0.00650   0.99998
 This molecule is an asymmetric top.
 Rotational symmetry number  1.
 Warning -- assumption of classical behavior for rotation
           may cause significant error
 Rotational temperatures (Kelvin)      0.16206     0.02441     0.02266
 Rotational constants (GHZ):           3.37679     0.50853     0.47207
 Zero-point vibrational energy     414959.0 (Joules/Mol)
                                   99.17759 (Kcal/Mol)
 Warning -- explicit consideration of  14 degrees of freedom as
           vibrations may cause significant error
 Vibrational temperatures:     55.14    74.61   116.76   191.93   282.82
          (Kelvin)            308.41   328.08   419.95   480.19   541.39
                              725.57   746.27   822.96   840.80  1004.55
                             1014.38  1050.58  1098.84  1142.63  1150.85
                             1203.54  1280.30  1326.32  1393.36  1466.63
                             1515.24  1550.55  1571.42  1661.65  1714.46
                             1737.57  1761.22  1859.02  1932.21  1955.50
                             1979.84  2075.40  2100.77  2124.20  2159.59
                             2206.28  2208.38  2417.23  2594.65  2704.07
                             4369.62  4376.64  4405.50  4486.45  4490.14
                             4512.20  4516.71  4742.79  5020.10

 Zero-point correction=                           0.158050 (Hartree/Particle)
 Thermal correction to Energy=                    0.168608
 Thermal correction to Enthalpy=                  0.169552
 Thermal correction to Gibbs Free Energy=         0.120595
 Sum of electronic and zero-point Energies=           -552.411026
 Sum of electronic and thermal Energies=              -552.400468
 Sum of electronic and thermal Enthalpies=            -552.399523
 Sum of electronic and thermal Free Energies=         -552.448481

                     E (Thermal)             CV                S
                      KCal/Mol        Cal/Mol-Kelvin    Cal/Mol-Kelvin
 Total                  105.803             38.296            103.039
 Electronic               0.000              0.000              0.000
 Translational            0.889              2.981             41.025
 Rotational               0.889              2.981             30.362
 Vibrational            104.025             32.334             31.652
 Vibration     1          0.594              1.982              5.344
 Vibration     2          0.596              1.977              4.745
 Vibration     3          0.600              1.962              3.863
 Vibration     4          0.613              1.920              2.896
 Vibration     5          0.636              1.845              2.165
 Vibration     6          0.644              1.819              2.006
 Vibration     7          0.651              1.798              1.894
 Vibration     8          0.687              1.689              1.463
 Vibration     9          0.715              1.608              1.242
 Vibration    10          0.747              1.521              1.054
 Vibration    11          0.860              1.240              0.647
 Vibration    12          0.874              1.209              0.613
 Vibration    13          0.928              1.092              0.500
 Vibration    14          0.941              1.065              0.477

 Optimization completed.
    -- Stationary point found.
 Normal termination of Gaussian 16 at Tue Dec  8 20:20:12 2020.

 ----------------------------------------------------------------------
 # B3LYP/6-311++G(d,p) empiricaldispersion=gd3bj scf=xqc pop=npa geom=c
 heck
 ----------------------------------------------------------------------

 --------------------------------------
 CID_83845666_JID_1514_Energie_neutraal
 --------------------------------------
 Structure from the checkpoint file:  "JID_1514.chk"
 Charge =  0 Multiplicity = 1

 SCF Done:  E(RB3LYP) =  -552.733885166     A.U. after   15 cycles
 Normal termination of Gaussian 16 at Tue Dec  8 20:21:31 2020.

 ----------------------------------------------------------------------
 # B3LYP/6-311++G(d,p) empiricaldispersion=gd3bj scf=xqc pop=npa geom=c
 heck
 ----------------------------------------------------------------------

 ------------------------------------
 CID_83845666_JID_1514_Energie_kation
 ------------------------------------
 Structure from the checkpoint file:  "JID_1514.chk"
 Charge =  1 Multiplicity = 2

 SCF Done:  E(UB3LYP) =  -552.408916290     A.U. after   24 cycles
 Normal termination of Gaussian 16 at Tue Dec  8 20:24:15 2020.
 Gaussian 16:  ES64L-G16RevA.03 25-Dec-2016

 ----------------------------------------------------------------------
 # B3LYP/6-311++G(d,p) empiricaldispersion=gd3bj scf=xqc pop=npa geom=c
 heck
 ----------------------------------------------------------------------

 -----------------------------------
 CID_83845666_JID_1514_Energie_anion
 -----------------------------------
 Structure from the checkpoint file:  "JID_1514.chk"
 Charge = -1 Multiplicity = 2

                         Standard orientation:
 ---------------------------------------------------------------------
 Center     Atomic      Atomic             Coordinates (Angstroms)
 Number     Number       Type             X           Y           Z
 ---------------------------------------------------------------------
      1          6           0       -3.964147    0.668596    0.446556
      2          6           0       -3.137130    0.084989   -0.711893
      3          6           0       -1.766138   -0.393012   -0.280602
      4          8           0       -1.400963   -1.543324   -0.446045
      5          6           0       -0.863231    0.636564    0.416512
      6          6           0        0.594924    0.343718    0.276136
      7          6           0        1.608171    1.118963   -0.172125
      8          6           0        2.819368    0.315272   -0.159706
      9          8           0        3.966864    0.536483   -0.457397
     10          8           0        2.435231   -0.954755    0.324972
     11          7           0        1.073174   -0.888604    0.690694
     12          1           0       -4.103770   -0.071042    1.241968
     13          1           0       -4.953541    0.965750    0.086920
     14          1           0       -3.490183    1.554079    0.882538
     15          1           0       -3.649828   -0.764722   -1.170637
     16          1           0       -2.998643    0.853897   -1.485244
     17          1           0       -1.078370    1.645061    0.052324
     18          1           0       -1.144297    0.621262    1.480125
     19          1           0        1.570280    2.150342   -0.486672
     20          1           0        0.576191   -1.692177    0.302315
 ---------------------------------------------------------------------

 SCF Done:  E(UB3LYP) =  -552.738216155     A.U. after   32 cycles

 The electronic state is 2-A.
 Alpha  occ. eigenvalues --  -19.08578 -18.99314 -18.96948 -14.28357 -10.18509
 Alpha  occ. eigenvalues --  -10.12835 -10.10783 -10.08068 -10.06910 -10.05309
 Alpha  occ. eigenvalues --  -10.05076  -1.02839  -0.92983  -0.91057  -0.78106
 Alpha  occ. eigenvalues --   -0.69187  -0.66733  -0.62773  -0.53174  -0.50655
 Alpha  occ. eigenvalues --   -0.47899  -0.44783  -0.40369  -0.38064  -0.35745
 Alpha  occ. eigenvalues --   -0.35141  -0.34232  -0.32908  -0.32034  -0.30655
 Alpha  occ. eigenvalues --   -0.30569  -0.28325  -0.26874  -0.26324  -0.25508
 Alpha  occ. eigenvalues --   -0.23851  -0.22734  -0.19738  -0.17490  -0.14042
 Alpha  occ. eigenvalues --   -0.12103   0.04474
 Alpha virt. eigenvalues --    0.06930   0.08371   0.08670   0.09912   0.10457
 Alpha virt. eigenvalues --    0.11088   0.12069   0.12435   0.12922   0.13754
 Alpha virt. eigenvalues --    0.15057   0.15662   0.16301   0.16952   0.17298

  Beta  occ. eigenvalues --  -19.08564 -18.99291 -18.96539 -14.28356 -10.18485
  Beta  occ. eigenvalues --  -10.12743 -10.10339 -10.08109 -10.06914 -10.05334
  Beta  occ. eigenvalues --  -10.04985  -1.02812  -0.92938  -0.90268  -0.78022
  Beta  occ. eigenvalues --   -0.69102  -0.66446  -0.62649  -0.52845  -0.50614
  Beta  occ. eigenvalues --   -0.47740  -0.44631  -0.39849  -0.37880  -0.35538
  Beta  occ. eigenvalues --   -0.34812  -0.34062  -0.32814  -0.31706  -0.30437
  Beta  occ. eigenvalues --   -0.30302  -0.28230  -0.26510  -0.26182  -0.25174
  Beta  occ. eigenvalues --   -0.23662  -0.21089  -0.19512  -0.17438  -0.13899
  Beta  occ. eigenvalues --   -0.11838
  Beta virt. eigenvalues --    0.07495   0.08093   0.09019   0.09977   0.10478
  Beta virt. eigenvalues --    0.11420   0.12113   0.12313   0.12882   0.13257
  Beta virt. eigenvalues --    0.14056   0.15178   0.15873   0.16310   0.16981

 Mulliken charges and spin densities:
               1          2
     1  C    1.013339  -1.558869
     2  C   -1.054076   0.760813
     3  C    0.805777  -0.343911
     4  O   -0.396422   0.135771
     5  C   -0.675031  -0.316756
     6  C    0.823690   0.014865
     7  C   -0.124175  -0.025947
     8  C   -0.105255   0.006665
     9  O   -0.373478   0.007104
    10  O    0.120534   0.006151
    11  N   -0.387643  -0.002839
    12  H    0.059641   0.072782
    13  H   -0.960000   1.131724
    14  H   -0.172946   0.308522
    15  H   -0.012601   0.165370
    16  H   -0.177293   0.340504
    17  H   -0.113450   0.294361
    18  H    0.251781  -0.037455
    19  H    0.133277   0.042245
    20  H    0.344331  -0.001101
 Sum of Mulliken charges =  -1.00000   1.00000

 Dipole moment (field-independent basis, Debye):
    X=              4.1489    Y=             -1.1631    Z=              2.3783  Tot=              4.9216
 Quadrupole moment (field-independent basis, Debye-Ang):
   XX=           -160.3494   YY=            -87.4735   ZZ=            -79.4111
   XY=             10.9646   XZ=             -4.7164   YZ=              1.9729

 Summary of Natural Population Analysis:

                                       Natural Population
                Natural  -----------------------------------------------
    Atom  No    Charge         Core      Valence    Rydberg      Total
 -----------------------------------------------------------------------
      C    1   -0.28114      0.99966     2.27604    0.00544     3.28114
      C    2   -0.23528      0.99960     2.22636    0.00932     3.23528
      C    3    0.35144      0.99968     1.62720    0.02168     2.64856
      O    4   -0.27750      0.99987     3.27150    0.00614     4.27750
      C    5   -0.26388      0.99955     2.25499    0.00933     3.26388
      C    6    0.13998      0.99954     1.84822    0.01225     2.86002
      C    7   -0.21207      0.99942     2.20351    0.00914     3.21207
      C    8    0.37319      0.99967     1.60265    0.02449     2.62681
      O    9   -0.31168      0.99986     3.30515    0.00666     4.31168
      O   10   -0.20349      0.99988     3.19529    0.00831     4.20349
      N   11   -0.14842      0.99963     2.63578    0.01301     3.64842
      H   12    0.09357      0.00000     0.40545    0.00098     0.40643
      H   13    0.10547      0.00000     0.38926    0.00526     0.39453
      H   14    0.09465      0.00000     0.40433    0.00102     0.40535
      H   15    0.10437      0.00000     0.39457    0.00106     0.39563
      H   16    0.10901      0.00000     0.38741    0.00357     0.39099
      H   17    0.11485      0.00000     0.38404    0.00111     0.38515
      H   18    0.12518      0.00000     0.37372    0.00111     0.37482
      H   19    0.11284      0.00000     0.38628    0.00088     0.38716
      H   20    0.20890      0.00000     0.28950    0.00161     0.29110
 =======================================================================
   * Total *    0.00000     10.99636    29.86126    0.14238    41.00000

 Normal termination of Gaussian 16 at Tue Dec  8 20:30:21 2020.
