 Gaussian 16, Revision A.03,

 -----------------------------------------------------------
 # opt freq B3LYP/6-31G(d) empiricaldispersion=gd3bj scf=xqc
 -----------------------------------------------------------

 ------------------------------
 CID_80303297_JID_6367_neutraal
 ------------------------------
 Symbolic Z-matrix:
 Charge =  0 Multiplicity = 1

 SCF Done:  E(RB3LYP) =  -1047.47662306     A.U. after   15 cycles
 SCF Done:  E(RB3LYP) =  -1047.47478070     A.U. after   16 cycles
 SCF Done:  E(RB3LYP) =  -1047.48108465     A.U. after   13 cycles
 SCF Done:  E(RB3LYP) =  -1047.48005835     A.U. after   15 cycles
 SCF Done:  E(RB3LYP) =  -1047.48258505     A.U. after   13 cycles
 SCF Done:  E(RB3LYP) =  -1047.48530153     A.U. after   12 cycles
 SCF Done:  E(RB3LYP) =  -1047.48580075     A.U. after   12 cycles
 SCF Done:  E(RB3LYP) =  -1047.48618942     A.U. after   12 cycles
 SCF Done:  E(RB3LYP) =  -1047.48650529     A.U. after   12 cycles
 SCF Done:  E(RB3LYP) =  -1047.48675175     A.U. after   12 cycles
 SCF Done:  E(RB3LYP) =  -1047.48691528     A.U. after   10 cycles
 SCF Done:  E(RB3LYP) =  -1047.48692054     A.U. after    9 cycles
 SCF Done:  E(RB3LYP) =  -1047.48692739     A.U. after   10 cycles
 SCF Done:  E(RB3LYP) =  -1047.48693335     A.U. after   11 cycles
 SCF Done:  E(RB3LYP) =  -1047.48693366     A.U. after    8 cycles
 SCF Done:  E(RB3LYP) =  -1047.48693369     A.U. after    7 cycles
 Optimization completed.
    -- Stationary point found.
 Normal termination of Gaussian 16 at Thu Dec 10 22:26:38 2020.

 --------------------------------------------------------------------
 #N Geom=AllCheck Guess=TCheck SCRF=Check GenChk RB3LYP/6-31G(d) Freq
 --------------------------------------------------------------------

 Structure from the checkpoint file:  "JID_6367.chk"
 ------------------------------
 CID_80303297_JID_6367_neutraal
 ------------------------------
 Charge =  0 Multiplicity = 1

 SCF Done:  E(RB3LYP) =  -1047.48693369     A.U. after    1 cycles

  Exact polarizability: 207.933  11.670 167.847   5.141 -10.660  91.500
 Approx polarizability: 292.621  30.376 311.810   6.455 -35.421 155.604

                      1                      2                      3
                      A                      A                      A
 Frequencies --     24.9740                37.2148                81.4911
 Red. masses --      7.6471                 4.6845                 5.9532
 Frc consts  --      0.0028                 0.0038                 0.0233
 IR Inten    --      1.3693                 0.2025                 5.4317

                      4                      5                      6
                      A                      A                      A
 Frequencies --    102.4854               131.1038               136.9689
 Red. masses --      4.6569                 1.0959                 4.7944
 Frc consts  --      0.0288                 0.0111                 0.0530
 IR Inten    --      1.5935                 0.6765                 1.7750

                      7                      8                      9
                      A                      A                      A
 Frequencies --    182.6533               213.2309               241.9535
 Red. masses --      6.5042                 4.3843                 4.4418
 Frc consts  --      0.1278                 0.1174                 0.1532
 IR Inten    --      0.3200                 4.2660                 0.7099

                     10                     11                     12
                      A                      A                      A
 Frequencies --    265.8444               288.5652               345.8025
 Red. masses --      4.9478                 4.0151                 3.8674
 Frc consts  --      0.2060                 0.1970                 0.2725
 IR Inten    --      0.0299                13.5121                 3.8429

                     13                     14                     15
                      A                      A                      A
 Frequencies --    371.7477               411.5481               440.0386
 Red. masses --      4.5009                 2.9617                 3.4459
 Frc consts  --      0.3665                 0.2956                 0.3931
 IR Inten    --      5.1124                 2.5262                 4.0876

                     16                     17                     18
                      A                      A                      A
 Frequencies --    509.9566               525.3486               533.2553
 Red. masses --      1.4759                 2.6926                 5.2698
 Frc consts  --      0.2261                 0.4378                 0.8829
 IR Inten    --     39.2491                20.8596                 1.0273

                     19                     20                     21
                      A                      A                      A
 Frequencies --    559.0277               564.2460               570.4732
 Red. masses --      3.9451                 3.5764                 5.7698
 Frc consts  --      0.7264                 0.6709                 1.1063
 IR Inten    --      6.8838                10.0610                 2.6361

                     22                     23                     24
                      A                      A                      A
 Frequencies --    582.4670               620.7444               652.4023
 Red. masses --      4.8471                 4.4656                 5.2916
 Frc consts  --      0.9689                 1.0138                 1.3270
 IR Inten    --      1.2978                20.7469                 1.0127

                     25                     26                     27
                      A                      A                      A
 Frequencies --    682.9282               703.8028               738.0349
 Red. masses --      6.2255                 4.3739                 2.6661
 Frc consts  --      1.7107                 1.2765                 0.8556
 IR Inten    --      9.3781                 3.5697                37.2078

                     28                     29                     30
                      A                      A                      A
 Frequencies --    746.7504               770.3186               773.9657
 Red. masses --      1.3108                 1.3106                 1.3748
 Frc consts  --      0.4307                 0.4582                 0.4852
 IR Inten    --      7.0240                39.9309               241.9604

                     31                     32                     33
                      A                      A                      A
 Frequencies --    835.7641               860.4993               863.3073
 Red. masses --      3.7467                 2.0304                 3.6473
 Frc consts  --      1.5419                 0.8858                 1.6016
 IR Inten    --      9.9924                 2.9635                 6.2829

                     34                     35                     36
                      A                      A                      A
 Frequencies --    870.3424               955.1776               967.9936
 Red. masses --      3.4226                 2.4562                 1.3308
 Frc consts  --      1.5275                 1.3203                 0.7347
 IR Inten    --      5.2892                32.1048                 1.7984

                     37                     38                     39
                      A                      A                      A
 Frequencies --    986.4368              1001.0345              1018.8223
 Red. masses --      1.3038                 4.4064                 2.1874
 Frc consts  --      0.7475                 2.6015                 1.3377
 IR Inten    --      0.4185                18.2824                 5.7499

                     40                     41                     42
                      A                      A                      A
 Frequencies --   1043.6935              1077.3184              1080.3887
 Red. masses --      2.2167                 2.0721                 1.5085
 Frc consts  --      1.4227                 1.4169                 1.0374
 IR Inten    --     15.7486                 1.2620                 3.2918

                     43                     44                     45
                      A                      A                      A
 Frequencies --   1100.6138              1134.8664              1181.4237
 Red. masses --      1.8471                 2.0769                 1.3242
 Frc consts  --      1.3183                 1.5760                 1.0889
 IR Inten    --      3.4748                36.3609                32.1517

                     46                     47                     48
                      A                      A                      A
 Frequencies --   1187.3326              1201.3010              1233.0881
 Red. masses --      1.3478                 1.1387                 2.2594
 Frc consts  --      1.1194                 0.9682                 2.0241
 IR Inten    --      4.1084                20.5361               189.2210

                     49                     50                     51
                      A                      A                      A
 Frequencies --   1292.3194              1309.7517              1319.9193
 Red. masses --      2.3311                 1.9222                 1.6797
 Frc consts  --      2.2938                 1.9428                 1.7241
 IR Inten    --     16.2348                17.8656               112.7950

                     52                     53                     54
                      A                      A                      A
 Frequencies --   1357.2066              1363.7004              1387.1246
 Red. masses --      3.1863                 1.8731                 5.6956
 Frc consts  --      3.4581                 2.0524                 6.4569
 IR Inten    --     46.4987                36.0047                 9.2032

                     55                     56                     57
                      A                      A                      A
 Frequencies --   1442.4196              1501.2768              1505.5980
 Red. masses --      1.2721                 2.0806                 1.2416
 Frc consts  --      1.5594                 2.7628                 1.6583
 IR Inten    --      1.7759                92.0465                 4.4416

                     58                     59                     60
                      A                      A                      A
 Frequencies --   1506.9910              1513.2836              1532.9105
 Red. masses --      1.0445                 1.2064                 3.7810
 Frc consts  --      1.3976                 1.6277                 5.2347
 IR Inten    --      6.8591                 5.6030                15.8417

                     61                     62                     63
                      A                      A                      A
 Frequencies --   1539.6511              1596.4559              1622.3812
 Red. masses --      3.3236                 4.7780                 5.8746
 Frc consts  --      4.6420                 7.1748                 9.1103
 IR Inten    --     63.6917                34.9971                32.4334

                     64                     65                     66
                      A                      A                      A
 Frequencies --   1666.6081              1744.8600              1748.9876
 Red. masses --      5.4160                 1.1613                 8.8144
 Frc consts  --      8.8633                 2.0832                15.8861
 IR Inten    --    108.6274                77.5333               151.3558

                     67                     68                     69
                      A                      A                      A
 Frequencies --   3053.1318              3097.1625              3108.1138
 Red. masses --      1.0370                 1.0589                 1.1015
 Frc consts  --      5.6955                 5.9844                 6.2692
 IR Inten    --     23.1687                 6.0126                15.3395

                     70                     71                     72
                      A                      A                      A
 Frequencies --   3142.5198              3155.6223              3169.8598
 Red. masses --      1.1013                 1.1066                 1.0874
 Frc consts  --      6.4080                 6.4927                 6.4375
 IR Inten    --     15.4228                 0.5473                12.5324

                     73                     74                     75
                      A                      A                      A
 Frequencies --   3192.8384              3210.0716              3229.0813
 Red. masses --      1.0903                 1.0926                 1.0933
 Frc consts  --      6.5488                 6.6333                 6.7167
 IR Inten    --     19.7638                18.4655                10.8710

                     76                     77                     78
                      A                      A                      A
 Frequencies --   3277.8277              3396.5727              3609.2934
 Red. masses --      1.0948                 1.0653                 1.0848
 Frc consts  --      6.9304                 7.2410                 8.3263
 IR Inten    --      1.2197               585.8235                44.7298

 - Thermochemistry -
 -------------------
 Temperature   298.150 Kelvin.  Pressure   1.00000 Atm.
 Atom     1 has atomic number  6 and mass  12.00000

 Molecular mass:   232.06703 amu.
 Principal axes and moments of inertia in atomic units:
                           1         2         3
     Eigenvalues --  1919.930516186.271777429.94572
           X            0.99989  -0.01477  -0.00294
           Y            0.01479   0.99985   0.00945
           Z            0.00280  -0.00949   0.99995
 This molecule is an asymmetric top.
 Rotational symmetry number  1.
 Warning -- assumption of classical behavior for rotation
           may cause significant error
 Rotational temperatures (Kelvin)      0.04511     0.01400     0.01166
 Rotational constants (GHZ):           0.94000     0.29173     0.24290
 Zero-point vibrational energy     580202.5 (Joules/Mol)
                                  138.67173 (Kcal/Mol)
 Warning -- explicit consideration of  23 degrees of freedom as
           vibrations may cause significant error
 Vibrational temperatures:     35.93    53.54   117.25   147.45   188.63
          (Kelvin)            197.07   262.80   306.79   348.12   382.49
                              415.18   497.53   534.86   592.13   633.12
                              733.71   755.86   767.24   804.32   811.82
                              820.78   838.04   893.11   938.66   982.58
                             1012.62  1061.87  1074.41  1108.32  1113.56
                             1202.48  1238.07  1242.11  1252.23  1374.29
                             1392.73  1419.26  1440.27  1465.86  1501.64
                             1550.02  1554.44  1583.54  1632.82  1699.81
                             1708.31  1728.40  1774.14  1859.36  1884.44
                             1899.07  1952.72  1962.06  1995.76  2075.32
                             2160.00  2166.22  2168.22  2177.28  2205.52
                             2215.21  2296.94  2334.24  2397.88  2510.46
                             2516.40  4392.78  4456.13  4471.88  4521.39
                             4540.24  4560.72  4593.78  4618.58  4645.93
                             4716.06  4886.91  5192.97

 Zero-point correction=                           0.220987 (Hartree/Particle)
 Thermal correction to Energy=                    0.235181
 Thermal correction to Enthalpy=                  0.236126
 Thermal correction to Gibbs Free Energy=         0.178608
 Sum of electronic and zero-point Energies=          -1047.265946
 Sum of electronic and thermal Energies=             -1047.251752
 Sum of electronic and thermal Enthalpies=           -1047.250808
 Sum of electronic and thermal Free Energies=        -1047.308326

                     E (Thermal)             CV                S
                      KCal/Mol        Cal/Mol-Kelvin    Cal/Mol-Kelvin
 Total                  147.579             54.990            121.057
 Electronic               0.000              0.000              0.000
 Translational            0.889              2.981             42.227
 Rotational               0.889              2.981             32.845
 Vibrational            145.801             49.028             45.984
 Vibration     1          0.593              1.985              6.193
 Vibration     2          0.594              1.982              5.402
 Vibration     3          0.600              1.962              3.855
 Vibration     4          0.605              1.947              3.406
 Vibration     5          0.612              1.922              2.930
 Vibration     6          0.614              1.916              2.846
 Vibration     7          0.630              1.863              2.301
 Vibration     8          0.644              1.821              2.016
 Vibration     9          0.658              1.776              1.788
 Vibration    10          0.672              1.736              1.623
 Vibration    11          0.685              1.695              1.482
 Vibration    12          0.724              1.584              1.185
 Vibration    13          0.743              1.530              1.073
 Vibration    14          0.776              1.445              0.921
 Vibration    15          0.800              1.383              0.826
 Vibration    16          0.865              1.228              0.634
 Vibration    17          0.880              1.194              0.598
 Vibration    18          0.888              1.176              0.580
 Vibration    19          0.915              1.120              0.526
 Vibration    20          0.920              1.109              0.515
 Vibration    21          0.927              1.095              0.503
 Vibration    22          0.939              1.069              0.481
 Vibration    23          0.981              0.988              0.415

 Optimization completed.
    -- Stationary point found.
 Normal termination of Gaussian 16 at Thu Dec 10 22:35:19 2020.

 ----------------------------------------------------------------------
 # B3LYP/6-311++G(d,p) empiricaldispersion=gd3bj scf=xqc pop=npa geom=c
 heck
 ----------------------------------------------------------------------

 --------------------------------------
 CID_80303297_JID_6367_Energie_neutraal
 --------------------------------------
 Structure from the checkpoint file:  "JID_6367.chk"
 Charge =  0 Multiplicity = 1

 SCF Done:  E(RB3LYP) =  -1047.69184044     A.U. after   17 cycles
 Normal termination of Gaussian 16 at Thu Dec 10 22:39:18 2020.

 ----------------------------------------------------------------------
 # B3LYP/6-311++G(d,p) empiricaldispersion=gd3bj scf=xqc pop=npa geom=c
 heck
 ----------------------------------------------------------------------

 ------------------------------------
 CID_80303297_JID_6367_Energie_kation
 ------------------------------------
 Structure from the checkpoint file:  "JID_6367.chk"
 Charge =  1 Multiplicity = 2

 SCF Done:  E(UB3LYP) =  -1047.40773033     A.U. after   28 cycles
 Normal termination of Gaussian 16 at Thu Dec 10 22:49:19 2020.
 Gaussian 16:  ES64L-G16RevA.03 25-Dec-2016

 ----------------------------------------------------------------------
 # B3LYP/6-311++G(d,p) empiricaldispersion=gd3bj scf=xqc pop=npa geom=c
 heck
 ----------------------------------------------------------------------

 -----------------------------------
 CID_80303297_JID_6367_Energie_anion
 -----------------------------------
 Structure from the checkpoint file:  "JID_6367.chk"
 Charge = -1 Multiplicity = 2

                         Standard orientation:
 ---------------------------------------------------------------------
 Center     Atomic      Atomic             Coordinates (Angstroms)
 Number     Number       Type             X           Y           Z
 ---------------------------------------------------------------------
      1          6           0       -3.239563    2.494010    0.824001
      2          6           0       -2.911069    1.095177    0.400534
      3          6           0       -3.658662   -0.023368    0.638996
      4         16           0       -2.888333   -1.428746   -0.027682
      5          6           0       -1.598384   -0.403868   -0.610782
      6          7           0       -1.746471    0.859239   -0.307447
      7          6           0       -0.383922   -0.958899   -1.289652
      8          6           0        0.677936   -1.319186   -0.227679
      9          8           0        0.530747   -2.376882    0.369825
     10          6           0        1.858356   -0.448922    0.004642
     11          6           0        2.936291   -1.082940    0.659318
     12          6           0        4.154057   -0.458723    0.857868
     13          6           0        4.317786    0.855124    0.398520
     14          6           0        3.269260    1.518392   -0.214657
     15          6           0        2.011976    0.904554   -0.412181
     16          7           0        1.012870    1.643556   -1.021763
     17          1           0       -4.185006    2.527477    1.371880
     18          1           0       -2.451636    2.898352    1.470000
     19          1           0       -3.320142    3.155200   -0.046518
     20          1           0       -4.604029   -0.093544    1.158110
     21          1           0       -0.627623   -1.895986   -1.796003
     22          1           0       -0.010964   -0.235145   -2.016803
     23          1           0        2.774301   -2.104603    0.984764
     24          1           0        4.968552   -0.979625    1.350862
     25          1           0        5.266341    1.368236    0.533330
     26          1           0        3.396597    2.548177   -0.541290
     27          1           0        0.046816    1.517036   -0.711752
     28          1           0        1.244984    2.621755   -1.141360
 ---------------------------------------------------------------------

 SCF Done:  E(UB3LYP) =  -1047.70302016     A.U. after   27 cycles

 The electronic state is 2-A.
 Alpha  occ. eigenvalues --  -88.75246 -18.92273 -14.18409 -14.17639 -10.10753
 Alpha  occ. eigenvalues --  -10.09281 -10.07611 -10.07488 -10.07345 -10.07328
 Alpha  occ. eigenvalues --  -10.04198 -10.02996 -10.02876 -10.02613 -10.02478
 Alpha  occ. eigenvalues --  -10.01938  -7.83901  -5.80178  -5.79824  -5.79511
 Alpha  occ. eigenvalues --   -0.86580  -0.84123  -0.78418  -0.69717  -0.67559
 Alpha  occ. eigenvalues --   -0.67336  -0.62306  -0.60632  -0.58798  -0.55114
 Alpha  occ. eigenvalues --   -0.48698  -0.46729  -0.46424  -0.42097  -0.41093
 Alpha  occ. eigenvalues --   -0.37887  -0.36791  -0.36312  -0.33879  -0.32898
 Alpha  occ. eigenvalues --   -0.32192  -0.31299  -0.30305  -0.29493  -0.28450
 Alpha  occ. eigenvalues --   -0.28195  -0.27062  -0.25316  -0.24902  -0.24428
 Alpha  occ. eigenvalues --   -0.24104  -0.21931  -0.20925  -0.20344  -0.17680
 Alpha  occ. eigenvalues --   -0.16361  -0.15866  -0.12348  -0.11421  -0.08570
 Alpha  occ. eigenvalues --   -0.07609   0.04356
 Alpha virt. eigenvalues --    0.07121   0.08582   0.09068   0.09236   0.09930
 Alpha virt. eigenvalues --    0.10506   0.11257   0.11323   0.11868   0.12846
 Alpha virt. eigenvalues --    0.13280   0.13746   0.13931   0.14538   0.15022

  Beta  occ. eigenvalues --  -88.75226 -18.91803 -14.18327 -14.17590 -10.10561
  Beta  occ. eigenvalues --  -10.09294 -10.07506 -10.07487 -10.07231 -10.06975
  Beta  occ. eigenvalues --  -10.04243 -10.02895 -10.02750 -10.02691 -10.02490
  Beta  occ. eigenvalues --  -10.01739  -7.83883  -5.80169  -5.79816  -5.79445
  Beta  occ. eigenvalues --   -0.85731  -0.83917  -0.78280  -0.69491  -0.67409
  Beta  occ. eigenvalues --   -0.67167  -0.62007  -0.60369  -0.58632  -0.54927
  Beta  occ. eigenvalues --   -0.48120  -0.46595  -0.46255  -0.41845  -0.40776
  Beta  occ. eigenvalues --   -0.37714  -0.36579  -0.36133  -0.33673  -0.32796
  Beta  occ. eigenvalues --   -0.32100  -0.31166  -0.30066  -0.29292  -0.28262
  Beta  occ. eigenvalues --   -0.27929  -0.26591  -0.25072  -0.24404  -0.24110
  Beta  occ. eigenvalues --   -0.23919  -0.21740  -0.20370  -0.18774  -0.17091
  Beta  occ. eigenvalues --   -0.15882  -0.15643  -0.11768  -0.10280  -0.08102
  Beta  occ. eigenvalues --   -0.07051
  Beta virt. eigenvalues --    0.07088   0.08553   0.09196   0.09257   0.09906
  Beta virt. eigenvalues --    0.10495   0.10935   0.11277   0.11477   0.11871
  Beta virt. eigenvalues --    0.12993   0.13392   0.13738   0.14122   0.14503

 Mulliken charges and spin densities:
               1          2
     1  C   -0.681291  -0.020232
     2  C   -0.684061  -0.048753
     3  C    0.386152   0.110437
     4  S   -0.376301   0.064436
     5  C   -0.129643   0.052918
     6  N    0.125902   0.018324
     7  C    0.220443  -0.059573
     8  C   -0.328595   0.281628
     9  O   -0.353703   0.180121
    10  C    1.910468  -0.027131
    11  C    0.256960   0.209038
    12  C   -0.443182  -0.071532
    13  C   -0.369307   0.197051
    14  C   -0.565387  -0.007101
    15  C   -1.665609   0.037247
    16  N   -0.285144   0.011167
    17  H    0.124294   0.001471
    18  H    0.148650  -0.000612
    19  H    0.146177   0.001098
    20  H    0.216332  -0.004515
    21  H    0.113295   0.093338
    22  H    0.201885  -0.010448
    23  H    0.167434  -0.012839
    24  H    0.109339   0.004828
    25  H    0.101441  -0.015107
    26  H    0.072213  -0.000280
    27  H    0.358175   0.012959
    28  H    0.223064   0.002061
 Sum of Mulliken charges =  -1.00000   1.00000

 Dipole moment (field-independent basis, Debye):
    X=             -4.0666    Y=              4.6574    Z=             -0.5521  Tot=              6.2075
 Quadrupole moment (field-independent basis, Debye-Ang):
   XX=           -137.3675   YY=           -120.0957   ZZ=           -113.1280
   XY=             -0.4893   XZ=             -3.6936   YZ=              2.2158

 Summary of Natural Population Analysis:

                                       Natural Population
                Natural  -----------------------------------------------
    Atom  No    Charge         Core      Valence    Rydberg      Total
 -----------------------------------------------------------------------
      C    1   -0.29152      0.99963     2.28739    0.00449     3.29152
      C    2    0.05914      0.99951     1.92941    0.01194     2.94086
      C    3   -0.20292      0.99946     2.19404    0.00943     3.20292
      S    4    0.19897      4.99941     2.78024    0.02138     7.80103
      C    5    0.08688      0.99960     1.89540    0.01812     2.91312
      N    6   -0.27373      0.99960     2.76058    0.01355     3.77373
      C    7   -0.25862      0.99954     2.24862    0.01046     3.25862
      C    8    0.31994      0.99962     1.65895    0.02149     2.68006
      O    9   -0.26054      0.99988     3.25413    0.00654     4.26054
      C   10   -0.09676      0.99944     2.08837    0.00895     3.09676
      C   11   -0.03181      0.99955     2.02302    0.00924     3.03181
      C   12   -0.15553      0.99957     2.14593    0.01004     3.15553
      C   13   -0.04928      0.99958     2.04011    0.00959     3.04928
      C   14   -0.14331      0.99954     2.13471    0.00906     3.14331
      C   15    0.12006      0.99949     1.87076    0.00968     2.87994
      N   16   -0.40632      0.99970     2.89733    0.00928     3.90632
      H   17    0.09700      0.00000     0.40219    0.00080     0.40300
      H   18    0.10354      0.00000     0.39532    0.00114     0.39646
      H   19    0.10077      0.00000     0.39806    0.00117     0.39923
      H   20    0.10298      0.00000     0.39604    0.00098     0.39702
      H   21    0.11196      0.00000     0.38611    0.00193     0.38804
      H   22    0.11884      0.00000     0.37941    0.00175     0.38116
      H   23    0.10600      0.00000     0.39271    0.00129     0.39400
      H   24    0.09108      0.00000     0.40783    0.00109     0.40892
      H   25    0.08596      0.00000     0.41294    0.00110     0.41404
      H   26    0.08568      0.00000     0.41258    0.00174     0.41432
      H   27    0.20819      0.00000     0.28989    0.00192     0.29181
      H   28    0.17335      0.00000     0.32491    0.00175     0.32665
 =======================================================================
   * Total *   -0.00000     19.99312    40.80699    0.19988    61.00000

 Normal termination of Gaussian 16 at Thu Dec 10 22:58:30 2020.
