 Gaussian 16, Revision A.03,

 -----------------------------------------------------------
 # opt freq B3LYP/6-31G(d) empiricaldispersion=gd3bj scf=xqc
 -----------------------------------------------------------

 -------------------------------
 CID_114185510_JID_8251_neutraal
 -------------------------------
 Symbolic Z-matrix:
 Charge =  0 Multiplicity = 1

 SCF Done:  E(RB3LYP) =  -868.447689397     A.U. after   15 cycles
 SCF Done:  E(RB3LYP) =  -868.456627536     A.U. after   12 cycles
 SCF Done:  E(RB3LYP) =  -868.459065421     A.U. after   12 cycles
 SCF Done:  E(RB3LYP) =  -868.460174703     A.U. after   13 cycles
 SCF Done:  E(RB3LYP) =  -868.460719106     A.U. after   12 cycles
 SCF Done:  E(RB3LYP) =  -868.460915623     A.U. after   12 cycles
 SCF Done:  E(RB3LYP) =  -868.460987289     A.U. after   12 cycles
 SCF Done:  E(RB3LYP) =  -868.461044188     A.U. after   11 cycles
 SCF Done:  E(RB3LYP) =  -868.461112008     A.U. after   12 cycles
 SCF Done:  E(RB3LYP) =  -868.461134513     A.U. after   11 cycles
 SCF Done:  E(RB3LYP) =  -868.461152681     A.U. after    8 cycles
 SCF Done:  E(RB3LYP) =  -868.461154083     A.U. after    8 cycles
 SCF Done:  E(RB3LYP) =  -868.461154785     A.U. after    8 cycles
 SCF Done:  E(RB3LYP) =  -868.461155368     A.U. after    8 cycles
 SCF Done:  E(RB3LYP) =  -868.461155732     A.U. after    7 cycles
 Optimization completed.
    -- Stationary point found.
 Normal termination of Gaussian 16 at Fri Dec 11 19:50:46 2020.

 --------------------------------------------------------------------
 #N Geom=AllCheck Guess=TCheck SCRF=Check GenChk RB3LYP/6-31G(d) Freq
 --------------------------------------------------------------------

 Structure from the checkpoint file:  "JID_8251.chk"
 -------------------------------
 CID_114185510_JID_8251_neutraal
 -------------------------------
 Charge =  0 Multiplicity = 1

 SCF Done:  E(RB3LYP) =  -868.461155732     A.U. after    1 cycles

  Exact polarizability: 193.260  -8.677 130.865  15.052   4.636 116.378
 Approx polarizability: 264.081 -10.567 213.625  33.436   5.008 186.682

                      1                      2                      3
                      A                      A                      A
 Frequencies --     22.2705                24.0881                38.7242
 Red. masses --      5.5555                 5.0710                 2.8237
 Frc consts  --      0.0016                 0.0017                 0.0025
 IR Inten    --      0.2947                 0.9284                 0.2562

                      4                      5                      6
                      A                      A                      A
 Frequencies --     41.7331                58.9248                92.7117
 Red. masses --      8.4572                 3.7143                 3.2340
 Frc consts  --      0.0087                 0.0076                 0.0164
 IR Inten    --      0.9399                 0.2363                 1.4084

                      7                      8                      9
                      A                      A                      A
 Frequencies --    112.0452               156.6765               172.4994
 Red. masses --      3.1884                 2.6367                 4.0784
 Frc consts  --      0.0236                 0.0381                 0.0715
 IR Inten    --      3.5075                 2.2320                 1.4110

                     10                     11                     12
                      A                      A                      A
 Frequencies --    177.5017               204.4968               226.7520
 Red. masses --      1.1100                 3.5833                 6.2360
 Frc consts  --      0.0206                 0.0883                 0.1889
 IR Inten    --      0.0396                 0.4481                 0.7475

                     13                     14                     15
                      A                      A                      A
 Frequencies --    247.6856               264.8866               281.6209
 Red. masses --      5.3426                 1.5049                 2.4146
 Frc consts  --      0.1931                 0.0622                 0.1128
 IR Inten    --      5.4050                 2.9437                 5.8080

                     16                     17                     18
                      A                      A                      A
 Frequencies --    307.9180               325.3345               384.9649
 Red. masses --      3.1919                 3.6871                 4.2038
 Frc consts  --      0.1783                 0.2299                 0.3671
 IR Inten    --      1.9193                 8.7514                 1.6804

                     19                     20                     21
                      A                      A                      A
 Frequencies --    421.3236               485.1674               531.1120
 Red. masses --      3.7983                 4.9998                 5.3039
 Frc consts  --      0.3973                 0.6934                 0.8815
 IR Inten    --      7.3661                38.2816                11.9123

                     22                     23                     24
                      A                      A                      A
 Frequencies --    570.7143               585.4694               607.4021
 Red. masses --      2.9696                 4.5537                 3.4499
 Frc consts  --      0.5699                 0.9196                 0.7499
 IR Inten    --     37.0947                 3.7379                35.1948

                     25                     26                     27
                      A                      A                      A
 Frequencies --    622.8440               649.1061               680.2480
 Red. masses --      4.3972                 1.9905                 4.4025
 Frc consts  --      1.0051                 0.4941                 1.2003
 IR Inten    --      3.2433                62.2224                 2.3054

                     28                     29                     30
                      A                      A                      A
 Frequencies --    698.0409               729.9130               747.9921
 Red. masses --      6.1556                 4.0315                 2.0159
 Frc consts  --      1.7672                 1.2655                 0.6645
 IR Inten    --      0.2814                26.4445                65.1308

                     31                     32                     33
                      A                      A                      A
 Frequencies --    773.4907               806.2460               815.7489
 Red. masses --      2.4397                 8.4915                 1.1559
 Frc consts  --      0.8600                 3.2521                 0.4532
 IR Inten    --     79.8653                29.0546                 6.3207

                     34                     35                     36
                      A                      A                      A
 Frequencies --    887.3761               889.7729               905.0621
 Red. masses --      3.2824                 1.7071                 9.1131
 Frc consts  --      1.5229                 0.7963                 4.3982
 IR Inten    --      9.8315                14.8221                13.0669

                     37                     38                     39
                      A                      A                      A
 Frequencies --    939.2829               981.0947               982.7353
 Red. masses --      1.9166                 1.4562                 9.2197
 Frc consts  --      0.9963                 0.8258                 5.2462
 IR Inten    --      3.9904                 0.6309                 2.7504

                     40                     41                     42
                      A                      A                      A
 Frequencies --   1015.4263              1019.7632              1026.3170
 Red. masses --      3.5224                 5.5118                 6.4283
 Frc consts  --      2.1399                 3.3771                 3.9894
 IR Inten    --      8.5841                 2.1607                44.1479

                     43                     44                     45
                      A                      A                      A
 Frequencies --   1046.3801              1099.3920              1148.2906
 Red. masses --      3.0890                 3.0194                 1.9797
 Frc consts  --      1.9927                 2.1502                 1.5380
 IR Inten    --     19.8668                16.2230                19.6720

                     46                     47                     48
                      A                      A                      A
 Frequencies --   1150.7032              1153.6046              1183.0118
 Red. masses --      3.1252                 2.7956                 2.9038
 Frc consts  --      2.4382                 2.1920                 2.3944
 IR Inten    --     25.5001               100.0038               135.1235

                     49                     50                     51
                      A                      A                      A
 Frequencies --   1189.5376              1209.9562              1236.9314
 Red. masses --      1.2616                 1.8188                 2.1533
 Frc consts  --      1.0518                 1.5688                 1.9411
 IR Inten    --      3.6965                19.1640                38.2743

                     52                     53                     54
                      A                      A                      A
 Frequencies --   1276.6349              1284.9478              1298.3225
 Red. masses --      1.9101                 1.9606                 1.8456
 Frc consts  --      1.8342                 1.9072                 1.8330
 IR Inten    --    107.6665                 9.3423                42.5650

                     55                     56                     57
                      A                      A                      A
 Frequencies --   1320.4580              1327.1540              1357.4228
 Red. masses --      1.2215                 2.2010                 2.6413
 Frc consts  --      1.2549                 2.2841                 2.8675
 IR Inten    --     49.7792                69.4862                 7.2880

                     58                     59                     60
                      A                      A                      A
 Frequencies --   1371.7751              1403.4492              1423.9776
 Red. masses --      2.8586                 1.3274                 2.0739
 Frc consts  --      3.1694                 1.5405                 2.4777
 IR Inten    --     40.8799                39.0557                30.3972

                     61                     62                     63
                      A                      A                      A
 Frequencies --   1443.5668              1461.6926              1475.0707
 Red. masses --      1.2940                 1.7515                 1.2481
 Frc consts  --      1.5888                 2.2049                 1.6001
 IR Inten    --     20.2419                26.7866                18.7571

                     64                     65                     66
                      A                      A                      A
 Frequencies --   1478.8670              1500.3585              1515.5442
 Red. masses --      1.6936                 1.2878                 1.0648
 Frc consts  --      2.1824                 1.7080                 1.4410
 IR Inten    --     19.9738                15.0782                29.8067

                     67                     68                     69
                      A                      A                      A
 Frequencies --   1521.3700              1527.8516              1528.5956
 Red. masses --      1.0822                 5.2675                 1.0490
 Frc consts  --      1.4758                 7.2446                 1.4442
 IR Inten    --     13.6298                11.1998                 8.1435

                     70                     71                     72
                      A                      A                      A
 Frequencies --   1535.8073              1541.6400              1557.8961
 Red. masses --      1.1112                 2.0976                 1.1093
 Frc consts  --      1.5443                 2.9373                 1.5862
 IR Inten    --     19.8812               270.5262                17.9270

                     73                     74                     75
                      A                      A                      A
 Frequencies --   1571.6687              1613.5348              1632.8336
 Red. masses --      3.0402                 6.7735                 4.1879
 Frc consts  --      4.4247                10.3901                 6.5786
 IR Inten    --    146.4080                52.1470                10.1745

                     76                     77                     78
                      A                      A                      A
 Frequencies --   1651.9245              3000.1958              3041.6835
 Red. masses --      5.3665                 1.0758                 1.0307
 Frc consts  --      8.6283                 5.7054                 5.6181
 IR Inten    --    689.7575                57.4292                44.8319

                     79                     80                     81
                      A                      A                      A
 Frequencies --   3049.1401              3075.7310              3109.7333
 Red. masses --      1.0376                 1.0678                 1.1064
 Frc consts  --      5.6836                 5.9514                 6.3036
 IR Inten    --     29.8901                30.3304                30.0050

                     82                     83                     84
                      A                      A                      A
 Frequencies --   3110.9467              3132.2028              3143.6901
 Red. masses --      1.0998                 1.1030                 1.0960
 Frc consts  --      6.2710                 6.3758                 6.3816
 IR Inten    --     19.4510                31.3811                 1.4871

                     85                     86                     87
                      A                      A                      A
 Frequencies --   3152.7750              3160.9379              3179.7629
 Red. masses --      1.1042                 1.0892                 1.0904
 Frc consts  --      6.4666                 6.4120                 6.4955
 IR Inten    --     28.3851                 8.7250                39.2520

                     88                     89                     90
                      A                      A                      A
 Frequencies --   3287.4942              3539.4422              3595.7630
 Red. masses --      1.0998                 1.0741                 1.0754
 Frc consts  --      7.0029                 7.9282                 8.1926
 IR Inten    --      0.4814                17.6921                30.4117

 - Thermochemistry -
 -------------------
 Temperature   298.150 Kelvin.  Pressure   1.00000 Atm.
 Atom     1 has atomic number  6 and mass  12.00000

 Molecular mass:   250.11782 amu.
 Principal axes and moments of inertia in atomic units:
                           1         2         3
     Eigenvalues --  2208.877348525.593838685.50505
           X            0.99982  -0.01606   0.00997
           Y            0.01453   0.99030   0.13822
           Z           -0.01209  -0.13805   0.99035
 This molecule is an asymmetric top.
 Rotational symmetry number  1.
 Warning -- assumption of classical behavior for rotation
           may cause significant error
 Rotational temperatures (Kelvin)      0.03921     0.01016     0.00997
 Rotational constants (GHZ):           0.81704     0.21169     0.20779
 Zero-point vibrational energy     676680.5 (Joules/Mol)
                                  161.73053 (Kcal/Mol)
 Warning -- explicit consideration of  24 degrees of freedom as
           vibrations may cause significant error
 Vibrational temperatures:     32.04    34.66    55.72    60.04    84.78
          (Kelvin)            133.39   161.21   225.42   248.19   255.39
                              294.23   326.25   356.36   381.11   405.19
                              443.03   468.08   553.88   606.19   698.05
                              764.15   821.13   842.36   873.92   896.13
                              933.92   978.73  1004.33  1050.18  1076.19
                             1112.88  1160.01  1173.68  1276.74  1280.18
                             1302.18  1351.42  1411.58  1413.94  1460.97
                             1467.21  1476.64  1505.51  1581.78  1652.13
                             1655.61  1659.78  1702.09  1711.48  1740.86
                             1779.67  1836.79  1848.75  1868.00  1899.84
                             1909.48  1953.03  1973.68  2019.25  2048.79
                             2076.97  2103.05  2122.30  2127.76  2158.68
                             2180.53  2188.91  2198.24  2199.31  2209.68
                             2218.08  2241.46  2261.28  2321.52  2349.28
                             2376.75  4316.61  4376.30  4387.03  4425.29
                             4474.21  4475.96  4506.54  4523.07  4536.14
                             4547.88  4574.97  4729.97  5092.47  5173.50

 Zero-point correction=                           0.257734 (Hartree/Particle)
 Thermal correction to Energy=                    0.274681
 Thermal correction to Enthalpy=                  0.275625
 Thermal correction to Gibbs Free Energy=         0.209891
 Sum of electronic and zero-point Energies=           -868.203422
 Sum of electronic and thermal Energies=              -868.186475
 Sum of electronic and thermal Enthalpies=            -868.185531
 Sum of electronic and thermal Free Energies=         -868.251265

                     E (Thermal)             CV                S
                      KCal/Mol        Cal/Mol-Kelvin    Cal/Mol-Kelvin
 Total                  172.365             61.415            138.349
 Electronic               0.000              0.000              0.000
 Translational            0.889              2.981             42.451
 Rotational               0.889              2.981             33.458
 Vibrational            170.587             55.453             62.440
 Vibration     1          0.593              1.985              6.421
 Vibration     2          0.593              1.985              6.265
 Vibration     3          0.594              1.981              5.323
 Vibration     4          0.594              1.981              5.175
 Vibration     5          0.596              1.974              4.493
 Vibration     6          0.602              1.954              3.602
 Vibration     7          0.607              1.939              3.233
 Vibration     8          0.620              1.895              2.590
 Vibration     9          0.626              1.876              2.408
 Vibration    10          0.628              1.870              2.355
 Vibration    11          0.640              1.833              2.092
 Vibration    12          0.650              1.800              1.905
 Vibration    13          0.661              1.767              1.747
 Vibration    14          0.671              1.737              1.629
 Vibration    15          0.681              1.708              1.524
 Vibration    16          0.698              1.659              1.373
 Vibration    17          0.709              1.625              1.283
 Vibration    18          0.754              1.502              1.020
 Vibration    19          0.784              1.424              0.887
 Vibration    20          0.841              1.283              0.696
 Vibration    21          0.886              1.181              0.585
 Vibration    22          0.927              1.095              0.503
 Vibration    23          0.942              1.063              0.475
 Vibration    24          0.966              1.016              0.437

                           ! Non-Optimized Parameters !
 Normal termination of Gaussian 16 at Fri Dec 11 20:03:32 2020.

 ----------------------------------------------------------------------
 # B3LYP/6-311++G(d,p) empiricaldispersion=gd3bj scf=xqc pop=npa geom=c
 heck
 ----------------------------------------------------------------------

 ---------------------------------------
 CID_114185510_JID_8251_Energie_neutraal
 ---------------------------------------
 Structure from the checkpoint file:  "JID_8251.chk"
 Charge =  0 Multiplicity = 1

 SCF Done:  E(RB3LYP) =  -868.701838044     A.U. after   14 cycles
 Normal termination of Gaussian 16 at Fri Dec 11 20:09:16 2020.

 ----------------------------------------------------------------------
 # B3LYP/6-311++G(d,p) empiricaldispersion=gd3bj scf=xqc pop=npa geom=c
 heck
 ----------------------------------------------------------------------

 -------------------------------------
 CID_114185510_JID_8251_Energie_kation
 -------------------------------------
 Structure from the checkpoint file:  "JID_8251.chk"
 Charge =  1 Multiplicity = 2

 SCF Done:  E(UB3LYP) =  -868.414148957     A.U. after   25 cycles
 Normal termination of Gaussian 16 at Fri Dec 11 20:24:03 2020.
 Gaussian 16:  ES64L-G16RevA.03 25-Dec-2016

 ----------------------------------------------------------------------
 # B3LYP/6-311++G(d,p) empiricaldispersion=gd3bj scf=xqc pop=npa geom=c
 heck
 ----------------------------------------------------------------------

 ------------------------------------
 CID_114185510_JID_8251_Energie_anion
 ------------------------------------
 Structure from the checkpoint file:  "JID_8251.chk"
 Charge = -1 Multiplicity = 2

                         Standard orientation:
 ---------------------------------------------------------------------
 Center     Atomic      Atomic             Coordinates (Angstroms)
 Number     Number       Type             X           Y           Z
 ---------------------------------------------------------------------
      1          6           0       -5.115915    0.845363   -1.330104
      2          6           0       -3.605513    0.646850   -1.269232
      3          7           0       -3.285022   -0.567845   -0.512701
      4          6           0       -2.002351   -0.879144   -0.110567
      5          6           0       -1.109623    0.044072    0.445072
      6          6           0        0.165156   -0.422563    0.804169
      7          7           0        0.520448   -1.709888    0.656204
      8          6           0       -0.430220   -2.511836    0.171423
      9          7           0       -1.653685   -2.184189   -0.226866
     10          7           0        1.063497    0.454514    1.369181
     11          6           0        2.465320    0.106817    1.439108
     12          6           0        3.206265    0.285851    0.142999
     13          7           0        2.657206    0.806547   -0.924765
     14          8           0        3.704608    0.782297   -1.870777
     15          6           0        4.756945    0.247511   -1.241415
     16          7           0        4.533469   -0.079077   -0.006960
     17          8           0       -1.410047    1.378351    0.666783
     18          6           0       -2.210573    1.573639    1.841255
     19          1           0       -5.609788   -0.005353   -1.815927
     20          1           0       -5.360766    1.744361   -1.905350
     21          1           0       -5.534772    0.948704   -0.323744
     22          1           0       -3.189086    0.590523   -2.287686
     23          1           0       -3.123364    1.492969   -0.779764
     24          1           0       -3.723941   -1.402280   -0.891860
     25          1           0       -0.162857   -3.562971    0.077703
     26          1           0        0.843053    1.424695    1.180753
     27          1           0        2.953193    0.712140    2.211380
     28          1           0        2.546339   -0.940439    1.738064
     29          1           0        5.670532    0.140581   -1.810450
     30          1           0       -2.370545    2.650496    1.930440
     31          1           0       -3.174547    1.061344    1.743403
     32          1           0       -1.688279    1.200259    2.730099
 ---------------------------------------------------------------------

 SCF Done:  E(UB3LYP) =  -868.694222889     A.U. after   33 cycles
 SCF Done:  E(UB3LYP) =  -868.694222889     a.u. after    1 cycles

 The electronic state is 2-A.
 Alpha  occ. eigenvalues --  -19.10548 -19.05205 -14.25117 -14.23722 -14.23072
 Alpha  occ. eigenvalues --  -14.21654 -14.20480 -14.20204 -10.15901 -10.15310
 Alpha  occ. eigenvalues --  -10.15032 -10.13342 -10.13168 -10.12470 -10.12220
 Alpha  occ. eigenvalues --  -10.12112 -10.10587 -10.06902  -1.05576  -0.96675
 Alpha  occ. eigenvalues --   -0.89452  -0.86314  -0.83587  -0.82332  -0.76824
 Alpha  occ. eigenvalues --   -0.75688  -0.68603  -0.65632  -0.62715  -0.59976
 Alpha  occ. eigenvalues --   -0.54961  -0.54354  -0.53898  -0.52069  -0.49435
 Alpha  occ. eigenvalues --   -0.47185  -0.43993  -0.42590  -0.41295  -0.40145
 Alpha  occ. eigenvalues --   -0.38593  -0.37972  -0.37470  -0.36183  -0.35886
 Alpha  occ. eigenvalues --   -0.34656  -0.33796  -0.33203  -0.32510  -0.31370
 Alpha  occ. eigenvalues --   -0.30925  -0.29346  -0.28303  -0.27237  -0.26259
 Alpha  occ. eigenvalues --   -0.24905  -0.23779  -0.22460  -0.21557  -0.20608
 Alpha  occ. eigenvalues --   -0.19983  -0.19617  -0.19050  -0.15581  -0.14380
 Alpha  occ. eigenvalues --   -0.12361   0.04221
 Alpha virt. eigenvalues --    0.05572   0.06762   0.07299   0.07960   0.08201
 Alpha virt. eigenvalues --    0.08510   0.08696   0.09136   0.09521   0.10163
 Alpha virt. eigenvalues --    0.11176   0.11485   0.11883   0.12173   0.12734

  Beta  occ. eigenvalues --  -19.10336 -19.05206 -14.24917 -14.23715 -14.23071
  Beta  occ. eigenvalues --  -14.21658 -14.20495 -14.20178 -10.15674 -10.15312
  Beta  occ. eigenvalues --  -10.14993 -10.13302 -10.13125 -10.12455 -10.12223
  Beta  occ. eigenvalues --  -10.12062 -10.10571 -10.06858  -1.05239  -0.96661
  Beta  occ. eigenvalues --   -0.89417  -0.86282  -0.83448  -0.82275  -0.76694
  Beta  occ. eigenvalues --   -0.75468  -0.68552  -0.65586  -0.62649  -0.59902
  Beta  occ. eigenvalues --   -0.54898  -0.54184  -0.53666  -0.51983  -0.49285
  Beta  occ. eigenvalues --   -0.47152  -0.43899  -0.42512  -0.41249  -0.40034
  Beta  occ. eigenvalues --   -0.37974  -0.37904  -0.37322  -0.36137  -0.35800
  Beta  occ. eigenvalues --   -0.34596  -0.33751  -0.33130  -0.32389  -0.31256
  Beta  occ. eigenvalues --   -0.30773  -0.29271  -0.28256  -0.27196  -0.26210
  Beta  occ. eigenvalues --   -0.24821  -0.23568  -0.21829  -0.21480  -0.20574
  Beta  occ. eigenvalues --   -0.19889  -0.19500  -0.17965  -0.15567  -0.14340
  Beta  occ. eigenvalues --   -0.12292
  Beta virt. eigenvalues --    0.06447   0.07127   0.07476   0.08031   0.08318
  Beta virt. eigenvalues --    0.08507   0.08787   0.08914   0.09395   0.09780
  Beta virt. eigenvalues --    0.10504   0.11541   0.11740   0.11958   0.12370

 Mulliken charges and spin densities:
               1          2
     1  C    1.460677  -1.941930
     2  C   -1.141621   0.902268
     3  N   -0.163323   0.101820
     4  C    0.256244  -0.393967
     5  C   -0.711125   0.288944
     6  C   -0.225321   0.056617
     7  N   -0.114820   0.011626
     8  C    0.103742  -0.043388
     9  N   -0.140156  -0.035961
    10  N    0.065739   0.051767
    11  C   -0.244696  -0.197196
    12  C    0.033791  -0.005804
    13  N   -0.502225   0.105493
    14  O    0.254744   0.026822
    15  C   -0.060292   0.259628
    16  N   -0.116806  -0.010398
    17  O   -0.204698   0.033655
    18  C    0.670401  -1.009233
    19  H   -0.240259   0.362927
    20  H   -0.310118   0.453073
    21  H   -0.291990   0.438350
    22  H   -0.124659   0.284171
    23  H    0.298252  -0.108607
    24  H    0.277026  -0.006167
    25  H    0.190507  -0.001585
    26  H    0.216467   0.084801
    27  H    0.015010   0.170595
    28  H    0.221494   0.002156
    29  H    0.125772   0.021939
    30  H   -0.509768   0.678545
    31  H   -0.023640   0.192992
    32  H   -0.064350   0.226047
 Sum of Mulliken charges =  -1.00000   1.00000

 Dipole moment (field-independent basis, Debye):
    X=              4.7690    Y=             -2.9194    Z=              0.2602  Tot=              5.5976
 Quadrupole moment (field-independent basis, Debye-Ang):
   XX=           -193.1584   YY=           -140.3473   ZZ=           -135.3937
   XY=             11.3863   XZ=             -5.1418   YZ=             -0.7031

 Summary of Natural Population Analysis:

                                       Natural Population
                Natural  -----------------------------------------------
    Atom  No    Charge         Core      Valence    Rydberg      Total
 -----------------------------------------------------------------------
      C    1   -0.28788      0.99967     2.28305    0.00516     3.28788
      C    2   -0.08981      0.99962     2.08032    0.00987     3.08981
      N    3   -0.31416      0.99967     2.80363    0.01086     3.81416
      C    4    0.20205      0.99949     1.78306    0.01541     2.79795
      C    5    0.08004      0.99927     1.90825    0.01244     2.91996
      C    6    0.20497      0.99950     1.78016    0.01537     2.79503
      N    7   -0.28258      0.99968     2.77342    0.00948     3.78258
      C    8    0.15672      0.99968     1.82583    0.01777     2.84328
      N    9   -0.28394      0.99968     2.77518    0.00907     3.78394
      N   10   -0.30569      0.99967     2.79564    0.01039     3.80569
      C   11   -0.10963      0.99957     2.09774    0.01232     3.10963
      C   12    0.16667      0.99965     1.81411    0.01957     2.83333
      N   13   -0.07028      0.99965     2.55793    0.01270     3.57028
      O   14   -0.15252      0.99987     3.14442    0.00823     4.15252
      C   15    0.22761      0.99969     1.75212    0.02057     2.77239
      N   16   -0.27647      0.99970     2.76765    0.00912     3.77647
      O   17   -0.29400      0.99988     3.28448    0.00964     4.29400
      C   18   -0.10046      0.99959     2.09166    0.00921     3.10046
      H   19    0.09403      0.00000     0.40453    0.00144     0.40597
      H   20    0.10239      0.00000     0.39639    0.00122     0.39761
      H   21    0.10185      0.00000     0.39655    0.00160     0.39815
      H   22    0.08396      0.00000     0.41472    0.00131     0.41604
      H   23    0.10622      0.00000     0.39169    0.00208     0.39378
      H   24    0.18626      0.00000     0.31006    0.00368     0.31374
      H   25    0.07946      0.00000     0.41949    0.00104     0.42054
      H   26    0.19866      0.00000     0.29855    0.00279     0.30134
      H   27    0.10505      0.00000     0.39385    0.00110     0.39495
      H   28    0.12020      0.00000     0.37838    0.00142     0.37980
      H   29    0.08600      0.00000     0.41316    0.00084     0.41400
      H   30    0.09258      0.00000     0.40557    0.00185     0.40742
      H   31    0.08789      0.00000     0.41057    0.00154     0.41211
      H   32    0.08481      0.00000     0.41385    0.00134     0.41519
 =======================================================================
   * Total *   -0.00000     17.99354    47.76603    0.24043    66.00000

 Normal termination of Gaussian 16 at Fri Dec 11 20:43:34 2020.
