 Gaussian 16, Revision A.03,

 -----------------------------------------------------------
 # opt freq B3LYP/6-31G(d) empiricaldispersion=gd3bj scf=xqc
 -----------------------------------------------------------

 ------------------------------
 CID_149684438_JID_666_neutraal
 ------------------------------
 Symbolic Z-matrix:
 Charge =  0 Multiplicity = 1

 SCF Done:  E(RB3LYP) =  -849.547547094     A.U. after   16 cycles
 SCF Done:  E(RB3LYP) =  -849.564180182     A.U. after   16 cycles
 SCF Done:  E(RB3LYP) =  -849.569479923     A.U. after   15 cycles
 SCF Done:  E(RB3LYP) =  -849.570873832     A.U. after   15 cycles
 SCF Done:  E(RB3LYP) =  -849.571363768     A.U. after   13 cycles
 SCF Done:  E(RB3LYP) =  -849.572332484     A.U. after   15 cycles
 SCF Done:  E(RB3LYP) =  -849.573631446     A.U. after   16 cycles
 SCF Done:  E(RB3LYP) =  -849.575977869     A.U. after   16 cycles
 SCF Done:  E(RB3LYP) =  -849.578872250     A.U. after   16 cycles
 SCF Done:  E(RB3LYP) =  -849.581577926     A.U. after   17 cycles
 SCF Done:  E(RB3LYP) =  -849.583498396     A.U. after   12 cycles
 SCF Done:  E(RB3LYP) =  -849.583527192     A.U. after   11 cycles
 SCF Done:  E(RB3LYP) =  -849.583531430     A.U. after   10 cycles
 SCF Done:  E(RB3LYP) =  -849.583532071     A.U. after    9 cycles
 SCF Done:  E(RB3LYP) =  -849.583532148     A.U. after    8 cycles
 Optimization completed.
    -- Stationary point found.
 Normal termination of Gaussian 16 at Tue Dec  8 12:51:46 2020.

 --------------------------------------------------------------------
 #N Geom=AllCheck Guess=TCheck SCRF=Check GenChk RB3LYP/6-31G(d) Freq
 --------------------------------------------------------------------

 Structure from the checkpoint file:  "JID_666.chk"
 ------------------------------
 CID_149684438_JID_666_neutraal
 ------------------------------
 Charge =  0 Multiplicity = 1

 SCF Done:  E(RB3LYP) =  -849.583532148     A.U. after    1 cycles

  Exact polarizability: 114.613  16.229  89.791  -3.391  -0.693  67.059
 Approx polarizability: 165.033  44.275 166.330  -8.436  -4.135 105.450

                      1                      2                      3
                      A                      A                      A
 Frequencies --     41.9120                72.8897                81.0001
 Red. masses --      9.7025                 4.0327                 6.6734
 Frc consts  --      0.0100                 0.0126                 0.0258
 IR Inten    --      0.1524                 0.1475                 1.1395

                      4                      5                      6
                      A                      A                      A
 Frequencies --    185.5290               215.0568               243.2322
 Red. masses --      7.8006                 4.9070                 2.0508
 Frc consts  --      0.1582                 0.1337                 0.0715
 IR Inten    --      4.0128                 9.9220                 1.6008

                      7                      8                      9
                      A                      A                      A
 Frequencies --    311.4649               349.6883               406.4582
 Red. masses --      4.3678                 4.5459                 2.4828
 Frc consts  --      0.2497                 0.3275                 0.2417
 IR Inten    --     19.9745                 0.6216                 4.4313

                     10                     11                     12
                      A                      A                      A
 Frequencies --    449.2357               476.2564               486.0668
 Red. masses --      3.6740                16.2047                 2.7740
 Frc consts  --      0.4369                 2.1656                 0.3861
 IR Inten    --     14.0705                94.3508                 1.0008

                     13                     14                     15
                      A                      A                      A
 Frequencies --    591.1638               596.4863               689.6003
 Red. masses --     13.2075                 2.7638                11.3798
 Frc consts  --      2.7195                 0.5794                 3.1884
 IR Inten    --     10.8412                 1.7431                20.3485

                     16                     17                     18
                      A                      A                      A
 Frequencies --    707.3682               865.1916               871.6588
 Red. masses --      2.8513                 1.5758                 3.3503
 Frc consts  --      0.8406                 0.6950                 1.4998
 IR Inten    --     16.4885                 0.0853                 7.7461

                     19                     20                     21
                      A                      A                      A
 Frequencies --    926.8392               974.9768              1034.4295
 Red. masses --      2.2512                 3.5660                 2.3204
 Frc consts  --      1.1394                 1.9972                 1.4629
 IR Inten    --      5.6663               130.1189                 1.1533

                     22                     23                     24
                      A                      A                      A
 Frequencies --   1089.8228              1105.1036              1148.9044
 Red. masses --      2.3553                 1.7052                 5.9466
 Frc consts  --      1.6482                 1.2270                 4.6248
 IR Inten    --     28.0145                 2.9849                97.9417

                     25                     26                     27
                      A                      A                      A
 Frequencies --   1159.6713              1191.3735              1236.0660
 Red. masses --      2.2126                 5.9977                13.3525
 Frc consts  --      1.7531                 5.0157                12.0198
 IR Inten    --     11.0944                 5.9516               158.9951

                     28                     29                     30
                      A                      A                      A
 Frequencies --   1244.9355              1299.4192              1335.7041
 Red. masses --      1.0770                 1.2703                 1.3233
 Frc consts  --      0.9834                 1.2637                 1.3910
 IR Inten    --      1.6319                34.0932                12.9496

                     31                     32                     33
                      A                      A                      A
 Frequencies --   1346.1936              1372.3159              1407.8749
 Red. masses --      1.2351                 1.2479                 1.2760
 Frc consts  --      1.3187                 1.3847                 1.4902
 IR Inten    --      0.9329                 0.1052                12.0488

                     34                     35                     36
                      A                      A                      A
 Frequencies --   1412.3941              1441.5307              1506.9596
 Red. masses --      1.3619                 1.3373                 1.0832
 Frc consts  --      1.6007                 1.6373                 1.4493
 IR Inten    --     15.8687                11.0953                 0.1110

                     37                     38                     39
                      A                      A                      A
 Frequencies --   1512.6190              1518.0052              1527.3825
 Red. masses --      1.0832                 1.0969                 1.1065
 Frc consts  --      1.4602                 1.4893                 1.5209
 IR Inten    --      0.0846                24.3167                 1.0211

                     40                     41                     42
                      A                      A                      A
 Frequencies --   2215.1588              3000.9158              3006.3754
 Red. masses --     13.9880                 1.0708                 1.0711
 Frc consts  --     40.4404                 5.6818                 5.7040
 IR Inten    --    614.8383                28.2271                55.6025

                     43                     44                     45
                      A                      A                      A
 Frequencies --   3018.3566              3028.9105              3121.4565
 Red. masses --      1.0684                 1.0684                 1.0942
 Frc consts  --      5.7348                 5.7749                 6.2812
 IR Inten    --     32.9200                38.3764                37.7955

                     46                     47                     48
                      A                      A                      A
 Frequencies --   3123.2293              3125.8520              3130.6533
 Red. masses --      1.0964                 1.0949                 1.0959
 Frc consts  --      6.3010                 6.3029                 6.3283
 IR Inten    --     27.3956                11.1260                12.2246

 - Thermochemistry -
 -------------------
 Temperature   298.150 Kelvin.  Pressure   1.00000 Atm.
 Atom     1 has atomic number  6 and mass  12.00000

 Molecular mass:   160.04188 amu.
 Principal axes and moments of inertia in atomic units:
                           1         2         3
     Eigenvalues --   770.646332692.033793020.61094
           X            1.00000   0.00240   0.00021
           Y           -0.00241   0.99695   0.07804
           Z           -0.00003  -0.07804   0.99695
 This molecule is an asymmetric top.
 Rotational symmetry number  1.
 Warning -- assumption of classical behavior for rotation
           may cause significant error
 Rotational temperatures (Kelvin)      0.11239     0.03217     0.02867
 Rotational constants (GHZ):           2.34185     0.67040     0.59748
 Zero-point vibrational energy     366079.4 (Joules/Mol)
                                   87.49507 (Kcal/Mol)
 Warning -- explicit consideration of  14 degrees of freedom as
           vibrations may cause significant error
 Vibrational temperatures:     60.30   104.87   116.54   266.93   309.42
          (Kelvin)            349.96   448.13   503.12   584.80   646.35
                              685.23   699.34   850.55   858.21   992.18
                             1017.75  1244.82  1254.12  1333.51  1402.77
                             1488.31  1568.01  1590.00  1653.02  1668.51
                             1714.12  1778.42  1791.18  1869.57  1921.78
                             1936.87  1974.46  2025.62  2032.12  2074.04
                             2168.18  2176.32  2184.07  2197.56  3187.12
                             4317.65  4325.50  4342.74  4357.93  4491.08
                             4493.63  4497.40  4504.31

 Zero-point correction=                           0.139432 (Hartree/Particle)
 Thermal correction to Energy=                    0.149116
 Thermal correction to Enthalpy=                  0.150061
 Thermal correction to Gibbs Free Energy=         0.103090
 Sum of electronic and zero-point Energies=           -849.444100
 Sum of electronic and thermal Energies=              -849.434416
 Sum of electronic and thermal Enthalpies=            -849.433472
 Sum of electronic and thermal Free Energies=         -849.480443

                     E (Thermal)             CV                S
                      KCal/Mol        Cal/Mol-Kelvin    Cal/Mol-Kelvin
 Total                   93.572             34.724             98.859
 Electronic               0.000              0.000              0.000
 Translational            0.889              2.981             41.120
 Rotational               0.889              2.981             30.217
 Vibrational             91.795             28.763             27.522
 Vibration     1          0.595              1.980              5.167
 Vibration     2          0.599              1.967              4.074
 Vibration     3          0.600              1.962              3.866
 Vibration     4          0.632              1.860              2.272
 Vibration     5          0.645              1.818              2.000
 Vibration     6          0.659              1.774              1.779
 Vibration     7          0.700              1.652              1.355
 Vibration     8          0.727              1.576              1.168
 Vibration     9          0.771              1.456              0.939
 Vibration    10          0.808              1.363              0.798
 Vibration    11          0.833              1.303              0.720
 Vibration    12          0.842              1.281              0.694
 Vibration    13          0.949              1.051              0.465
 Vibration    14          0.954              1.039              0.456

 Optimization completed.
    -- Stationary point found.
 Normal termination of Gaussian 16 at Tue Dec  8 13:07:55 2020.

 ----------------------------------------------------------------------
 # B3LYP/6-311++G(d,p) empiricaldispersion=gd3bj scf=xqc pop=npa geom=c
 heck
 ----------------------------------------------------------------------

 --------------------------------------
 CID_149684438_JID_666_Energie_neutraal
 --------------------------------------
 Structure from the checkpoint file:  "JID_666.chk"
 Charge =  0 Multiplicity = 1

 SCF Done:  E(RB3LYP) =  -849.739226835     A.U. after   16 cycles
 Normal termination of Gaussian 16 at Tue Dec  8 13:13:00 2020.

 ----------------------------------------------------------------------
 # B3LYP/6-311++G(d,p) empiricaldispersion=gd3bj scf=xqc pop=npa geom=c
 heck
 ----------------------------------------------------------------------

 ------------------------------------
 CID_149684438_JID_666_Energie_kation
 ------------------------------------
 Structure from the checkpoint file:  "JID_666.chk"
 Charge =  1 Multiplicity = 2

 SCF Done:  E(UB3LYP) =  -849.413156393     A.U. after   27 cycles
 Normal termination of Gaussian 16 at Tue Dec  8 13:27:29 2020.
 Gaussian 16:  ES64L-G16RevA.03 25-Dec-2016

 ----------------------------------------------------------------------
 # B3LYP/6-311++G(d,p) empiricaldispersion=gd3bj scf=xqc pop=npa geom=c
 heck
 ----------------------------------------------------------------------

 -----------------------------------
 CID_149684438_JID_666_Energie_anion
 -----------------------------------
 Structure from the checkpoint file:  "JID_666.chk"
 Charge = -1 Multiplicity = 2

                         Standard orientation:
 ---------------------------------------------------------------------
 Center     Atomic      Atomic             Coordinates (Angstroms)
 Number     Number       Type             X           Y           Z
 ---------------------------------------------------------------------
      1          6           0        1.146999    1.078679    0.640257
      2          6           0        2.620027    0.697155    0.507078
      3          8           0        2.791864   -0.712181    0.528254
      4          6           0        2.091994   -1.318791   -0.546831
      5          6           0        0.593441   -1.033504   -0.461131
      6          7           0        0.381032    0.421907   -0.431684
      7         16           0       -1.126082    1.018085   -0.805867
      8          7           0       -2.204447    0.623052    0.609240
      9          7           0       -2.794758   -0.462558    0.470037
     10          7           0       -3.388811   -1.436723    0.438939
     11          1           0        0.768088    0.762379    1.623331
     12          1           0        1.016445    2.159611    0.546772
     13          1           0        3.024676    1.114552   -0.429040
     14          1           0        3.192874    1.095834    1.348790
     15          1           0        2.278302   -2.393970   -0.476987
     16          1           0        2.480609   -0.951094   -1.510172
     17          1           0        0.186224   -1.495875    0.451187
     18          1           0        0.069302   -1.444336   -1.328003
 ---------------------------------------------------------------------

 SCF Done:  E(UB3LYP) =  -849.739434297     A.U. after   33 cycles
 SCF Done:  E(UB3LYP) =  -849.739434297     a.u. after    1 cycles

 The electronic state is 2-A.
 Alpha  occ. eigenvalues --  -88.71836 -19.02274 -14.28099 -14.20850 -14.19009
 Alpha  occ. eigenvalues --  -14.18926 -10.11202 -10.10981 -10.08499 -10.08264
 Alpha  occ. eigenvalues --   -7.80221  -5.76789  -5.76346  -5.75420  -0.95686
 Alpha  occ. eigenvalues --   -0.93949  -0.81765  -0.78735  -0.66673  -0.62008
 Alpha  occ. eigenvalues --   -0.54733  -0.53092  -0.46021  -0.41076  -0.37479
 Alpha  occ. eigenvalues --   -0.36199  -0.35209  -0.35056  -0.33606  -0.33315
 Alpha  occ. eigenvalues --   -0.31716  -0.29079  -0.28118  -0.25508  -0.25224
 Alpha  occ. eigenvalues --   -0.25148  -0.20758  -0.17856  -0.15735  -0.11636
 Alpha  occ. eigenvalues --   -0.09890  -0.08790   0.05550
 Alpha virt. eigenvalues --    0.07561   0.08293   0.09866   0.11244   0.12150
 Alpha virt. eigenvalues --    0.12528   0.12853   0.13674   0.14466   0.15098
 Alpha virt. eigenvalues --    0.15556   0.17120   0.17874   0.18287   0.18990

  Beta  occ. eigenvalues --  -88.71636 -19.02272 -14.27690 -14.20803 -14.18935
  Beta  occ. eigenvalues --  -14.18338 -10.11185 -10.10962 -10.08497 -10.08259
  Beta  occ. eigenvalues --   -7.80021  -5.76525  -5.75957  -5.75283  -0.94820
  Beta  occ. eigenvalues --   -0.93941  -0.81492  -0.78260  -0.66646  -0.61580
  Beta  occ. eigenvalues --   -0.54705  -0.52590  -0.45822  -0.40672  -0.37444
  Beta  occ. eigenvalues --   -0.36116  -0.35035  -0.34760  -0.33004  -0.31871
  Beta  occ. eigenvalues --   -0.31436  -0.29020  -0.26885  -0.25412  -0.25197
  Beta  occ. eigenvalues --   -0.24602  -0.20681  -0.17005  -0.15404  -0.10937
  Beta  occ. eigenvalues --   -0.09542  -0.08297
  Beta virt. eigenvalues --    0.07847   0.08838   0.09736   0.11075   0.12166
  Beta virt. eigenvalues --    0.12233   0.12611   0.12948   0.13877   0.14812
  Beta virt. eigenvalues --    0.15476   0.15572   0.17353   0.17996   0.18270

 Mulliken charges and spin densities:
               1          2
     1  C   -0.427713   0.201153
     2  C    0.243368  -0.578887
     3  O   -0.179845   0.045133
     4  C    0.230350  -0.645102
     5  C   -0.291684   0.156262
     6  N    0.043810  -0.008613
     7  S   -0.151538   0.335957
     8  N   -1.008082   0.008265
     9  N    0.729690   0.126265
    10  N   -0.294080   0.306777
    11  H    0.103680   0.068267
    12  H    0.118770  -0.004822
    13  H    0.093432   0.020134
    14  H   -0.200126   0.365482
    15  H   -0.309969   0.483432
    16  H    0.123109  -0.009162
    17  H    0.132197   0.048960
    18  H    0.044631   0.080497
 Sum of Mulliken charges =  -1.00000   1.00000

 Dipole moment (field-independent basis, Debye):
    X=              4.2968    Y=              2.0762    Z=             -1.3249  Tot=              4.9526
 Quadrupole moment (field-independent basis, Debye-Ang):
   XX=           -115.7950   YY=            -90.2738   ZZ=            -81.6016
   XY=             -1.0913   XZ=             -2.7493   YZ=              2.2012

 Summary of Natural Population Analysis:

                                       Natural Population
                Natural  -----------------------------------------------
    Atom  No    Charge         Core      Valence    Rydberg      Total
 -----------------------------------------------------------------------
      C    1   -0.09909      0.99961     2.08734    0.01213     3.09909
      C    2   -0.01623      0.99958     2.00272    0.01394     3.01623
      O    3   -0.29984      0.99989     3.28983    0.01013     4.29984
      C    4   -0.01589      0.99958     2.00240    0.01390     3.01589
      C    5   -0.10147      0.99961     2.08854    0.01332     3.10147
      N    6   -0.34026      0.99973     2.82531    0.01523     3.84026
      S    7    0.30530      4.99954     2.66806    0.02710     7.69470
      N    8   -0.29789      0.99975     2.78106    0.01708     3.79789
      N    9    0.13671      0.99971     2.34811    0.01547     3.36329
      N   10    0.00502      0.99982     2.48168    0.01348     3.49498
      H   11    0.09090      0.00000     0.40724    0.00185     0.40910
      H   12    0.10252      0.00000     0.39640    0.00108     0.39748
      H   13    0.07581      0.00000     0.42271    0.00148     0.42419
      H   14    0.09061      0.00000     0.40783    0.00156     0.40939
      H   15    0.09227      0.00000     0.40602    0.00171     0.40773
      H   16    0.07558      0.00000     0.42291    0.00150     0.42442
      H   17    0.09105      0.00000     0.40695    0.00200     0.40895
      H   18    0.10488      0.00000     0.39365    0.00147     0.39512
 =======================================================================
   * Total *    0.00000     13.99682    27.83876    0.16443    42.00000

 Normal termination of Gaussian 16 at Tue Dec  8 13:33:12 2020.
