 Gaussian 16, Revision A.03,

 -----------------------------------------------------------
 # opt freq B3LYP/6-31G(d) empiricaldispersion=gd3bj scf=xqc
 -----------------------------------------------------------

 ------------------------------
 CID_126582817_JID_386_neutraal
 ------------------------------
 Symbolic Z-matrix:
 Charge =  0 Multiplicity = 1

 SCF Done:  E(RB3LYP) =  -423.989817051     A.U. after   13 cycles
 SCF Done:  E(RB3LYP) =  -423.994460768     A.U. after   11 cycles
 SCF Done:  E(RB3LYP) =  -423.994984141     A.U. after   11 cycles
 SCF Done:  E(RB3LYP) =  -423.995102055     A.U. after   10 cycles
 SCF Done:  E(RB3LYP) =  -423.995136913     A.U. after    9 cycles
 SCF Done:  E(RB3LYP) =  -423.995146568     A.U. after    8 cycles
 SCF Done:  E(RB3LYP) =  -423.995148687     A.U. after    7 cycles
 SCF Done:  E(RB3LYP) =  -423.995149311     A.U. after    7 cycles
 SCF Done:  E(RB3LYP) =  -423.995149525     A.U. after    7 cycles
 SCF Done:  E(RB3LYP) =  -423.995149575     A.U. after    7 cycles
 Optimization completed.
    -- Stationary point found.

 1\1\GINC-NODE200\FOpt\RB3LYP\6-31G(d)\C8H16N2\VSC10255\08-Dec-2020\0\\
 # opt freq B3LYP/6-31G(d) empiricaldispersion=gd3bj scf=xqc\\CID_12658
 2817_JID_386_neutraal\\0,1\C,-1.9150349004,0.4274374642,0.6037066308\C
 ,-0.7136386615,1.2942181853,1.0626825428\C,0.0933230383,1.8101835113,-
 0.0926755048\C,1.2498313328,1.2839532975,-0.5336123677\C,1.9854460794,
 0.1398788148,0.1318949637\C,1.4923333406,-1.2892982041,-0.2097054057\C
 ,0.3525569235,-1.8429896257,0.677150879\N,-0.9516739269,-1.9065162149,
 0.0167153473\C,-1.5896442411,-0.668577733,-0.4295143469\N,1.9408543714

 Normal termination of Gaussian 16 at Tue Dec  8 10:31:00 2020.

 --------------------------------------------------------------------
 #N Geom=AllCheck Guess=TCheck SCRF=Check GenChk RB3LYP/6-31G(d) Freq
 --------------------------------------------------------------------

 Structure from the checkpoint file:  "JID_386.chk"
 ------------------------------
 CID_126582817_JID_386_neutraal
 ------------------------------
 Charge =  0 Multiplicity = 1

 SCF Done:  E(RB3LYP) =  -423.995149575     A.U. after    1 cycles

  Exact polarizability: 103.314  -8.351 105.042   6.646   1.517  78.055
 Approx polarizability: 139.595 -16.848 150.625  12.328   0.146 117.937

                      1                      2                      3
                      A                      A                      A
 Frequencies --     86.7027               137.0569               176.9428
 Red. masses --      3.3884                 2.6423                 2.2342
 Frc consts  --      0.0150                 0.0292                 0.0412
 IR Inten    --      3.0828                 0.3841                 2.1792

                      4                      5                      6
                      A                      A                      A
 Frequencies --    200.4885               231.2484               266.0274
 Red. masses --      3.5107                 2.3466                 2.4520
 Frc consts  --      0.0831                 0.0739                 0.1022
 IR Inten    --      1.8507                 0.5293                 2.1819

                      7                      8                      9
                      A                      A                      A
 Frequencies --    321.6643               342.8193               384.3123
 Red. masses --      2.1998                 1.1155                 2.6416
 Frc consts  --      0.1341                 0.0772                 0.2299
 IR Inten    --      3.7074                50.7080                 3.1532

                     10                     11                     12
                      A                      A                      A
 Frequencies --    420.8997               440.2192               470.8789
 Red. masses --      2.1320                 1.9275                 2.1662
 Frc consts  --      0.2225                 0.2201                 0.2830
 IR Inten    --      1.6186                 9.9087                15.0319

                     13                     14                     15
                      A                      A                      A
 Frequencies --    496.0275               549.6018               614.3717
 Red. masses --      2.4070                 1.9637                 2.5551
 Frc consts  --      0.3489                 0.3495                 0.5682
 IR Inten    --      1.6595                 4.6792                86.7432

                     16                     17                     18
                      A                      A                      A
 Frequencies --    701.0810               722.5936               754.7753
 Red. masses --      2.0264                 1.3673                 2.0732
 Frc consts  --      0.5868                 0.4206                 0.6959
 IR Inten    --     42.1955               182.2364                69.4548

                     19                     20                     21
                      A                      A                      A
 Frequencies --    791.1792               825.4799               843.1938
 Red. masses --      1.6687                 2.2491                 2.1544
 Frc consts  --      0.6154                 0.9030                 0.9025
 IR Inten    --     59.0871                12.8412                 2.0701

                     22                     23                     24
                      A                      A                      A
 Frequencies --    854.1531               903.2500               952.1867
 Red. masses --      1.7320                 1.5674                 1.9335
 Frc consts  --      0.7445                 0.7534                 1.0329
 IR Inten    --     36.3284                 1.0959                 2.6672

                     25                     26                     27
                      A                      A                      A
 Frequencies --    976.9849               999.6387              1052.0889
 Red. masses --      2.0743                 2.2430                 2.2138
 Frc consts  --      1.1666                 1.3206                 1.4437
 IR Inten    --      0.4227                 4.0932                 2.1817

                     28                     29                     30
                      A                      A                      A
 Frequencies --   1063.2525              1072.9383              1094.5644
 Red. masses --      2.0208                 2.7504                 1.8735
 Frc consts  --      1.3460                 1.8655                 1.3225
 IR Inten    --      3.1412                12.8797                 0.2754

                     31                     32                     33
                      A                      A                      A
 Frequencies --   1115.4280              1169.5967              1176.4854
 Red. masses --      1.8885                 1.6663                 1.5734
 Frc consts  --      1.3843                 1.3430                 1.2831
 IR Inten    --      5.1260                13.0776                14.1267

                     34                     35                     36
                      A                      A                      A
 Frequencies --   1198.5511              1234.6409              1242.1308
 Red. masses --      1.5447                 1.4924                 1.2426
 Frc consts  --      1.3074                 1.3404                 1.1296
 IR Inten    --     14.3564                 6.7262                 2.6047

                     37                     38                     39
                      A                      A                      A
 Frequencies --   1272.9843              1315.2689              1324.5665
 Red. masses --      1.3219                 1.1936                 1.4811
 Frc consts  --      1.2621                 1.2166                 1.5311
 IR Inten    --     20.7386                10.6092                21.9198

                     40                     41                     42
                      A                      A                      A
 Frequencies --   1346.6170              1354.7582              1373.6781
 Red. masses --      1.1407                 1.2960                 1.3919
 Frc consts  --      1.2188                 1.4014                 1.5475
 IR Inten    --      2.8245                 0.3949                 0.6465

                     43                     44                     45
                      A                      A                      A
 Frequencies --   1383.2549              1396.4667              1416.6335
 Red. masses --      1.2851                 1.3768                 1.2930
 Frc consts  --      1.4487                 1.5820                 1.5289
 IR Inten    --      0.9390                 5.9299                16.4891

                     46                     47                     48
                      A                      A                      A
 Frequencies --   1432.4672              1440.8305              1502.8949
 Red. masses --      1.3429                 1.7373                 1.0923
 Frc consts  --      1.6236                 2.1250                 1.4536
 IR Inten    --      8.7175                11.8864                 2.7245

                     49                     50                     51
                      A                      A                      A
 Frequencies --   1508.2123              1517.3277              1519.5325
 Red. masses --      1.0866                 1.1111                 1.0836
 Frc consts  --      1.4562                 1.5071                 1.4741
 IR Inten    --      3.8770                 0.9381                 5.6585

                     52                     53                     54
                      A                      A                      A
 Frequencies --   1530.5738              1536.8039              1553.7099
 Red. masses --      1.1060                 1.2339                 1.0863
 Frc consts  --      1.5266                 1.7169                 1.5451
 IR Inten    --     15.5983                 4.9052                 4.8286

                     55                     56                     57
                      A                      A                      A
 Frequencies --   1688.0447              1750.4082              2956.5892
 Red. masses --      1.1411                 5.8225                 1.0740
 Frc consts  --      1.9158                10.5109                 5.5314
 IR Inten    --     34.5589                87.0664                68.3250

                     58                     59                     60
                      A                      A                      A
 Frequencies --   3013.2477              3031.5092              3040.0238
 Red. masses --      1.0618                 1.0698                 1.0694
 Frc consts  --      5.6801                 5.7926                 5.8230
 IR Inten    --     24.2609                81.6626                 8.6594

                     61                     62                     63
                      A                      A                      A
 Frequencies --   3045.9804              3051.5508              3054.9953
 Red. masses --      1.0814                 1.0665                 1.0864
 Frc consts  --      5.9116                 5.8514                 5.9741
 IR Inten    --     30.2431                30.8167                67.1266

                     64                     65                     66
                      A                      A                      A
 Frequencies --   3061.2293              3086.5071              3091.4382
 Red. masses --      1.0776                 1.1019                 1.0997
 Frc consts  --      5.9500                 6.1847                 6.1923
 IR Inten    --     50.1188                46.9201                20.3984

                     67                     68                     69
                      A                      A                      A
 Frequencies --   3097.5240              3105.7481              3126.6622
 Red. masses --      1.0980                 1.0894                 1.0886
 Frc consts  --      6.2071                 6.1912                 6.2701
 IR Inten    --     29.0045                26.2465                56.3824

                     70                     71                     72
                      A                      A                      A
 Frequencies --   3493.3157              3515.5716              3613.0337
 Red. masses --      1.0738                 1.0480                 1.0966
 Frc consts  --      7.7209                 7.6313                 8.4340
 IR Inten    --      2.1063                 2.5515                 1.6199

 - Thermochemistry -
 -------------------
 Temperature   298.150 Kelvin.  Pressure   1.00000 Atm.
 Atom     1 has atomic number  6 and mass  12.00000

 Molecular mass:   140.13135 amu.
 Principal axes and moments of inertia in atomic units:
                           1         2         3
     Eigenvalues --  1064.275141562.803152154.05378
           X            0.99924  -0.03678   0.01300
           Y            0.03659   0.99923   0.01433
           Z           -0.01352  -0.01384   0.99981
 This molecule is an asymmetric top.
 Rotational symmetry number  1.
 Warning -- assumption of classical behavior for rotation
           may cause significant error
 Rotational temperatures (Kelvin)      0.08138     0.05542     0.04021
 Rotational constants (GHZ):           1.69575     1.15481     0.83783
 Zero-point vibrational energy     630631.9 (Joules/Mol)
                                  150.72463 (Kcal/Mol)
 Warning -- explicit consideration of  15 degrees of freedom as
           vibrations may cause significant error
 Vibrational temperatures:    124.75   197.19   254.58   288.46   332.71
          (Kelvin)            382.75   462.80   493.24   552.94   605.58
                              633.38   677.49   713.67   790.75   883.94
                             1008.70  1039.65  1085.95  1138.33  1187.68
                             1213.17  1228.94  1299.58  1369.98  1405.66
                             1438.26  1513.72  1529.78  1543.72  1574.83
                             1604.85  1682.79  1692.70  1724.45  1776.37
                             1787.15  1831.54  1892.38  1905.76  1937.48
                             1949.19  1976.42  1990.20  2009.20  2038.22
                             2061.00  2073.03  2162.33  2169.98  2183.10
                             2186.27  2202.15  2211.12  2235.44  2428.72
                             2518.45  4253.87  4335.39  4361.67  4373.92
                             4382.49  4390.50  4395.46  4404.43  4440.80
                             4447.89  4456.65  4468.48  4498.57  5026.10
                             5058.12  5198.35

 Zero-point correction=                           0.240195 (Hartree/Particle)
 Thermal correction to Energy=                    0.250170
 Thermal correction to Enthalpy=                  0.251114
 Thermal correction to Gibbs Free Energy=         0.205769
 Sum of electronic and zero-point Energies=           -423.754955
 Sum of electronic and thermal Energies=              -423.744979
 Sum of electronic and thermal Enthalpies=            -423.744035
 Sum of electronic and thermal Free Energies=         -423.789381

                     E (Thermal)             CV                S
                      KCal/Mol        Cal/Mol-Kelvin    Cal/Mol-Kelvin
 Total                  156.984             40.167             95.438
 Electronic               0.000              0.000              0.000
 Translational            0.889              2.981             40.724
 Rotational               0.889              2.981             29.662
 Vibrational            155.207             34.206             25.053
 Vibration     1          0.601              1.958              3.733
 Vibration     2          0.614              1.916              2.845
 Vibration     3          0.628              1.871              2.360
 Vibration     4          0.638              1.839              2.129
 Vibration     5          0.653              1.793              1.869
 Vibration     6          0.672              1.735              1.622
 Vibration     7          0.707              1.632              1.302
 Vibration     8          0.722              1.590              1.199
 Vibration     9          0.753              1.504              1.022
 Vibration    10          0.783              1.425              0.889
 Vibration    11          0.800              1.382              0.826
 Vibration    12          0.828              1.315              0.735
 Vibration    13          0.852              1.259              0.668
 Vibration    14          0.905              1.141              0.545
 Vibration    15          0.974              1.001              0.426

 Optimization completed.
    -- Stationary point found.

 1\1\GINC-NODE200\Freq\RB3LYP\6-31G(d)\C8H16N2\VSC10255\08-Dec-2020\0\\
 #N Geom=AllCheck Guess=TCheck SCRF=Check GenChk RB3LYP/6-31G(d) Freq\\
 CID_126582817_JID_386_neutraal\\0,1\C,-1.9150349004,0.4274374642,0.603
 7066308\C,-0.7136386615,1.2942181853,1.0626825428\C,0.0933230383,1.810
 1835113,-0.0926755048\C,1.2498313328,1.2839532975,-0.5336123677\C,1.98
 54460794,0.1398788148,0.1318949637\C,1.4923333406,-1.2892982041,-0.209
 7054057\C,0.3525569235,-1.8429896257,0.677150879\N,-0.9516739269,-1.90
 65162149,0.0167153473\C,-1.5896442411,-0.668577733,-0.4295143469\N,1.9

 Normal termination of Gaussian 16 at Tue Dec  8 10:37:01 2020.

 ----------------------------------------------------------------------
 # B3LYP/6-311++G(d,p) empiricaldispersion=gd3bj scf=xqc pop=npa geom=c
 heck
 ----------------------------------------------------------------------

 --------------------------------------
 CID_126582817_JID_386_Energie_neutraal
 --------------------------------------
 Structure from the checkpoint file:  "JID_386.chk"
 Charge =  0 Multiplicity = 1

 SCF Done:  E(RB3LYP) =  -424.124542319     A.U. after   13 cycles
 Normal termination of Gaussian 16 at Tue Dec  8 10:41:00 2020.

 ----------------------------------------------------------------------
 # B3LYP/6-311++G(d,p) empiricaldispersion=gd3bj scf=xqc pop=npa geom=c
 heck
 ----------------------------------------------------------------------

 ------------------------------------
 CID_126582817_JID_386_Energie_kation
 ------------------------------------
 Structure from the checkpoint file:  "JID_386.chk"
 Charge =  1 Multiplicity = 2

 SCF Done:  E(UB3LYP) =  -423.854517188     A.U. after   21 cycles
 Normal termination of Gaussian 16 at Tue Dec  8 10:47:54 2020.
 Gaussian 16:  ES64L-G16RevA.03 25-Dec-2016

 -----------------------------------
 CID_126582817_JID_386_Energie_anion
 -----------------------------------
 Structure from the checkpoint file:  "JID_386.chk"
 Charge = -1 Multiplicity = 2

                         Standard orientation:
 ---------------------------------------------------------------------
 Center     Atomic      Atomic             Coordinates (Angstroms)
 Number     Number       Type             X           Y           Z
 ---------------------------------------------------------------------
      1          6           0        1.508480   -1.632338    0.068507
      2          6           0        0.252602   -1.581420    0.977077
      3          6           0       -1.013770   -1.401242    0.192158
      4          6           0       -1.669608   -0.239014    0.024959
      5          6           0       -1.292048    1.067387    0.691067
      6          6           0       -0.168253    1.889616    0.010315
      7          6           0        1.277432    1.547358    0.440468
      8          7           0        2.052555    0.821443   -0.566240
      9          6           0        1.616201   -0.510752   -0.982737
     10          7           0       -2.844272   -0.142644   -0.749130
     11          1           0        2.414957   -1.649820    0.691038
     12          1           0        1.493146   -2.586828   -0.477402
     13          1           0        0.361882   -0.780911    1.714318
     14          1           0        0.212196   -2.517613    1.551211
     15          1           0       -1.368618   -2.274971   -0.357699
     16          1           0       -1.008049    0.884872    1.733471
     17          1           0       -2.199845    1.681303    0.737259
     18          1           0       -0.346653    2.942424    0.259464
     19          1           0       -0.240849    1.820497   -1.081695
     20          1           0        1.244521    1.049907    1.426077
     21          1           0        1.820392    2.486546    0.601164
     22          1           0        3.017275    0.767190   -0.246274
     23          1           0        0.647031   -0.410221   -1.482674
     24          1           0        2.327928   -0.829757   -1.754509
     25          1           0       -2.966462   -0.913350   -1.398052
     26          1           0       -2.933042    0.741565   -1.239001
 ---------------------------------------------------------------------

 SCF Done:  E(UB3LYP) =  -424.107358058     A.U. after   31 cycles

 The electronic state is 2-A.
 Alpha  occ. eigenvalues --  -14.19955 -14.18394 -10.09186 -10.08135 -10.07368
 Alpha  occ. eigenvalues --  -10.06420 -10.05990 -10.05902 -10.05502 -10.03650
 Alpha  occ. eigenvalues --   -0.79956  -0.78979  -0.68465  -0.67465  -0.60562
 Alpha  occ. eigenvalues --   -0.59449  -0.52906  -0.49936  -0.45704  -0.42696
 Alpha  occ. eigenvalues --   -0.39585  -0.38807  -0.37470  -0.34984  -0.33269
 Alpha  occ. eigenvalues --   -0.32470  -0.30525  -0.29153  -0.28653  -0.27368
 Alpha  occ. eigenvalues --   -0.25210  -0.25161  -0.23169  -0.22247  -0.21877
 Alpha  occ. eigenvalues --   -0.21641  -0.20453  -0.11147  -0.09194   0.04832
 Alpha virt. eigenvalues --    0.06782   0.07226   0.08377   0.09242   0.09417
 Alpha virt. eigenvalues --    0.10215   0.11092   0.11190   0.12237   0.12687
 Alpha virt. eigenvalues --    0.13324   0.13842   0.14279   0.14675   0.15137

  Beta  occ. eigenvalues --  -14.19902 -14.18379 -10.09183 -10.08116 -10.07355
  Beta  occ. eigenvalues --  -10.06401 -10.05968 -10.05893 -10.05484 -10.03636
  Beta  occ. eigenvalues --   -0.79893  -0.78940  -0.68429  -0.67424  -0.60519
  Beta  occ. eigenvalues --   -0.59400  -0.52858  -0.49876  -0.45638  -0.42628
  Beta  occ. eigenvalues --   -0.39542  -0.38743  -0.37419  -0.34941  -0.33228
  Beta  occ. eigenvalues --   -0.32428  -0.30494  -0.29120  -0.28615  -0.27334
  Beta  occ. eigenvalues --   -0.25184  -0.25118  -0.23131  -0.22206  -0.21843
  Beta  occ. eigenvalues --   -0.21603  -0.20408  -0.11125  -0.09158
  Beta virt. eigenvalues --    0.07169   0.07961   0.08171   0.08737   0.09994
  Beta virt. eigenvalues --    0.10279   0.10579   0.11383   0.11521   0.12884
  Beta virt. eigenvalues --    0.13279   0.13521   0.14094   0.14598   0.14963

 Mulliken charges and spin densities:
               1          2
     1  C   -0.011139  -0.497228
     2  C    0.391409  -0.497890
     3  C   -0.563021   0.743326
     4  C    1.332032  -1.735563
     5  C   -0.023053  -0.382662
     6  C   -0.477221   0.292984
     7  C    0.666234  -1.079362
     8  N   -0.298955   0.206755
     9  C    0.550726  -0.921011
    10  N   -0.515012   0.220775
    11  H   -0.118051   0.255097
    12  H   -0.059540   0.183353
    13  H    0.056133   0.029685
    14  H   -0.013597   0.181533
    15  H   -0.384425   0.522341
    16  H    0.025180   0.110238
    17  H   -0.015894   0.184099
    18  H   -0.377713   0.531664
    19  H    0.112318   0.056310
    20  H   -0.141668   0.244541
    21  H   -0.365957   0.515155
    22  H    0.014035   0.214616
    23  H    0.058266   0.112216
    24  H   -0.377435   0.561380
    25  H   -0.241301   0.479446
    26  H   -0.222351   0.468203
 Sum of Mulliken charges =  -1.00000   1.00000

 Dipole moment (field-independent basis, Debye):
    X=              1.2633    Y=             -1.0693    Z=              2.6370  Tot=              3.1133
 Quadrupole moment (field-independent basis, Debye-Ang):
   XX=           -120.5612   YY=           -108.2776   ZZ=            -95.8842
   XY=             -2.1858   XZ=             -3.9034   YZ=             -2.9578

 Summary of Natural Population Analysis:

                                       Natural Population
                Natural  -----------------------------------------------
    Atom  No    Charge         Core      Valence    Rydberg      Total
 -----------------------------------------------------------------------
      C    1   -0.19447      0.99962     2.18663    0.00822     3.19447
      C    2   -0.20188      0.99961     2.19394    0.00832     3.20188
      C    3   -0.14684      0.99946     2.13686    0.01052     3.14684
      C    4    0.09297      0.99945     1.89499    0.01259     2.90703
      C    5   -0.20847      0.99958     2.19907    0.00982     3.20847
      C    6   -0.19549      0.99961     2.18692    0.00896     3.19549
      C    7   -0.08548      0.99961     2.07436    0.01151     3.08548
      N    8   -0.33877      0.99975     2.82618    0.01284     3.83877
      C    9   -0.09310      0.99961     2.08154    0.01196     3.09310
      N   10   -0.40301      0.99972     2.89204    0.01125     3.90301
      H   11    0.09259      0.00000     0.40593    0.00149     0.40741
      H   12    0.09482      0.00000     0.40360    0.00158     0.40518
      H   13    0.09559      0.00000     0.40251    0.00190     0.40441
      H   14    0.09583      0.00000     0.40308    0.00109     0.40417
      H   15    0.09212      0.00000     0.40668    0.00121     0.40788
      H   16    0.10186      0.00000     0.39682    0.00132     0.39814
      H   17    0.10356      0.00000     0.39500    0.00144     0.39644
      H   18    0.09982      0.00000     0.39853    0.00164     0.40018
      H   19    0.10198      0.00000     0.39612    0.00190     0.39802
      H   20    0.07368      0.00000     0.42438    0.00194     0.42632
      H   21    0.09414      0.00000     0.40423    0.00163     0.40586
      H   22    0.17112      0.00000     0.32607    0.00281     0.32888
      H   23    0.09631      0.00000     0.40179    0.00190     0.40369
      H   24    0.09354      0.00000     0.40529    0.00117     0.40646
      H   25    0.18377      0.00000     0.31291    0.00333     0.31623
      H   26    0.18381      0.00000     0.31255    0.00364     0.31619
 =======================================================================
   * Total *    0.00000      9.99602    28.86800    0.13597    39.00000

 Normal termination of Gaussian 16 at Tue Dec  8 10:56:08 2020.
