 Gaussian 16, Revision A.03,

 -----------------------------------------------------------
 # opt freq B3LYP/6-31G(d) empiricaldispersion=gd3bj scf=xqc
 -----------------------------------------------------------

 ------------------------------
 CID_58970621_JID_3270_neutraal
 ------------------------------
 Symbolic Z-matrix:
 Charge =  0 Multiplicity = 1

 SCF Done:  E(RB3LYP) =  -539.520372816     A.U. after   14 cycles
 SCF Done:  E(RB3LYP) =  -539.525002676     A.U. after   12 cycles
 SCF Done:  E(RB3LYP) =  -539.525853126     A.U. after   11 cycles
 SCF Done:  E(RB3LYP) =  -539.526071998     A.U. after   10 cycles
 SCF Done:  E(RB3LYP) =  -539.526151008     A.U. after   11 cycles
 SCF Done:  E(RB3LYP) =  -539.526176534     A.U. after   10 cycles
 SCF Done:  E(RB3LYP) =  -539.526213606     A.U. after   11 cycles
 SCF Done:  E(RB3LYP) =  -539.526232176     A.U. after   10 cycles
 SCF Done:  E(RB3LYP) =  -539.526241029     A.U. after   10 cycles
 SCF Done:  E(RB3LYP) =  -539.526247253     A.U. after    9 cycles
 SCF Done:  E(RB3LYP) =  -539.526250192     A.U. after    9 cycles
 SCF Done:  E(RB3LYP) =  -539.526250366     A.U. after    7 cycles
 SCF Done:  E(RB3LYP) =  -539.526250507     A.U. after    6 cycles
 Optimization completed.
    -- Stationary point found.
 Normal termination of Gaussian 16 at Wed Dec  9 22:32:30 2020.

 --------------------------------------------------------------------
 #N Geom=AllCheck Guess=TCheck SCRF=Check GenChk RB3LYP/6-31G(d) Freq
 --------------------------------------------------------------------

 Structure from the checkpoint file:  "JID_3270.chk"
 ------------------------------
 CID_58970621_JID_3270_neutraal
 ------------------------------
 Charge =  0 Multiplicity = 1

 SCF Done:  E(RB3LYP) =  -539.526250507     A.U. after    1 cycles

  Exact polarizability: 167.133   0.348 116.625   7.298   2.179  94.341
 Approx polarizability: 206.871  -0.120 187.827  13.361   5.622 138.125

                      1                      2                      3
                      A                      A                      A
 Frequencies --     25.8495                48.4384                60.3372
 Red. masses --      2.7935                 3.3526                 2.9287
 Frc consts  --      0.0011                 0.0046                 0.0063
 IR Inten    --      0.0836                 0.2540                 0.1693

                      4                      5                      6
                      A                      A                      A
 Frequencies --     97.7926               149.2805               172.4871
 Red. masses --      3.1694                 1.7779                 1.9904
 Frc consts  --      0.0179                 0.0233                 0.0349
 IR Inten    --      0.6004                 1.7767                 0.1021

                      7                      8                      9
                      A                      A                      A
 Frequencies --    191.2114               202.3738               225.3851
 Red. masses --      1.9482                 2.8268                 1.1125
 Frc consts  --      0.0420                 0.0682                 0.0333
 IR Inten    --      3.7680                 1.5362                 0.2675

                     10                     11                     12
                      A                      A                      A
 Frequencies --    245.1541               284.5766               285.4431
 Red. masses --      1.2328                 2.4517                 2.6281
 Frc consts  --      0.0437                 0.1170                 0.1262
 IR Inten    --      0.2140                 0.3331                 1.0330

                     13                     14                     15
                      A                      A                      A
 Frequencies --    309.8994               348.8248               397.0510
 Red. masses --      2.6330                 2.7632                 2.7641
 Frc consts  --      0.1490                 0.1981                 0.2567
 IR Inten    --      1.3728                 1.1172                 0.0907

                     16                     17                     18
                      A                      A                      A
 Frequencies --    422.8963               456.7991               482.9265
 Red. masses --      1.9695                 3.5018                 3.3204
 Frc consts  --      0.2075                 0.4305                 0.4562
 IR Inten    --      0.2141                 0.6351                 3.3921

                     19                     20                     21
                      A                      A                      A
 Frequencies --    622.9227               664.6260               685.0668
 Red. masses --      2.7028                 5.2042                 3.5642
 Frc consts  --      0.6179                 1.3544                 0.9855
 IR Inten    --      1.1488                 5.1168                 3.3040

                     22                     23                     24
                      A                      A                      A
 Frequencies --    729.8419               784.0013               798.2989
 Red. masses --      4.1509                 1.7248                 2.1277
 Frc consts  --      1.3027                 0.6246                 0.7989
 IR Inten    --      3.8947                11.9706                14.1722

                     25                     26                     27
                      A                      A                      A
 Frequencies --    801.8426               831.2979               835.3013
 Red. masses --      1.1312                 1.5799                 2.6942
 Frc consts  --      0.4285                 0.6433                 1.1076
 IR Inten    --      0.3961                 8.7475                 3.2421

                     28                     29                     30
                      A                      A                      A
 Frequencies --    902.9707               916.0973               927.5467
 Red. masses --      1.5169                 2.9579                 2.9723
 Frc consts  --      0.7287                 1.4626                 1.5066
 IR Inten    --      3.4127                 3.7391                10.9403

                     31                     32                     33
                      A                      A                      A
 Frequencies --    943.4790               964.1328               980.0499
 Red. masses --      1.1891                 1.9565                 1.5106
 Frc consts  --      0.6236                 1.0715                 0.8549
 IR Inten    --      2.1919                 1.9091                 0.0278

                     34                     35                     36
                      A                      A                      A
 Frequencies --   1029.4579              1058.7523              1065.6683
 Red. masses --      3.2766                 2.2987                 1.3617
 Frc consts  --      2.0459                 1.5182                 0.9111
 IR Inten    --     21.9368                 2.8250                 4.3159

                     37                     38                     39
                      A                      A                      A
 Frequencies --   1077.3364              1081.1032              1123.7753
 Red. masses --      1.5140                 1.3585                 1.6352
 Frc consts  --      1.0353                 0.9355                 1.2167
 IR Inten    --      4.6092                 3.2763                 5.5677

                     40                     41                     42
                      A                      A                      A
 Frequencies --   1141.5162              1148.9995              1154.9463
 Red. masses --      1.0978                 2.1162                 1.3152
 Frc consts  --      0.8428                 1.6460                 1.0336
 IR Inten    --      0.9211                 1.3741                 7.3089

                     43                     44                     45
                      A                      A                      A
 Frequencies --   1171.6687              1206.3485              1211.9934
 Red. masses --      1.5490                 1.7410                 1.3979
 Frc consts  --      1.2529                 1.4928                 1.2098
 IR Inten    --      0.5630                 8.7895                 0.8332

                     46                     47                     48
                      A                      A                      A
 Frequencies --   1223.8662              1261.7448              1268.9619
 Red. masses --      2.4559                 1.8190                 1.6880
 Frc consts  --      2.1673                 1.7061                 1.6015
 IR Inten    --      0.9700                 1.6265                 1.6827

                     49                     50                     51
                      A                      A                      A
 Frequencies --   1314.1773              1330.8036              1375.8393
 Red. masses --      3.1631                 1.4358                 2.0471
 Frc consts  --      3.2186                 1.4983                 2.2831
 IR Inten    --     12.3079                 4.5310                30.9513

                     52                     53                     54
                      A                      A                      A
 Frequencies --   1384.4138              1392.9467              1429.0425
 Red. masses --      1.4117                 1.5209                 1.3531
 Frc consts  --      1.5941                 1.7386                 1.6281
 IR Inten    --      4.9511                 2.2920                 6.0091

                     55                     56                     57
                      A                      A                      A
 Frequencies --   1436.7840              1448.3003              1473.6826
 Red. masses --      2.3389                 1.2393                 1.6299
 Frc consts  --      2.8447                 1.5316                 2.0856
 IR Inten    --     34.9298                 4.3824                 5.4278

                     58                     59                     60
                      A                      A                      A
 Frequencies --   1496.6115              1500.8437              1510.3324
 Red. masses --      1.1042                 1.3397                 1.7505
 Frc consts  --      1.4572                 1.7780                 2.3526
 IR Inten    --      1.0343                 1.7102                 7.8843

                     61                     62                     63
                      A                      A                      A
 Frequencies --   1517.3766              1518.7351              1522.7808
 Red. masses --      1.0809                 1.0984                 1.2975
 Frc consts  --      1.4663                 1.4927                 1.7727
 IR Inten    --      3.8449                 8.5119                 0.8733

                     64                     65                     66
                      A                      A                      A
 Frequencies --   1526.5499              1534.1591              1538.4356
 Red. masses --      1.4750                 1.0580                 1.0531
 Frc consts  --      2.0252                 1.4671                 1.4685
 IR Inten    --      2.9085                 3.3613                 6.6226

                     67                     68                     69
                      A                      A                      A
 Frequencies --   1541.3785              1545.3508              1610.0482
 Red. masses --      1.4510                 1.4742                 5.7793
 Frc consts  --      2.0311                 2.0743                 8.8268
 IR Inten    --      6.4476                29.3948                37.1654

                     70                     71                     72
                      A                      A                      A
 Frequencies --   3015.6426              3033.4483              3036.9152
 Red. masses --      1.0832                 1.0535                 1.0425
 Frc consts  --      5.8040                 5.7116                 5.6650
 IR Inten    --     15.8891                10.3353                62.3419

                     73                     74                     75
                      A                      A                      A
 Frequencies --   3044.1241              3058.3242              3084.4701
 Red. masses --      1.0392                 1.0443                 1.1001
 Frc consts  --      5.6738                 5.7551                 6.1668
 IR Inten    --     30.2075                53.9371                10.8407

                     76                     77                     78
                      A                      A                      A
 Frequencies --   3099.1631              3105.3451              3109.0485
 Red. masses --      1.1017                 1.1017                 1.1017
 Frc consts  --      6.2347                 6.2594                 6.2746
 IR Inten    --     12.6414                50.2703                63.2314

                     79                     80                     81
                      A                      A                      A
 Frequencies --   3129.1279              3136.4737              3155.1806
 Red. masses --      1.1003                 1.0924                 1.0542
 Frc consts  --      6.3474                 6.3316                 6.1835
 IR Inten    --     33.4289                15.2844                19.1709

                     82                     83                     84
                      A                      A                      A
 Frequencies --   3163.5818              3174.1512              3182.1094
 Red. masses --      1.0586                 1.0883                 1.1029
 Frc consts  --      6.2422                 6.4601                 6.5799
 IR Inten    --     15.9096                 6.5339                 7.1445

                     85                     86                     87
                      A                      A                      A
 Frequencies --   3231.8326              3249.8324              3258.7630
 Red. masses --      1.1179                 1.1141                 1.0966
 Frc consts  --      6.8796                 6.9328                 6.8611
 IR Inten    --      4.7417                16.0733                 4.1174

 - Thermochemistry -
 -------------------
 Temperature   298.150 Kelvin.  Pressure   1.00000 Atm.
 Atom     1 has atomic number  6 and mass  12.00000

 Molecular mass:   178.14700 amu.
 Principal axes and moments of inertia in atomic units:
                           1         2         3
     Eigenvalues --   961.544834846.022915141.45844
           X            0.99999   0.00520  -0.00054
           Y           -0.00518   0.99963   0.02664
           Z            0.00068  -0.02663   0.99965
 This molecule is an asymmetric top.
 Rotational symmetry number  1.
 Warning -- assumption of classical behavior for rotation
           may cause significant error
 Rotational temperatures (Kelvin)      0.09008     0.01787     0.01685
 Rotational constants (GHZ):           1.87692     0.37242     0.35102
 Zero-point vibrational energy     725155.1 (Joules/Mol)
                                  173.31623 (Kcal/Mol)
 Warning -- explicit consideration of  18 degrees of freedom as
           vibrations may cause significant error
 Vibrational temperatures:     37.19    69.69    86.81   140.70   214.78
          (Kelvin)            248.17   275.11   291.17   324.28   352.72
                              409.44   410.69   445.88   501.88   571.27
                              608.45   657.23   694.82   896.25   956.25
                              985.66  1050.08  1128.00  1148.57  1153.67
                             1196.05  1201.81  1299.17  1318.06  1334.53
                             1357.46  1387.17  1410.07  1481.16  1523.31
                             1533.26  1550.05  1555.47  1616.86  1642.39
                             1653.15  1661.71  1685.77  1735.67  1743.79
                             1760.87  1815.37  1825.75  1890.81  1914.73
                             1979.53  1991.86  2004.14  2056.07  2067.21
                             2083.78  2120.30  2153.29  2159.38  2173.03
                             2183.17  2185.12  2190.94  2196.36  2207.31
                             2213.47  2217.70  2223.42  2316.50  4338.84
                             4364.46  4369.44  4379.82  4400.25  4437.86
                             4459.00  4467.90  4473.23  4502.12  4512.69
                             4539.60  4551.69  4566.90  4578.35  4649.89
                             4675.78  4688.63

 Zero-point correction=                           0.276197 (Hartree/Particle)
 Thermal correction to Energy=                    0.290045
 Thermal correction to Enthalpy=                  0.290989
 Thermal correction to Gibbs Free Energy=         0.234884
 Sum of electronic and zero-point Energies=           -539.250054
 Sum of electronic and thermal Energies=              -539.236206
 Sum of electronic and thermal Enthalpies=            -539.235262
 Sum of electronic and thermal Free Energies=         -539.291366

                     E (Thermal)             CV                S
                      KCal/Mol        Cal/Mol-Kelvin    Cal/Mol-Kelvin
 Total                  182.006             51.924            118.082
 Electronic               0.000              0.000              0.000
 Translational            0.889              2.981             41.439
 Rotational               0.889              2.981             31.550
 Vibrational            180.228             45.963             45.093
 Vibration     1          0.593              1.985              6.125
 Vibration     2          0.595              1.978              4.880
 Vibration     3          0.597              1.973              4.446
 Vibration     4          0.603              1.951              3.498
 Vibration     5          0.618              1.903              2.681
 Vibration     6          0.626              1.876              2.408
 Vibration     7          0.634              1.852              2.216
 Vibration     8          0.639              1.837              2.111
 Vibration     9          0.650              1.802              1.915
 Vibration    10          0.660              1.771              1.765
 Vibration    11          0.683              1.702              1.506
 Vibration    12          0.683              1.701              1.501
 Vibration    13          0.699              1.655              1.363
 Vibration    14          0.726              1.578              1.171
 Vibration    15          0.764              1.476              0.974
 Vibration    16          0.785              1.420              0.882
 Vibration    17          0.815              1.346              0.775
 Vibration    18          0.839              1.288              0.702

                           ! Non-Optimized Parameters !
 Normal termination of Gaussian 16 at Wed Dec  9 22:40:48 2020.

 ----------------------------------------------------------------------
 # B3LYP/6-311++G(d,p) empiricaldispersion=gd3bj scf=xqc pop=npa geom=c
 heck
 ----------------------------------------------------------------------

 --------------------------------------
 CID_58970621_JID_3270_Energie_neutraal
 --------------------------------------
 Structure from the checkpoint file:  "JID_3270.chk"
 Charge =  0 Multiplicity = 1

 SCF Done:  E(RB3LYP) =  -539.669557344     A.U. after   14 cycles
 Normal termination of Gaussian 16 at Wed Dec  9 22:44:49 2020.

 ----------------------------------------------------------------------
 # B3LYP/6-311++G(d,p) empiricaldispersion=gd3bj scf=xqc pop=npa geom=c
 heck
 ----------------------------------------------------------------------

 ------------------------------------
 CID_58970621_JID_3270_Energie_kation
 ------------------------------------
 Structure from the checkpoint file:  "JID_3270.chk"
 Charge =  1 Multiplicity = 2

 SCF Done:  E(UB3LYP) =  -539.374181752     A.U. after   26 cycles
 Normal termination of Gaussian 16 at Wed Dec  9 22:55:03 2020.
 Gaussian 16:  ES64L-G16RevA.03 25-Dec-2016

 ----------------------------------------------------------------------
 # B3LYP/6-311++G(d,p) empiricaldispersion=gd3bj scf=xqc pop=npa geom=c
 heck
 ----------------------------------------------------------------------

 -----------------------------------
 CID_58970621_JID_3270_Energie_anion
 -----------------------------------
 Structure from the checkpoint file:  "JID_3270.chk"
 Charge = -1 Multiplicity = 2

                         Standard orientation:
 ---------------------------------------------------------------------
 Center     Atomic      Atomic             Coordinates (Angstroms)
 Number     Number       Type             X           Y           Z
 ---------------------------------------------------------------------
      1          6           0       -2.933282    0.246316    1.551383
      2          6           0       -3.103004   -0.502252    0.225453
      3          6           0       -4.579627   -0.592353   -0.174278
      4          6           0       -2.279616    0.158584   -0.902714
      5          6           0       -0.804761    0.171552   -0.639531
      6          7           0       -0.172250    1.308161   -0.349127
      7          7           0        1.123197    0.954145   -0.114639
      8          6           0        1.327393   -0.391822   -0.266257
      9          6           0        0.090897   -0.922454   -0.600238
     10          6           0        2.590177   -1.140439   -0.087831
     11          6           0        3.980727   -0.586432   -0.328130
     12          6           0        3.546213   -0.926725    1.071278
     13          6           0        2.068912    2.030757    0.103080
     14          1           0       -3.306042    1.274879    1.463584
     15          1           0       -1.880866    0.300908    1.845743
     16          1           0       -3.492038   -0.246824    2.355422
     17          1           0       -2.720273   -1.524978    0.359252
     18          1           0       -5.001762    0.409269   -0.327278
     19          1           0       -4.709145   -1.154803   -1.106720
     20          1           0       -5.172026   -1.087256    0.604060
     21          1           0       -2.480319   -0.371886   -1.843442
     22          1           0       -2.616504    1.193497   -1.038581
     23          1           0       -0.128162   -1.966442   -0.777198
     24          1           0        2.462053   -2.179133   -0.379363
     25          1           0        4.695055   -1.239693   -0.820738
     26          1           0        4.084820    0.458588   -0.597416
     27          1           0        3.334397   -0.115513    1.761166
     28          1           0        3.963376   -1.809839    1.546427
     29          1           0        2.616594    2.277469   -0.813893
     30          1           0        1.488605    2.900413    0.411701
     31          1           0        2.781432    1.776813    0.890354
 ---------------------------------------------------------------------

 SCF Done:  E(UB3LYP) =  -539.653647460     A.U. after   33 cycles
 SCF Done:  E(UB3LYP) =  -539.653647459     a.u. after    1 cycles

 The electronic state is 2-A.
 Alpha  occ. eigenvalues --  -14.28441 -14.22071 -10.11422 -10.11254 -10.09534
 Alpha  occ. eigenvalues --  -10.09097 -10.08315 -10.08006 -10.07945 -10.07502
 Alpha  occ. eigenvalues --  -10.06934 -10.06195 -10.05783  -0.94309  -0.77414
 Alpha  occ. eigenvalues --   -0.74797  -0.71052  -0.68528  -0.62710  -0.59264
 Alpha  occ. eigenvalues --   -0.57415  -0.53699  -0.50995  -0.49910  -0.46949
 Alpha  occ. eigenvalues --   -0.43987  -0.41471  -0.39432  -0.37905  -0.37474
 Alpha  occ. eigenvalues --   -0.35171  -0.34563  -0.34351  -0.33066  -0.31409
 Alpha  occ. eigenvalues --   -0.29719  -0.29501  -0.28868  -0.27543  -0.27364
 Alpha  occ. eigenvalues --   -0.27089  -0.24689  -0.24136  -0.23423  -0.22440
 Alpha  occ. eigenvalues --   -0.21028  -0.19061  -0.14297  -0.13146   0.04387
 Alpha virt. eigenvalues --    0.05796   0.06621   0.07642   0.08164   0.08346
 Alpha virt. eigenvalues --    0.08664   0.09706   0.09921   0.10580   0.10961
 Alpha virt. eigenvalues --    0.10974   0.11393   0.11875   0.12412   0.13234

  Beta  occ. eigenvalues --  -14.28437 -14.22065 -10.11423 -10.11218 -10.09521
  Beta  occ. eigenvalues --  -10.09096 -10.08309 -10.07976 -10.07913 -10.07497
  Beta  occ. eigenvalues --  -10.06912 -10.06183 -10.05775  -0.94301  -0.77389
  Beta  occ. eigenvalues --   -0.74781  -0.71033  -0.68515  -0.62680  -0.59229
  Beta  occ. eigenvalues --   -0.57378  -0.53660  -0.50900  -0.49885  -0.46911
  Beta  occ. eigenvalues --   -0.43954  -0.41436  -0.39362  -0.37884  -0.37440
  Beta  occ. eigenvalues --   -0.35142  -0.34540  -0.34323  -0.33032  -0.31380
  Beta  occ. eigenvalues --   -0.29697  -0.29481  -0.28844  -0.27524  -0.27326
  Beta  occ. eigenvalues --   -0.27064  -0.24671  -0.24113  -0.23401  -0.22416
  Beta  occ. eigenvalues --   -0.20989  -0.19040  -0.14286  -0.13133
  Beta virt. eigenvalues --    0.06202   0.07032   0.07630   0.08061   0.08671
  Beta virt. eigenvalues --    0.08779   0.08894   0.10054   0.10340   0.11024
  Beta virt. eigenvalues --    0.11093   0.11230   0.11863   0.12020   0.12489

 Mulliken charges and spin densities:
               1          2
     1  C   -0.115801  -0.628950
     2  C   -0.537182   1.094612
     3  C    0.207758  -0.841802
     4  C   -0.885592   0.352195
     5  C    0.767300  -0.540320
     6  N    0.125343  -0.207793
     7  N   -0.238878   0.362013
     8  C    2.331910  -1.940255
     9  C   -0.451735  -0.053468
    10  C   -2.834161   2.381068
    11  C    1.060100  -1.422892
    12  C    1.474363  -1.924515
    13  C    0.747474  -1.084584
    14  H    0.061506   0.067787
    15  H    0.187717  -0.025511
    16  H   -0.071363   0.199929
    17  H   -0.045934   0.188737
    18  H    0.052678   0.071075
    19  H   -0.151940   0.279882
    20  H   -0.219727   0.357354
    21  H    0.141963   0.001825
    22  H    0.088748   0.081602
    23  H   -0.147705   0.298854
    24  H   -0.638900   0.912594
    25  H   -0.635841   0.811362
    26  H   -0.245726   0.377193
    27  H   -0.243738   0.375620
    28  H   -0.382349   0.543954
    29  H   -0.354541   0.541469
    30  H    0.116256   0.049738
    31  H   -0.162001   0.321228
 Sum of Mulliken charges =  -1.00000   1.00000

 Dipole moment (field-independent basis, Debye):
    X=             -5.4847    Y=              2.6744    Z=             -0.2999  Tot=              6.1093
 Quadrupole moment (field-independent basis, Debye-Ang):
   XX=           -184.5690   YY=           -125.7954   ZZ=           -113.1823
   XY=              5.1091   XZ=              1.5799   YZ=              1.1255

 Summary of Natural Population Analysis:

                                       Natural Population
                Natural  -----------------------------------------------
    Atom  No    Charge         Core      Valence    Rydberg      Total
 -----------------------------------------------------------------------
      C    1   -0.28527      0.99965     2.28050    0.00513     3.28527
      C    2   -0.11162      0.99962     2.10160    0.01041     3.11162
      C    3   -0.28172      0.99965     2.27723    0.00484     3.28172
      C    4   -0.20076      0.99958     2.19255    0.00863     3.20076
      C    5    0.07658      0.99958     1.90880    0.01504     2.92342
      N    6   -0.16545      0.99970     2.65483    0.01092     3.66545
      N    7   -0.11275      0.99963     2.60129    0.01184     3.61275
      C    8    0.09251      0.99950     1.89477    0.01322     2.90749
      C    9   -0.15855      0.99945     2.15093    0.00816     3.15855
      C   10   -0.13080      0.99957     2.11955    0.01168     3.13080
      C   11   -0.19146      0.99962     2.18226    0.00957     3.19146
      C   12   -0.18897      0.99962     2.18009    0.00926     3.18897
      C   13   -0.17501      0.99963     2.16715    0.00822     3.17501
      H   14    0.09466      0.00000     0.40434    0.00100     0.40534
      H   15    0.10652      0.00000     0.39249    0.00098     0.39348
      H   16    0.09632      0.00000     0.40278    0.00090     0.40368
      H   17    0.09281      0.00000     0.40509    0.00211     0.40719
      H   18    0.09418      0.00000     0.40476    0.00106     0.40582
      H   19    0.09801      0.00000     0.40084    0.00114     0.40199
      H   20    0.09888      0.00000     0.40000    0.00111     0.40112
      H   21    0.10204      0.00000     0.39683    0.00114     0.39796
      H   22    0.10390      0.00000     0.39481    0.00129     0.39610
      H   23    0.10783      0.00000     0.39111    0.00106     0.39217
      H   24    0.11330      0.00000     0.38519    0.00150     0.38670
      H   25    0.10772      0.00000     0.38993    0.00235     0.39228
      H   26    0.10343      0.00000     0.39503    0.00154     0.39657
      H   27    0.10074      0.00000     0.39807    0.00119     0.39926
      H   28    0.10695      0.00000     0.39116    0.00188     0.39305
      H   29    0.09717      0.00000     0.40146    0.00137     0.40283
      H   30    0.10913      0.00000     0.38949    0.00138     0.39087
      H   31    0.09967      0.00000     0.39875    0.00158     0.40033
 =======================================================================
   * Total *    0.00000     12.99481    35.85368    0.15151    49.00000

 Normal termination of Gaussian 16 at Wed Dec  9 23:08:09 2020.
