 Gaussian 16, Revision A.03,

 ----------------------------------------------------------------------
 # opt=(cartesian,calcfc) freq B3LYP/6-31G(d) empiricaldispersion=gd3bj
  scf=xqc
 ----------------------------------------------------------------------

 ------------------------------
 CID_79850178_JID_5208_neutraal
 ------------------------------
 Symbolic Z-matrix:
 Charge =  0 Multiplicity = 1

 SCF Done:  E(RB3LYP) =  -1052.44184988     A.U. after   14 cycles
 SCF Done:  E(RB3LYP) =  -1052.44311000     A.U. after   11 cycles
 SCF Done:  E(RB3LYP) =  -1052.44380063     A.U. after   11 cycles
 SCF Done:  E(RB3LYP) =  -1052.44380871     A.U. after   11 cycles
 SCF Done:  E(RB3LYP) =  -1052.44381574     A.U. after   10 cycles
 SCF Done:  E(RB3LYP) =  -1052.44381705     A.U. after    9 cycles
 SCF Done:  E(RB3LYP) =  -1052.44381822     A.U. after    8 cycles
 SCF Done:  E(RB3LYP) =  -1052.44381213     A.U. after   11 cycles
 SCF Done:  E(RB3LYP) =  -1052.44381938     A.U. after    9 cycles
 SCF Done:  E(RB3LYP) =  -1052.44382068     A.U. after    9 cycles
 SCF Done:  E(RB3LYP) =  -1052.44426061     A.U. after    7 cycles
 SCF Done:  E(RB3LYP) =  -1052.44426059     A.U. after    7 cycles
 SCF Done:  E(RB3LYP) =  -1052.44426066     A.U. after    6 cycles
 SCF Done:  E(RB3LYP) =  -1052.44426044     A.U. after    8 cycles
 SCF Done:  E(RB3LYP) =  -1052.44426066     A.U. after    6 cycles
 SCF Done:  E(RB3LYP) =  -1052.44426067     A.U. after    6 cycles
 Optimization completed.
    -- Stationary point found.
 Normal termination of Gaussian 16 at Mon Jan  4 10:40:44 2021.

 --------------------------------------------------------------------
 #N Geom=AllCheck Guess=TCheck SCRF=Check GenChk RB3LYP/6-31G(d) Freq
 --------------------------------------------------------------------

 Structure from the checkpoint file:  "JID_5208.chk"
 ------------------------------
 CID_79850178_JID_5208_neutraal
 ------------------------------
 Charge =  0 Multiplicity = 1

 SCF Done:  E(RB3LYP) =  -1052.44426067     A.U. after    1 cycles

  Exact polarizability: 162.457   3.257 136.833   1.319   0.445 122.302
 Approx polarizability: 199.412  -2.864 198.575   5.307   0.169 193.612

                      1                      2                      3
                      A                      A                      A
 Frequencies --     24.4461                31.8655                37.0803
 Red. masses --      4.2682                 4.4783                 4.0726
 Frc consts  --      0.0015                 0.0027                 0.0033
 IR Inten    --      1.4011                 2.8719                 2.4047

                      4                      5                      6
                      A                      A                      A
 Frequencies --     75.5233                87.1772               109.9142
 Red. masses --      3.3500                 3.0877                 3.0645
 Frc consts  --      0.0113                 0.0138                 0.0218
 IR Inten    --      4.1017                 0.3881                 0.8772

                      7                      8                      9
                      A                      A                      A
 Frequencies --    159.9302               187.7752               205.0497
 Red. masses --      3.1978                 1.4543                 2.1141
 Frc consts  --      0.0482                 0.0302                 0.0524
 IR Inten    --      3.9069                 0.1057                 2.1547

                     10                     11                     12
                      A                      A                      A
 Frequencies --    208.0503               244.7698               246.7749
 Red. masses --      1.9013                 1.7801                 1.6939
 Frc consts  --      0.0485                 0.0628                 0.0608
 IR Inten    --      0.7049                 3.1103                 0.5129

                     13                     14                     15
                      A                      A                      A
 Frequencies --    279.9962               287.2917               307.6674
 Red. masses --      2.4423                 2.6677                 2.6253
 Frc consts  --      0.1128                 0.1297                 0.1464
 IR Inten    --      0.3521                 3.0624                 1.8313

                     16                     17                     18
                      A                      A                      A
 Frequencies --    333.1605               342.6443               367.1305
 Red. masses --      3.3061                 1.9060                 2.6927
 Frc consts  --      0.2162                 0.1318                 0.2138
 IR Inten    --      0.9577                 0.5208                 1.7502

                     19                     20                     21
                      A                      A                      A
 Frequencies --    425.2076               447.8333               456.9378
 Red. masses --      3.3572                 3.0924                 2.8286
 Frc consts  --      0.3576                 0.3654                 0.3480
 IR Inten    --     29.2865                 5.2745                 2.8633

                     22                     23                     24
                      A                      A                      A
 Frequencies --    480.2208               488.8209               505.2169
 Red. masses --      2.2891                 5.0189                 2.4529
 Frc consts  --      0.3110                 0.7066                 0.3689
 IR Inten    --      5.2278                19.5374                26.2603

                     25                     26                     27
                      A                      A                      A
 Frequencies --    509.5538               595.1283               668.1728
 Red. masses --      2.8471                 1.8674                 4.4493
 Frc consts  --      0.4355                 0.3897                 1.1704
 IR Inten    --      2.2236                 3.4721                10.0666

                     28                     29                     30
                      A                      A                      A
 Frequencies --    720.3842               783.4292               821.7572
 Red. masses --      2.5152                 2.0730                 1.8165
 Frc consts  --      0.7690                 0.7496                 0.7227
 IR Inten    --     37.9862                39.4559                17.2561

                     31                     32                     33
                      A                      A                      A
 Frequencies --    829.8383               853.6182               860.7857
 Red. masses --      2.7333                 1.5879                 2.5781
 Frc consts  --      1.1090                 0.6817                 1.1255
 IR Inten    --     16.9879                32.3386                 2.1700

                     34                     35                     36
                      A                      A                      A
 Frequencies --    904.4665               935.6339               951.6074
 Red. masses --      1.7809                 2.0537                 1.7935
 Frc consts  --      0.8584                 1.0592                 0.9569
 IR Inten    --     32.3910                19.7331                20.8324

                     37                     38                     39
                      A                      A                      A
 Frequencies --    970.4132               981.3031               983.0979
 Red. masses --      2.0610                 1.4023                 1.5298
 Frc consts  --      1.1435                 0.7956                 0.8711
 IR Inten    --      0.6513                 4.7774                26.7987

                     40                     41                     42
                      A                      A                      A
 Frequencies --    997.3888              1018.5953              1037.8180
 Red. masses --      1.5975                 1.8854                 2.6472
 Frc consts  --      0.9363                 1.1525                 1.6799
 IR Inten    --      2.6787                10.3767                 5.8442

                     43                     44                     45
                      A                      A                      A
 Frequencies --   1069.7636              1071.3636              1092.1065
 Red. masses --      2.4937                 1.6312                 1.7430
 Frc consts  --      1.6814                 1.1031                 1.2248
 IR Inten    --     27.2683                 2.3640                 3.1121

                     46                     47                     48
                      A                      A                      A
 Frequencies --   1110.6097              1119.4440              1133.2423
 Red. masses --      1.9624                 4.1191                 3.3845
 Frc consts  --      1.4262                 3.0413                 2.5609
 IR Inten    --     16.8563                99.8274                18.9253

                     49                     50                     51
                      A                      A                      A
 Frequencies --   1145.6085              1165.8556              1180.3711
 Red. masses --      1.9584                 1.5694                 1.4885
 Frc consts  --      1.5143                 1.2568                 1.2219
 IR Inten    --     20.0040                19.2193                 8.3340

                     52                     53                     54
                      A                      A                      A
 Frequencies --   1193.9007              1214.9585              1244.8732
 Red. masses --      1.3331                 1.9368                 1.6059
 Frc consts  --      1.1196                 1.6845                 1.4663
 IR Inten    --     46.1284                 2.2089                15.2838

                     55                     56                     57
                      A                      A                      A
 Frequencies --   1261.5656              1286.5776              1296.2120
 Red. masses --      1.5748                 2.2117                 1.2337
 Frc consts  --      1.4767                 2.1569                 1.2213
 IR Inten    --      9.7480                86.2809                 7.2968

                     58                     59                     60
                      A                      A                      A
 Frequencies --   1312.4095              1319.2323              1337.0386
 Red. masses --      1.5103                 2.5195                 1.4734
 Frc consts  --      1.5327                 2.5835                 1.5519
 IR Inten    --     23.2980                99.2691                10.1924

                     61                     62                     63
                      A                      A                      A
 Frequencies --   1349.0450              1353.9428              1373.4341
 Red. masses --      1.2971                 1.3072                 1.2163
 Frc consts  --      1.3908                 1.4119                 1.3518
 IR Inten    --      8.5108                21.4763                16.6201

                     64                     65                     66
                      A                      A                      A
 Frequencies --   1376.6125              1385.4111              1396.6340
 Red. masses --      1.3018                 1.4515                 1.3654
 Frc consts  --      1.4535                 1.6414                 1.5692
 IR Inten    --      1.1414                 0.9941                 0.1637

                     67                     68                     69
                      A                      A                      A
 Frequencies --   1405.0070              1411.0171              1429.8273
 Red. masses --      1.4826                 1.3467                 1.3293
 Frc consts  --      1.7244                 1.5797                 1.6012
 IR Inten    --      1.7723                12.0763                26.7379

                     70                     71                     72
                      A                      A                      A
 Frequencies --   1454.4205              1478.3874              1485.4657
 Red. masses --      1.3612                 1.0889                 1.0537
 Frc consts  --      1.6965                 1.4022                 1.3698
 IR Inten    --      3.4492                 3.0011                 5.3635

                     73                     74                     75
                      A                      A                      A
 Frequencies --   1487.1146              1488.9043              1502.7466
 Red. masses --      1.1036                 1.1161                 1.1135
 Frc consts  --      1.4379                 1.4578                 1.4816
 IR Inten    --      3.5573                15.7253                11.4328

                     76                     77                     78
                      A                      A                      A
 Frequencies --   1512.6058              1517.7183              1519.0855
 Red. masses --      1.0924                 1.0911                 1.0683
 Frc consts  --      1.4726                 1.4808                 1.4524
 IR Inten    --      1.3008                10.2686                 4.7473

                     79                     80                     81
                      A                      A                      A
 Frequencies --   1524.2775              1527.2371              1531.1446
 Red. masses --      1.1329                 1.0859                 1.1079
 Frc consts  --      1.5509                 1.4922                 1.5304
 IR Inten    --     12.8292                 3.0603                 1.3010

                     82                     83                     84
                      A                      A                      A
 Frequencies --   1536.3640              1544.0886              2945.4618
 Red. masses --      1.0582                 1.0962                 1.0656
 Frc consts  --      1.4716                 1.5398                 5.4470
 IR Inten    --      3.7742                 7.2471                43.5842

                     85                     86                     87
                      A                      A                      A
 Frequencies --   2953.1276              2980.6337              3002.2748
 Red. masses --      1.0687                 1.0721                 1.0733
 Frc consts  --      5.4910                 5.6120                 5.6997
 IR Inten    --     97.1972                57.7223                13.3635

                     88                     89                     90
                      A                      A                      A
 Frequencies --   3012.7313              3021.3719              3023.8069
 Red. masses --      1.0778                 1.0684                 1.0640
 Frc consts  --      5.7640                 5.7466                 5.7317
 IR Inten    --     26.5563                20.2026                30.9543

                     91                     92                     93
                      A                      A                      A
 Frequencies --   3029.3935              3069.4827              3075.1338
 Red. masses --      1.0642                 1.0954                 1.0994
 Frc consts  --      5.7542                 6.0806                 6.1251
 IR Inten    --     62.4148                78.2594                60.8152

                     94                     95                     96
                      A                      A                      A
 Frequencies --   3083.0361              3084.2892              3085.9387
 Red. masses --      1.0727                 1.0370                 1.1012
 Frc consts  --      6.0072                 5.8123                 6.1785
 IR Inten    --      5.0590                 4.3019                49.0806

                     97                     98                     99
                      A                      A                      A
 Frequencies --   3087.0276              3089.3891              3098.4728
 Red. masses --      1.0754                 1.0931                 1.0668
 Frc consts  --      6.0380                 6.1470                 6.0346
 IR Inten    --     32.7001                45.9246                16.0489

                    100                    101                    102
                      A                      A                      A
 Frequencies --   3108.7386              3135.5766              3151.9229
 Red. masses --      1.0900                 1.1008                 1.1047
 Frc consts  --      6.2062                 6.3764                 6.4663
 IR Inten    --      8.8853                29.5790                 2.0307

                    103                    104                    105
                      A                      A                      A
 Frequencies --   3186.0155              3188.3406              3450.2879
 Red. masses --      1.1059                 1.1080                 1.0731
 Frc consts  --      6.6141                 6.6364                 7.5265
 IR Inten    --      0.7175                 2.1554                 1.3952

 - Thermochemistry -
 -------------------
 Temperature   298.150 Kelvin.  Pressure   1.00000 Atm.
 Atom     1 has atomic number  6 and mass  12.00000

 Molecular mass:   234.14020 amu.
 Principal axes and moments of inertia in atomic units:
                           1         2         3
     Eigenvalues --  2164.488396673.920067606.61570
           X            0.99974   0.02271  -0.00373
           Y           -0.02272   0.99974  -0.00263
           Z            0.00367   0.00271   0.99999
 This molecule is an asymmetric top.
 Rotational symmetry number  1.
 Warning -- assumption of classical behavior for rotation
           may cause significant error
 Rotational temperatures (Kelvin)      0.04002     0.01298     0.01139
 Rotational constants (GHZ):           0.83380     0.27042     0.23726
 Zero-point vibrational energy     865926.2 (Joules/Mol)
                                  206.96133 (Kcal/Mol)
 Warning -- explicit consideration of  26 degrees of freedom as
           vibrations may cause significant error
 Vibrational temperatures:     35.17    45.85    53.35   108.66   125.43
          (Kelvin)            158.14   230.10   270.17   295.02   299.34
                              352.17   355.05   402.85   413.35   442.66
                              479.34   492.99   528.22   611.78   644.33
                              657.43   690.93   703.30   726.89   733.13
                              856.26   961.35  1036.47  1127.18  1182.33
                             1193.95  1228.17  1238.48  1301.33  1346.17
                             1369.15  1396.21  1411.88  1414.46  1435.02
                             1465.53  1493.19  1539.15  1541.45  1571.30
                             1597.92  1610.63  1630.48  1648.28  1677.41
                             1698.29  1717.76  1748.05  1791.09  1815.11
                             1851.10  1864.96  1888.26  1898.08  1923.70
                             1940.97  1948.02  1976.07  1980.64  1993.30
                             2009.44  2021.49  2030.14  2057.20  2092.59
                             2127.07  2137.25  2139.63  2142.20  2162.12
                             2176.30  2183.66  2185.63  2193.10  2197.35
                             2202.98  2210.49  2221.60  4237.86  4248.89
                             4288.47  4319.60  4334.65  4347.08  4350.58
                             4358.62  4416.30  4424.43  4435.80  4437.60
                             4439.98  4441.54  4444.94  4458.01  4472.78
                             4511.40  4534.91  4583.97  4587.31  4964.19

 Zero-point correction=                           0.329814 (Hartree/Particle)
 Thermal correction to Energy=                    0.346500
 Thermal correction to Enthalpy=                  0.347445
 Thermal correction to Gibbs Free Energy=         0.284116
 Sum of electronic and zero-point Energies=          -1052.114447
 Sum of electronic and thermal Energies=             -1052.097760
 Sum of electronic and thermal Enthalpies=           -1052.096816
 Sum of electronic and thermal Free Energies=        -1052.160145

                     E (Thermal)             CV                S
                      KCal/Mol        Cal/Mol-Kelvin    Cal/Mol-Kelvin
 Total                  217.432             62.967            133.287
 Electronic               0.000              0.000              0.000
 Translational            0.889              2.981             42.254
 Rotational               0.889              2.981             33.063
 Vibrational            215.655             57.005             57.970
 Vibration     1          0.593              1.985              6.236
 Vibration     2          0.594              1.983              5.710
 Vibration     3          0.594              1.982              5.409
 Vibration     4          0.599              1.965              4.004
 Vibration     5          0.601              1.958              3.722
 Vibration     6          0.606              1.941              3.270
 Vibration     7          0.622              1.891              2.551
 Vibration     8          0.632              1.857              2.250
 Vibration     9          0.640              1.833              2.087
 Vibration    10          0.641              1.828              2.061
 Vibration    11          0.660              1.771              1.768
 Vibration    12          0.661              1.768              1.754
 Vibration    13          0.680              1.711              1.534
 Vibration    14          0.684              1.697              1.490
 Vibration    15          0.698              1.659              1.375
 Vibration    16          0.715              1.609              1.245
 Vibration    17          0.722              1.590              1.200
 Vibration    18          0.740              1.540              1.092
 Vibration    19          0.787              1.415              0.874
 Vibration    20          0.807              1.366              0.802
 Vibration    21          0.815              1.346              0.775
 Vibration    22          0.837              1.294              0.709
 Vibration    23          0.845              1.275              0.687
 Vibration    24          0.860              1.238              0.645
 Vibration    25          0.865              1.229              0.635
 Vibration    26          0.953              1.042              0.458

 Normal termination of Gaussian 16 at Mon Jan  4 10:51:53 2021.

 ----------------------------------------------------------------------
 # B3LYP/6-311++G(d,p) empiricaldispersion=gd3bj scf=xqc pop=npa geom=c
 heck
 ----------------------------------------------------------------------

 --------------------------------------
 CID_79850178_JID_5208_Energie_neutraal
 --------------------------------------
 Structure from the checkpoint file:  "JID_5208.chk"
 Charge =  0 Multiplicity = 1

 SCF Done:  E(RB3LYP) =  -1052.66188508     A.U. after   14 cycles
 Normal termination of Gaussian 16 at Mon Jan  4 10:57:02 2021.

 ----------------------------------------------------------------------
 # B3LYP/6-311++G(d,p) empiricaldispersion=gd3bj scf=xqc pop=npa geom=c
 heck
 ----------------------------------------------------------------------

 ------------------------------------
 CID_79850178_JID_5208_Energie_kation
 ------------------------------------
 Structure from the checkpoint file:  "JID_5208.chk"
 Charge =  1 Multiplicity = 2

 SCF Done:  E(UB3LYP) =  -1052.37269048     A.U. after   23 cycles
 Normal termination of Gaussian 16 at Mon Jan  4 11:08:16 2021.
 Gaussian 16:  ES64L-G16RevA.03 25-Dec-2016

 ----------------------------------------------------------------------
 # B3LYP/6-311++G(d,p) empiricaldispersion=gd3bj scf=xqc pop=npa geom=c
 heck
 ----------------------------------------------------------------------

 -----------------------------------
 CID_79850178_JID_5208_Energie_anion
 -----------------------------------
 Structure from the checkpoint file:  "JID_5208.chk"
 Charge = -1 Multiplicity = 2

                         Standard orientation:
 ---------------------------------------------------------------------
 Center     Atomic      Atomic             Coordinates (Angstroms)
 Number     Number       Type             X           Y           Z
 ---------------------------------------------------------------------
      1          6           0       -0.346151    3.175455    0.106660
      2          7           0        0.046245    1.784268    0.287404
      3          6           0        1.496895    1.633864    0.284617
      4          6           0        1.925935    0.333404    0.991104
      5         16           0        2.757543   -0.899750   -0.048720
      6          8           0        3.033145   -2.067634    0.802350
      7          8           0        2.004080   -1.053317   -1.305937
      8          6           0        4.337299   -0.123576   -0.460008
      9          6           0       -0.614618    0.904240   -0.684408
     10          6           0       -2.028610    0.503488   -0.256501
     11          6           0       -2.032159   -0.281328    1.065902
     12          6           0       -3.448436   -0.750798    1.422936
     13          6           0       -4.073323   -1.527545    0.256326
     14          6           0       -3.999000   -0.701945   -1.037555
     15          7           0       -2.651523   -0.227598   -1.367703
     16          1           0        0.075546    3.789689    0.909690
     17          1           0       -1.435023    3.259235    0.156776
     18          1           0       -0.020303    3.595953   -0.864048
     19          1           0        1.916576    1.682936   -0.737668
     20          1           0        1.920936    2.479672    0.834768
     21          1           0        2.602106    0.511080    1.832080
     22          1           0        1.051832   -0.195575    1.380404
     23          1           0        4.157478    0.810375   -0.995893
     24          1           0        4.905473    0.046239    0.456524
     25          1           0        4.863537   -0.830507   -1.105181
     26          1           0       -0.657516    1.368937   -1.684768
     27          1           0       -0.017377   -0.005854   -0.796941
     28          1           0       -2.635629    1.410513   -0.113003
     29          1           0       -1.606698    0.338411    1.863075
     30          1           0       -1.374191   -1.157643    0.951787
     31          1           0       -3.433277   -1.363316    2.332582
     32          1           0       -4.072816    0.127126    1.646133
     33          1           0       -3.526963   -2.471124    0.111346
     34          1           0       -5.115250   -1.793442    0.477941
     35          1           0       -4.378237   -1.276743   -1.890300
     36          1           0       -4.643239    0.183662   -0.939491
     37          1           0       -2.065514   -1.034278   -1.589944
 ---------------------------------------------------------------------

 SCF Done:  E(UB3LYP) =  -1052.65364902     A.U. after   28 cycles

 The electronic state is 2-A.
 Alpha  occ. eigenvalues --  -88.94861 -19.01775 -19.01645 -14.21705 -14.21135
 Alpha  occ. eigenvalues --  -10.11330 -10.11304 -10.10998 -10.10847 -10.10591
 Alpha  occ. eigenvalues --  -10.09526 -10.09393 -10.08508 -10.08383 -10.07378
 Alpha  occ. eigenvalues --   -8.01363  -5.97624  -5.97516  -5.97463  -1.01004
 Alpha  occ. eigenvalues --   -0.90683  -0.84267  -0.82485  -0.70993  -0.70148
 Alpha  occ. eigenvalues --   -0.68177  -0.66221  -0.61034  -0.59269  -0.54908
 Alpha  occ. eigenvalues --   -0.53660  -0.50143  -0.49068  -0.48307  -0.41638
 Alpha  occ. eigenvalues --   -0.40920  -0.39829  -0.39542  -0.38366  -0.37290
 Alpha  occ. eigenvalues --   -0.37009  -0.36332  -0.35680  -0.34328  -0.33690
 Alpha  occ. eigenvalues --   -0.33449  -0.32922  -0.31149  -0.30024  -0.29625
 Alpha  occ. eigenvalues --   -0.29285  -0.28896  -0.27594  -0.27034  -0.26216
 Alpha  occ. eigenvalues --   -0.24857  -0.24270  -0.23769  -0.23134  -0.22113
 Alpha  occ. eigenvalues --   -0.20716  -0.19461  -0.14050  -0.13191   0.03983
 Alpha virt. eigenvalues --    0.05380   0.06525   0.07307   0.07562   0.08093
 Alpha virt. eigenvalues --    0.08557   0.09620   0.09845   0.10358   0.10747
 Alpha virt. eigenvalues --    0.10791   0.11212   0.11870   0.12178   0.12547

  Beta  occ. eigenvalues --  -88.94858 -19.01761 -19.01637 -14.21694 -14.21133
  Beta  occ. eigenvalues --  -10.11298 -10.11275 -10.10992 -10.10776 -10.10585
  Beta  occ. eigenvalues --  -10.09501 -10.09389 -10.08502 -10.08374 -10.07375
  Beta  occ. eigenvalues --   -8.01359  -5.97621  -5.97512  -5.97459  -1.00977
  Beta  occ. eigenvalues --   -0.90654  -0.84247  -0.82472  -0.70944  -0.70135
  Beta  occ. eigenvalues --   -0.68157  -0.66148  -0.61007  -0.59208  -0.54890
  Beta  occ. eigenvalues --   -0.53618  -0.50094  -0.49041  -0.48252  -0.41597
  Beta  occ. eigenvalues --   -0.40887  -0.39798  -0.39507  -0.38336  -0.37266
  Beta  occ. eigenvalues --   -0.36978  -0.36309  -0.35656  -0.34294  -0.33641
  Beta  occ. eigenvalues --   -0.33403  -0.32888  -0.31119  -0.29998  -0.29604
  Beta  occ. eigenvalues --   -0.29246  -0.28859  -0.27577  -0.26999  -0.26198
  Beta  occ. eigenvalues --   -0.24841  -0.24252  -0.23744  -0.23116  -0.22092
  Beta  occ. eigenvalues --   -0.20701  -0.19427  -0.14041  -0.13132
  Beta virt. eigenvalues --    0.05568   0.06707   0.07057   0.07402   0.08005
  Beta virt. eigenvalues --    0.08786   0.09010   0.09884   0.10201   0.10594
  Beta virt. eigenvalues --    0.10980   0.11170   0.11593   0.11960   0.12326

 Mulliken charges and spin densities:
               1          2
     1  C    0.513551  -0.799731
     2  N    0.212578   0.183588
     3  C    0.939304  -1.428152
     4  C   -1.198906   0.818108
     5  S    0.552400  -0.490851
     6  O   -0.156743   0.012110
     7  O   -0.154346   0.022777
     8  C    0.768651  -1.286989
     9  C   -0.517551  -0.539216
    10  C   -0.540883   0.291992
    11  C   -0.038785  -0.036096
    12  C   -0.097896  -0.363755
    13  C   -0.150869  -0.115510
    14  C   -0.158481  -0.206307
    15  N    0.070132   0.009423
    16  H   -0.280013   0.442163
    17  H   -0.130749   0.234319
    18  H   -0.077997   0.205723
    19  H    0.450959  -0.294173
    20  H   -0.717157   0.892069
    21  H   -0.305150   0.591776
    22  H   -0.053067   0.279374
    23  H   -0.556653   0.752212
    24  H   -0.488315   0.708952
    25  H   -0.079127   0.285704
    26  H    0.105608   0.049229
    27  H    0.154387   0.104717
    28  H    0.238442  -0.050114
    29  H    0.082471   0.098910
    30  H    0.237107  -0.079565
    31  H    0.038077   0.127724
    32  H   -0.041303   0.172305
    33  H    0.091864   0.023703
    34  H   -0.028036   0.175894
    35  H    0.073164   0.095585
    36  H    0.010239   0.121925
    37  H    0.233093  -0.009820
 Sum of Mulliken charges =  -1.00000   1.00000

 Dipole moment (field-independent basis, Debye):
    X=             -7.7309    Y=             -3.4274    Z=             -1.8984  Tot=              8.6670
 Quadrupole moment (field-independent basis, Debye-Ang):
   XX=           -190.5494   YY=           -153.7850   ZZ=           -140.7702
   XY=             -6.0334   XZ=             -7.3219   YZ=             -4.5040

 Summary of Natural Population Analysis:

                                       Natural Population
                Natural  -----------------------------------------------
    Atom  No    Charge         Core      Valence    Rydberg      Total
 -----------------------------------------------------------------------
      C    1   -0.17425      0.99964     2.16613    0.00849     3.17425
      N    2   -0.28209      0.99972     2.76856    0.01382     3.78209
      C    3   -0.09289      0.99959     2.07892    0.01438     3.09289
      C    4   -0.29986      0.99957     2.28674    0.01354     3.29986
      S    5    1.01993      4.99928     1.88683    0.09396     6.98007
      O    6   -0.47141      0.99991     3.46567    0.00583     4.47141
      O    7   -0.47380      0.99991     3.46805    0.00584     4.47380
      C    8   -0.39180      0.99961     2.38458    0.00761     3.39180
      C    9   -0.09380      0.99958     2.08158    0.01264     3.09380
      C   10   -0.01366      0.99958     2.00109    0.01298     3.01366
      C   11   -0.20188      0.99961     2.19237    0.00990     3.20188
      C   12   -0.19185      0.99963     2.18320    0.00902     3.19185
      C   13   -0.19884      0.99963     2.19230    0.00691     3.19884
      C   14   -0.08650      0.99963     2.07661    0.01025     3.08650
      N   15   -0.33856      0.99975     2.82703    0.01177     3.83856
      H   16    0.09916      0.00000     0.39950    0.00134     0.40084
      H   17    0.09419      0.00000     0.40470    0.00112     0.40581
      H   18    0.08119      0.00000     0.41759    0.00122     0.41881
      H   19    0.08888      0.00000     0.40908    0.00204     0.41112
      H   20    0.10806      0.00000     0.38801    0.00392     0.39194
      H   21    0.12224      0.00000     0.37574    0.00202     0.37776
      H   22    0.12385      0.00000     0.37469    0.00147     0.37615
      H   23    0.11759      0.00000     0.38024    0.00216     0.38241
      H   24    0.11991      0.00000     0.37686    0.00323     0.38009
      H   25    0.11815      0.00000     0.38080    0.00105     0.38185
      H   26    0.09141      0.00000     0.40714    0.00145     0.40859
      H   27    0.10749      0.00000     0.39051    0.00200     0.39251
      H   28    0.08797      0.00000     0.40993    0.00210     0.41203
      H   29    0.10891      0.00000     0.38968    0.00141     0.39109
      H   30    0.09224      0.00000     0.40635    0.00141     0.40776
      H   31    0.09828      0.00000     0.40085    0.00087     0.40172
      H   32    0.09334      0.00000     0.40542    0.00124     0.40666
      H   33    0.09161      0.00000     0.40710    0.00130     0.40839
      H   34    0.09707      0.00000     0.40166    0.00127     0.40293
      H   35    0.09267      0.00000     0.40643    0.00090     0.40733
      H   36    0.08830      0.00000     0.41040    0.00131     0.41170
      H   37    0.16874      0.00000     0.32886    0.00240     0.33126
 =======================================================================
   * Total *   -0.00000     18.99465    44.73121    0.27414    64.00000

 Normal termination of Gaussian 16 at Mon Jan  4 11:21:47 2021.
