 Gaussian 16, Revision A.03,

 -----------------------------------------------------------
 # opt freq B3LYP/6-31G(d) empiricaldispersion=gd3bj scf=xqc
 -----------------------------------------------------------

 ------------------------------
 CID_43538931_JID_5448_neutraal
 ------------------------------
 Symbolic Z-matrix:
 Charge =  0 Multiplicity = 1

 SCF Done:  E(RB3LYP) =  -995.728424515     A.U. after   14 cycles
 SCF Done:  E(RB3LYP) =  -995.731037567     A.U. after   11 cycles
 SCF Done:  E(RB3LYP) =  -995.731246989     A.U. after   11 cycles
 SCF Done:  E(RB3LYP) =  -995.731270444     A.U. after   10 cycles
 SCF Done:  E(RB3LYP) =  -995.731274781     A.U. after    8 cycles
 SCF Done:  E(RB3LYP) =  -995.731276118     A.U. after    8 cycles
 SCF Done:  E(RB3LYP) =  -995.731276553     A.U. after    8 cycles
 SCF Done:  E(RB3LYP) =  -995.731276803     A.U. after    8 cycles
 SCF Done:  E(RB3LYP) =  -995.731276846     A.U. after    7 cycles
 Optimization completed.
    -- Stationary point found.
 Normal termination of Gaussian 16 at Thu Dec 10 16:02:58 2020.

 --------------------------------------------------------------------
 #N Geom=AllCheck Guess=TCheck SCRF=Check GenChk RB3LYP/6-31G(d) Freq
 --------------------------------------------------------------------

 Structure from the checkpoint file:  "JID_5448.chk"
 ------------------------------
 CID_43538931_JID_5448_neutraal
 ------------------------------
 Charge =  0 Multiplicity = 1

 SCF Done:  E(RB3LYP) =  -995.731276846     A.U. after    1 cycles

  Exact polarizability: 201.182 -11.924 159.902  -9.604 -12.472 100.291
 Approx polarizability: 275.188 -22.096 249.673 -17.693 -32.238 158.955

                      1                      2                      3
                      A                      A                      A
 Frequencies --     32.4945                58.5976                68.6247
 Red. masses --      4.1800                 2.0820                 2.4665
 Frc consts  --      0.0026                 0.0042                 0.0068
 IR Inten    --      0.4981                 1.1096                 1.8480

                      4                      5                      6
                      A                      A                      A
 Frequencies --     80.2033               103.4232               122.1820
 Red. masses --      3.3479                 3.2957                 4.6334
 Frc consts  --      0.0127                 0.0208                 0.0408
 IR Inten    --      0.2076                 0.5284                 2.3841

                      7                      8                      9
                      A                      A                      A
 Frequencies --    191.4553               221.5787               242.5514
 Red. masses --      3.8971                 3.5469                 1.6806
 Frc consts  --      0.0842                 0.1026                 0.0583
 IR Inten    --      1.7772                 0.4691                 2.7220

                     10                     11                     12
                      A                      A                      A
 Frequencies --    251.0088               273.1799               288.2163
 Red. masses --      1.2007                 1.7777                 2.9553
 Frc consts  --      0.0446                 0.0782                 0.1446
 IR Inten    --      0.2923                 1.6226                 3.2540

                     13                     14                     15
                      A                      A                      A
 Frequencies --    304.2340               344.6178               355.9642
 Red. masses --      3.0634                 4.1661                 5.5888
 Frc consts  --      0.1671                 0.2915                 0.4172
 IR Inten    --      0.0783                 0.8777                 1.0446

                     16                     17                     18
                      A                      A                      A
 Frequencies --    376.3905               408.0209               429.9935
 Red. masses --      3.5698                 3.5019                 3.5620
 Frc consts  --      0.2980                 0.3435                 0.3880
 IR Inten    --      0.8538                 0.3705                 1.4604

                     19                     20                     21
                      A                      A                      A
 Frequencies --    484.2276               534.5236               580.5980
 Red. masses --      3.0791                 3.7983                 3.4707
 Frc consts  --      0.4254                 0.6394                 0.6893
 IR Inten    --      3.0695                 1.4016                 5.1729

                     22                     23                     24
                      A                      A                      A
 Frequencies --    619.4715               634.9335               681.8528
 Red. masses --      3.9977                 5.5608                 3.0875
 Frc consts  --      0.9039                 1.3208                 0.8457
 IR Inten    --      9.7302                15.0610                 5.0799

                     25                     26                     27
                      A                      A                      A
 Frequencies --    690.9807               724.0322               765.1752
 Red. masses --      5.3936                 4.3043                 3.5115
 Frc consts  --      1.5172                 1.3294                 1.2113
 IR Inten    --      1.6431                 0.6767                14.2211

                     28                     29                     30
                      A                      A                      A
 Frequencies --    778.9247               817.4100               832.9827
 Red. masses --      1.3952                 1.4198                 1.1779
 Frc consts  --      0.4987                 0.5589                 0.4815
 IR Inten    --     41.8417                29.2743                 6.8337

                     31                     32                     33
                      A                      A                      A
 Frequencies --    881.3413               890.3456               921.6686
 Red. masses --      2.6680                 1.5910                 2.7460
 Frc consts  --      1.2210                 0.7431                 1.3744
 IR Inten    --      3.0041                 6.8774                 6.7221

                     34                     35                     36
                      A                      A                      A
 Frequencies --    935.3254               938.0591               972.5264
 Red. masses --      1.3413                 1.6288                 2.0190
 Frc consts  --      0.6914                 0.8445                 1.1251
 IR Inten    --      0.7303                 4.2065                 4.9838

                     37                     38                     39
                      A                      A                      A
 Frequencies --    985.1986              1061.8456              1071.5952
 Red. masses --      2.3386                 2.5137                 3.5072
 Frc consts  --      1.3374                 1.6699                 2.3729
 IR Inten    --      8.9667                 4.0754                29.1482

                     40                     41                     42
                      A                      A                      A
 Frequencies --   1077.9127              1111.0102              1134.2084
 Red. masses --      2.5335                 3.3895                 2.5117
 Frc consts  --      1.7344                 2.4650                 1.9037
 IR Inten    --     22.5564                21.6930                39.4559

                     43                     44                     45
                      A                      A                      A
 Frequencies --   1162.2513              1173.9790              1186.2462
 Red. masses --      1.9865                 1.8133                 1.4242
 Frc consts  --      1.5810                 1.4724                 1.1808
 IR Inten    --     21.8781                57.1218                 8.7125

                     46                     47                     48
                      A                      A                      A
 Frequencies --   1187.1818              1194.7619              1217.2603
 Red. masses --      1.2755                 1.4720                 1.3370
 Frc consts  --      1.0592                 1.2380                 1.1672
 IR Inten    --      1.1748                18.9462                 6.7097

                     49                     50                     51
                      A                      A                      A
 Frequencies --   1219.5692              1230.2206              1283.8608
 Red. masses --      1.3926                 1.5248                 1.7126
 Frc consts  --      1.2204                 1.3597                 1.6632
 IR Inten    --      3.7169                 4.4124                46.2678

                     52                     53                     54
                      A                      A                      A
 Frequencies --   1307.7955              1320.9256              1337.3057
 Red. masses --      1.1998                 2.5820                 1.4475
 Frc consts  --      1.2090                 2.6544                 1.5252
 IR Inten    --     37.6794               221.6884                21.3300

                     55                     56                     57
                      A                      A                      A
 Frequencies --   1353.5971              1363.4234              1369.4744
 Red. masses --      3.1210                 1.3973                 1.5232
 Frc consts  --      3.3692                 1.5304                 1.6831
 IR Inten    --     19.4694                20.5849                11.3214

                     58                     59                     60
                      A                      A                      A
 Frequencies --   1406.6184              1411.7749              1442.4571
 Red. masses --      1.4813                 1.3177                 1.3227
 Frc consts  --      1.7268                 1.5474                 1.6215
 IR Inten    --      2.4229                 1.6641                 5.4377

                     61                     62                     63
                      A                      A                      A
 Frequencies --   1469.1146              1495.3619              1499.2125
 Red. masses --      3.0115                 1.0946                 1.2475
 Frc consts  --      3.8296                 1.4421                 1.6521
 IR Inten    --     43.0604                10.0072                26.6790

                     64                     65                     66
                      A                      A                      A
 Frequencies --   1508.9346              1512.2990              1520.6760
 Red. masses --      1.2020                 1.0957                 1.0478
 Frc consts  --      1.6125                 1.4765                 1.4276
 IR Inten    --     22.0889                 5.6447                 5.2944

                     67                     68                     69
                      A                      A                      A
 Frequencies --   1527.4136              1530.5649              1534.4832
 Red. masses --      1.1179                 1.1074                 1.4270
 Frc consts  --      1.5366                 1.5284                 1.9796
 IR Inten    --     12.7883                 2.4897               153.7625

                     70                     71                     72
                      A                      A                      A
 Frequencies --   1539.8605              1555.3060              1622.8385
 Red. masses --      1.3727                 1.0899                 6.7210
 Frc consts  --      1.9177                 1.5533                10.4287
 IR Inten    --     19.4318                 5.5725                24.1580

                     73                     74                     75
                      A                      A                      A
 Frequencies --   1669.9800              2930.6394              2941.8627
 Red. masses --      5.9185                 1.0752                 1.0818
 Frc consts  --      9.7248                 5.4408                 5.5160
 IR Inten    --     35.9264                61.5301                77.4530

                     76                     77                     78
                      A                      A                      A
 Frequencies --   3022.6647              3047.7545              3054.5801
 Red. masses --      1.0350                 1.0400                 1.0657
 Frc consts  --      5.5714                 5.6916                 5.8586
 IR Inten    --     66.5129                21.6103                16.0470

                     79                     80                     81
                      A                      A                      A
 Frequencies --   3066.8548              3079.9359              3088.6069
 Red. masses --      1.0784                 1.1065                 1.0639
 Frc consts  --      5.9759                 6.1843                 5.9797
 IR Inten    --     41.7364                45.2214                12.5035

                     82                     83                     84
                      A                      A                      A
 Frequencies --   3099.7679              3113.6554              3133.2968
 Red. masses --      1.0968                 1.0994                 1.1032
 Frc consts  --      6.2090                 6.2797                 6.3813
 IR Inten    --     31.4840                48.2871                28.6409

                     85                     86                     87
                      A                      A                      A
 Frequencies --   3145.7252              3157.4881              3187.8426
 Red. masses --      1.1078                 1.0994                 1.0891
 Frc consts  --      6.4587                 6.4579                 6.5210
 IR Inten    --      6.7751                29.0408                12.3989

                     88                     89                     90
                      A                      A                      A
 Frequencies --   3190.5828              3229.1985              3497.2918
 Red. masses --      1.0901                 1.0914                 1.0744
 Frc consts  --      6.5380                 6.7055                 7.7422
 IR Inten    --      2.2347                13.8685                 0.0431

 - Thermochemistry -
 -------------------
 Temperature   298.150 Kelvin.  Pressure   1.00000 Atm.
 Atom     1 has atomic number  6 and mass  12.00000

 Molecular mass:   223.10309 amu.
 Principal axes and moments of inertia in atomic units:
                           1         2         3
     Eigenvalues --  2569.016204975.271686966.46880
           X            0.99954   0.03021  -0.00325
           Y           -0.03017   0.99947   0.01218
           Z            0.00362  -0.01207   0.99992
 This molecule is an asymmetric top.
 Rotational symmetry number  1.
 Warning -- assumption of classical behavior for rotation
           may cause significant error
 Rotational temperatures (Kelvin)      0.03371     0.01741     0.01243
 Rotational constants (GHZ):           0.70250     0.36274     0.25906
 Zero-point vibrational energy     720279.8 (Joules/Mol)
                                  172.15101 (Kcal/Mol)
 Warning -- explicit consideration of  22 degrees of freedom as
           vibrations may cause significant error
 Vibrational temperatures:     46.75    84.31    98.74   115.39   148.80
          (Kelvin)            175.79   275.46   318.80   348.98   361.15
                              393.04   414.68   437.72   495.83   512.15
                              541.54   587.05   618.66   696.70   769.06
                              835.35   891.28   913.53   981.03   994.17
                             1041.72  1100.92  1120.70  1176.07  1198.48
                             1268.05  1281.01  1326.08  1345.72  1349.66
                             1399.25  1417.48  1527.76  1541.79  1550.88
                             1598.50  1631.87  1672.22  1689.09  1706.74
                             1708.09  1719.00  1751.37  1754.69  1770.01
                             1847.19  1881.63  1900.52  1924.08  1947.52
                             1961.66  1970.37  2023.81  2031.23  2075.37
                             2113.73  2151.49  2157.03  2171.02  2175.86
                             2187.91  2197.61  2202.14  2207.78  2215.52
                             2237.74  2334.90  2402.73  4216.54  4232.68
                             4348.94  4385.04  4394.86  4412.52  4431.34
                             4443.82  4459.87  4479.86  4508.12  4526.00
                             4542.92  4586.59  4590.54  4646.10  5031.82

 Zero-point correction=                           0.274340 (Hartree/Particle)
 Thermal correction to Energy=                    0.289183
 Thermal correction to Enthalpy=                  0.290127
 Thermal correction to Gibbs Free Energy=         0.231599
 Sum of electronic and zero-point Energies=           -995.456937
 Sum of electronic and thermal Energies=              -995.442094
 Sum of electronic and thermal Enthalpies=            -995.441150
 Sum of electronic and thermal Free Energies=         -995.499678

                     E (Thermal)             CV                S
                      KCal/Mol        Cal/Mol-Kelvin    Cal/Mol-Kelvin
 Total                  181.465             56.542            123.183
 Electronic               0.000              0.000              0.000
 Translational            0.889              2.981             42.110
 Rotational               0.889              2.981             32.854
 Vibrational            179.688             50.581             48.219
 Vibration     1          0.594              1.983              5.671
 Vibration     2          0.596              1.974              4.504
 Vibration     3          0.598              1.969              4.192
 Vibration     4          0.600              1.963              3.886
 Vibration     5          0.605              1.946              3.389
 Vibration     6          0.610              1.931              3.066
 Vibration     7          0.634              1.852              2.214
 Vibration     8          0.648              1.808              1.946
 Vibration     9          0.659              1.775              1.784
 Vibration    10          0.663              1.761              1.723
 Vibration    11          0.676              1.723              1.576
 Vibration    12          0.685              1.696              1.484
 Vibration    13          0.695              1.666              1.394
 Vibration    14          0.723              1.586              1.191
 Vibration    15          0.731              1.563              1.140
 Vibration    16          0.747              1.520              1.054
 Vibration    17          0.773              1.453              0.934
 Vibration    18          0.791              1.405              0.859
 Vibration    19          0.840              1.285              0.699
 Vibration    20          0.890              1.174              0.577
 Vibration    21          0.937              1.073              0.484
 Vibration    22          0.979              0.991              0.417

 Optimization completed.
    -- Stationary point found.
 Normal termination of Gaussian 16 at Thu Dec 10 16:12:37 2020.

 ----------------------------------------------------------------------
 # B3LYP/6-311++G(d,p) empiricaldispersion=gd3bj scf=xqc pop=npa geom=c
 heck
 ----------------------------------------------------------------------

 --------------------------------------
 CID_43538931_JID_5448_Energie_neutraal
 --------------------------------------
 Structure from the checkpoint file:  "JID_5448.chk"
 Charge =  0 Multiplicity = 1

 SCF Done:  E(RB3LYP) =  -995.920832966     A.U. after   15 cycles
 Normal termination of Gaussian 16 at Thu Dec 10 16:18:01 2020.

 ----------------------------------------------------------------------
 # B3LYP/6-311++G(d,p) empiricaldispersion=gd3bj scf=xqc pop=npa geom=c
 heck
 ----------------------------------------------------------------------

 ------------------------------------
 CID_43538931_JID_5448_Energie_kation
 ------------------------------------
 Structure from the checkpoint file:  "JID_5448.chk"
 Charge =  1 Multiplicity = 2

 SCF Done:  E(UB3LYP) =  -995.660905832     A.U. after   21 cycles
 Normal termination of Gaussian 16 at Thu Dec 10 16:27:50 2020.
 Gaussian 16:  ES64L-G16RevA.03 25-Dec-2016

 ----------------------------------------------------------------------
 # B3LYP/6-311++G(d,p) empiricaldispersion=gd3bj scf=xqc pop=npa geom=c
 heck
 ----------------------------------------------------------------------

 -----------------------------------
 CID_43538931_JID_5448_Energie_anion
 -----------------------------------
 Structure from the checkpoint file:  "JID_5448.chk"
 Charge = -1 Multiplicity = 2

                         Standard orientation:
 ---------------------------------------------------------------------
 Center     Atomic      Atomic             Coordinates (Angstroms)
 Number     Number       Type             X           Y           Z
 ---------------------------------------------------------------------
      1          6           0       -3.454366   -2.833409   -1.068214
      2          6           0       -2.930560   -2.044931    0.127772
      3          7           0       -1.899104   -1.099662   -0.292947
      4          6           0       -1.274488   -0.349876    0.811046
      5          6           0       -2.165250    0.835325    1.209316
      6          6           0       -2.341174    1.806339    0.049124
      7         16           0       -0.773020    2.654561   -0.370342
      8          6           0        0.410237    1.336262   -0.173691
      9          6           0        0.119546    0.078599    0.387996
     10          6           0        1.149770   -0.853539    0.524387
     11          6           0        2.457457   -0.574319    0.121862
     12          6           0        2.744922    0.677161   -0.432771
     13          6           0        1.723062    1.612990   -0.572864
     14          8           0        3.370456   -1.574295    0.312114
     15          6           0        4.710003   -1.322958   -0.074448
     16          1           0       -3.850628   -2.154591   -1.830011
     17          1           0       -4.248487   -3.523668   -0.764493
     18          1           0       -2.654157   -3.426974   -1.528017
     19          1           0       -3.755347   -1.480386    0.579215
     20          1           0       -2.567402   -2.740654    0.909513
     21          1           0       -1.170667   -1.603457   -0.794932
     22          1           0       -1.158455   -0.996565    1.700112
     23          1           0       -1.731387    1.344952    2.077195
     24          1           0       -3.150179    0.459986    1.511721
     25          1           0       -2.705922    1.265075   -0.826826
     26          1           0       -3.041973    2.608482    0.295952
     27          1           0        0.944559   -1.826620    0.963064
     28          1           0        3.746544    0.934073   -0.756348
     29          1           0        1.952456    2.582440   -1.006888
     30          1           0        4.788209   -1.118405   -1.150722
     31          1           0        5.139243   -0.479133    0.482280
     32          1           0        5.267027   -2.231395    0.161283
 ---------------------------------------------------------------------

 SCF Done:  E(UB3LYP) =  -995.907241311     A.U. after   33 cycles
 SCF Done:  E(UB3LYP) =  -995.907241311     a.u. after    1 cycles

 The electronic state is 2-A.
 Alpha  occ. eigenvalues --  -88.75696 -19.06205 -14.20916 -10.14338 -10.12692
 Alpha  occ. eigenvalues --  -10.11864 -10.11453 -10.10866 -10.10208 -10.09828
 Alpha  occ. eigenvalues --  -10.09077 -10.08633 -10.08566 -10.08356 -10.07181
 Alpha  occ. eigenvalues --   -7.84334  -5.80721  -5.80345  -5.79726  -0.97781
 Alpha  occ. eigenvalues --   -0.82810  -0.77695  -0.72752  -0.69086  -0.66768
 Alpha  occ. eigenvalues --   -0.65337  -0.63083  -0.59916  -0.55421  -0.53220
 Alpha  occ. eigenvalues --   -0.51975  -0.50911  -0.46253  -0.44064  -0.41500
 Alpha  occ. eigenvalues --   -0.40242  -0.38326  -0.37718  -0.37071  -0.36958
 Alpha  occ. eigenvalues --   -0.35238  -0.34408  -0.34073  -0.32661  -0.31135
 Alpha  occ. eigenvalues --   -0.30190  -0.29711  -0.29476  -0.28102  -0.27582
 Alpha  occ. eigenvalues --   -0.26104  -0.25814  -0.24948  -0.24175  -0.23706
 Alpha  occ. eigenvalues --   -0.22069  -0.17482  -0.17062  -0.14283  -0.10919
 Alpha  occ. eigenvalues --    0.04050
 Alpha virt. eigenvalues --    0.05284   0.06505   0.06621   0.07475   0.07668
 Alpha virt. eigenvalues --    0.08106   0.08572   0.09315   0.09422   0.09590
 Alpha virt. eigenvalues --    0.09793   0.10462   0.11255   0.11520   0.12067

  Beta  occ. eigenvalues --  -88.75695 -19.06194 -14.20906 -10.14339 -10.12637
  Beta  occ. eigenvalues --  -10.11859 -10.11451 -10.10856 -10.10181 -10.09827
  Beta  occ. eigenvalues --  -10.09075 -10.08617 -10.08552 -10.08351 -10.07154
  Beta  occ. eigenvalues --   -7.84333  -5.80721  -5.80342  -5.79725  -0.97758
  Beta  occ. eigenvalues --   -0.82792  -0.77684  -0.72734  -0.69069  -0.66744
  Beta  occ. eigenvalues --   -0.65309  -0.63042  -0.59862  -0.55394  -0.53170
  Beta  occ. eigenvalues --   -0.51951  -0.50854  -0.46216  -0.44031  -0.41475
  Beta  occ. eigenvalues --   -0.40216  -0.38296  -0.37685  -0.37038  -0.36928
  Beta  occ. eigenvalues --   -0.35211  -0.34375  -0.34051  -0.32627  -0.31108
  Beta  occ. eigenvalues --   -0.30165  -0.29688  -0.29448  -0.28066  -0.27556
  Beta  occ. eigenvalues --   -0.26062  -0.25788  -0.24917  -0.24146  -0.23686
  Beta  occ. eigenvalues --   -0.22054  -0.17469  -0.17050  -0.14250  -0.10912
  Beta virt. eigenvalues --    0.06122   0.06548   0.06640   0.07058   0.07777
  Beta virt. eigenvalues --    0.08112   0.08531   0.08675   0.09724   0.09926
  Beta virt. eigenvalues --    0.09954   0.10133   0.10795   0.11445   0.11717

 Mulliken charges and spin densities:
               1          2
     1  C    0.633728  -1.184483
     2  C    0.197810  -0.333586
     3  N   -0.088544   0.074032
     4  C   -0.685611   0.657622
     5  C    0.452070  -0.693378
     6  C    0.174409  -0.536242
     7  S   -0.598906  -0.296035
     8  C    0.796853  -0.110292
     9  C    0.181500   0.658151
    10  C   -0.624998  -0.277967
    11  C   -0.567647  -0.025341
    12  C    0.249710   0.257692
    13  C    0.129209  -0.852853
    14  O   -0.214629   0.063371
    15  C    1.147799  -1.473080
    16  H    0.016572   0.124797
    17  H   -0.252906   0.390386
    18  H   -0.200637   0.325565
    19  H   -0.216634   0.350185
    20  H   -0.165743   0.297207
    21  H    0.307295  -0.095159
    22  H    0.005431   0.171107
    23  H    0.088016   0.046211
    24  H   -0.362800   0.554228
    25  H    0.253001  -0.006488
    26  H   -0.064009   0.269117
    27  H    0.013041   0.185494
    28  H   -0.317923   0.515778
    29  H   -0.047567   0.211939
    30  H   -0.297215   0.452836
    31  H   -0.297468   0.455123
    32  H   -0.643210   0.824063
 Sum of Mulliken charges =  -1.00000   1.00000

 Dipole moment (field-independent basis, Debye):
    X=             -3.0140    Y=              3.7268    Z=              0.0533  Tot=              4.7933
 Quadrupole moment (field-independent basis, Debye-Ang):
   XX=           -211.5457   YY=           -150.3192   ZZ=           -128.5694
   XY=              0.1335   XZ=              4.9723   YZ=              0.0449

 Summary of Natural Population Analysis:

                                       Natural Population
                Natural  -----------------------------------------------
    Atom  No    Charge         Core      Valence    Rydberg      Total
 -----------------------------------------------------------------------
      C    1   -0.28536      0.99967     2.28120    0.00449     3.28536
      C    2   -0.08641      0.99964     2.07658    0.01020     3.08641
      N    3   -0.34306      0.99972     2.83157    0.01177     3.84306
      C    4   -0.02017      0.99958     2.00415    0.01644     3.02017
      C    5   -0.19977      0.99961     2.18871    0.01146     3.19977
      C    6   -0.24932      0.99959     2.23868    0.01105     3.24932
      S    7    0.11826      4.99955     2.86381    0.01837     7.88174
      C    8   -0.10695      0.99940     2.09434    0.01320     3.10695
      C    9    0.01060      0.99944     1.98264    0.00731     2.98940
      C   10   -0.12375      0.99953     2.11027    0.01396     3.12375
      C   11    0.15728      0.99938     1.83072    0.01262     2.84272
      C   12   -0.13674      0.99952     2.12887    0.00835     3.13674
      C   13   -0.09989      0.99952     2.08871    0.01166     3.09989
      O   14   -0.27291      0.99986     3.26272    0.01033     4.27291
      C   15   -0.10074      0.99960     2.09185    0.00929     3.10074
      H   16    0.09960      0.00000     0.39916    0.00124     0.40040
      H   17    0.10129      0.00000     0.39753    0.00118     0.39871
      H   18    0.09443      0.00000     0.40428    0.00128     0.40557
      H   19    0.09088      0.00000     0.40699    0.00212     0.40912
      H   20    0.07799      0.00000     0.42013    0.00188     0.42201
      H   21    0.17562      0.00000     0.32098    0.00340     0.32438
      H   22    0.08850      0.00000     0.40885    0.00265     0.41150
      H   23    0.10215      0.00000     0.39651    0.00134     0.39785
      H   24    0.10610      0.00000     0.39239    0.00151     0.39390
      H   25    0.11116      0.00000     0.38699    0.00185     0.38884
      H   26    0.10645      0.00000     0.39248    0.00107     0.39355
      H   27    0.10660      0.00000     0.39142    0.00198     0.39340
      H   28    0.10929      0.00000     0.38921    0.00151     0.39071
      H   29    0.10236      0.00000     0.39663    0.00101     0.39764
      H   30    0.08547      0.00000     0.41232    0.00221     0.41453
      H   31    0.08525      0.00000     0.41257    0.00217     0.41475
      H   32    0.09587      0.00000     0.40244    0.00168     0.40413
 =======================================================================
   * Total *    0.00009     18.99362    40.80571    0.20058    59.99991

 Normal termination of Gaussian 16 at Thu Dec 10 16:43:20 2020.
