 Gaussian 16, Revision A.03,

 -----------------------------------------------------------
 # opt freq B3LYP/6-31G(d) empiricaldispersion=gd3bj scf=xqc
 -----------------------------------------------------------

 ------------------------------
 CID_150682458_JID_121_neutraal
 ------------------------------
 Symbolic Z-matrix:
 Charge =  0 Multiplicity = 1

 SCF Done:  E(RB3LYP) =  -454.785264292     A.U. after   15 cycles
 SCF Done:  E(RB3LYP) =  -454.792750534     A.U. after   16 cycles
 SCF Done:  E(RB3LYP) =  -454.796722107     A.U. after   14 cycles
 SCF Done:  E(RB3LYP) =  -454.798204294     A.U. after   14 cycles
 SCF Done:  E(RB3LYP) =  -454.798770461     A.U. after   14 cycles
 SCF Done:  E(RB3LYP) =  -454.799270105     A.U. after   16 cycles
 SCF Done:  E(RB3LYP) =  -454.799647606     A.U. after   16 cycles
 SCF Done:  E(RB3LYP) =  -454.800115966     A.U. after   12 cycles
 SCF Done:  E(RB3LYP) =  -454.800487967     A.U. after   16 cycles
 SCF Done:  E(RB3LYP) =  -454.800566439     A.U. after   12 cycles
 SCF Done:  E(RB3LYP) =  -454.800649197     A.U. after   11 cycles
 SCF Done:  E(RB3LYP) =  -454.800657161     A.U. after   11 cycles
 SCF Done:  E(RB3LYP) =  -454.800663125     A.U. after   10 cycles
 SCF Done:  E(RB3LYP) =  -454.800666390     A.U. after    9 cycles
 SCF Done:  E(RB3LYP) =  -454.800666746     A.U. after    9 cycles
 SCF Done:  E(RB3LYP) =  -454.800666756     A.U. after    9 cycles
 Optimization completed.
    -- Stationary point found.

 1\1\GINC-NODE305\FOpt\RB3LYP\6-31G(d)\C6H12N4\VSC10255\08-Dec-2020\0\\
 # opt freq B3LYP/6-31G(d) empiricaldispersion=gd3bj scf=xqc\\CID_15068
 2458_JID_121_neutraal\\0,1\C,1.7767571765,-0.0194010337,-0.7169534473\
 C,0.8311639582,0.0810953237,0.4866195582\C,-0.101669837,-1.1446584288,
 0.600976411\C,-1.2866375138,-0.847113137,-0.3503947655\C,-1.2669359259
 ,0.6880647435,-0.5986727793\C,-0.1749232235,1.2375309565,0.346680113\N
 ,-2.625350752,1.2327712723,-0.424628902\N,-2.5842545189,2.6915485738,-
 0.5477697083\N,-3.1452015268,3.0600684859,-1.598770831\N,-3.6053987976

 Normal termination of Gaussian 16 at Tue Dec  8 10:20:19 2020.

 --------------------------------------------------------------------
 #N Geom=AllCheck Guess=TCheck SCRF=Check GenChk RB3LYP/6-31G(d) Freq
 --------------------------------------------------------------------

 Structure from the checkpoint file:  "JID_121.chk"
 ------------------------------
 CID_150682458_JID_121_neutraal
 ------------------------------
 Charge =  0 Multiplicity = 1

 SCF Done:  E(RB3LYP) =  -454.800666756     A.U. after    1 cycles

  Exact polarizability: 117.748  -8.404  75.935   9.710  -3.251  74.089
 Approx polarizability: 166.957 -20.331 108.891  33.428 -11.147 125.364

                      1                      2                      3
                      A                      A                      A
 Frequencies --     21.5949                32.4672                74.3675
 Red. masses --      4.1616                 3.6920                 4.2665
 Frc consts  --      0.0011                 0.0023                 0.0139
 IR Inten    --      0.0452                 0.6243                 0.5708

                      4                      5                      6
                      A                      A                      A
 Frequencies --    157.9367               199.9516               227.6269
 Red. masses --      2.4272                 6.0144                 1.0617
 Frc consts  --      0.0357                 0.1417                 0.0324
 IR Inten    --      0.0853                 1.3706                 0.0273

                      7                      8                      9
                      A                      A                      A
 Frequencies --    246.6223               348.3886               360.8919
 Red. masses --      3.7774                 2.5755                 2.1733
 Frc consts  --      0.1354                 0.1842                 0.1668
 IR Inten    --      0.8883                 0.5134                 0.2114

                     10                     11                     12
                      A                      A                      A
 Frequencies --    399.8089               459.0567               568.3270
 Red. masses --      3.6465                 2.0399                13.2082
 Frc consts  --      0.3434                 0.2533                 2.5136
 IR Inten    --      0.8419                 5.9396                10.8120

                     13                     14                     15
                      A                      A                      A
 Frequencies --    623.0205               663.5124               683.1247
 Red. masses --      3.9822                 3.3183                 3.1986
 Frc consts  --      0.9107                 0.8607                 0.8794
 IR Inten    --      4.9424                11.2666                22.9159

                     16                     17                     18
                      A                      A                      A
 Frequencies --    784.6129               821.1323               861.4388
 Red. masses --      1.6641                 3.2462                 2.2997
 Frc consts  --      0.6036                 1.2896                 1.0055
 IR Inten    --      0.8155                 3.8019                 5.0225

                     19                     20                     21
                      A                      A                      A
 Frequencies --    889.8249               925.3746               930.7747
 Red. masses --      5.4206                 2.0760                 1.9611
 Frc consts  --      2.5288                 1.0474                 1.0010
 IR Inten    --      7.8569                 0.7764                 6.7829

                     22                     23                     24
                      A                      A                      A
 Frequencies --    965.8534               991.4306              1006.4494
 Red. masses --      1.4419                 1.7775                 2.3057
 Frc consts  --      0.7925                 1.0294                 1.3760
 IR Inten    --     21.7621                14.9312                22.9607

                     25                     26                     27
                      A                      A                      A
 Frequencies --   1030.0519              1064.6018              1095.1089
 Red. masses --      1.7370                 1.3699                 1.7847
 Frc consts  --      1.0858                 0.9147                 1.2611
 IR Inten    --      6.7817                 3.9609                 1.0246

                     28                     29                     30
                      A                      A                      A
 Frequencies --   1125.0937              1151.2410              1203.4401
 Red. masses --      2.5959                 1.5410                 1.6228
 Frc consts  --      1.9361                 1.2033                 1.3847
 IR Inten    --     13.3395                 0.6117                14.6807

                     31                     32                     33
                      A                      A                      A
 Frequencies --   1230.0543              1250.9183              1279.2577
 Red. masses --      2.2926                 1.5900                 1.7652
 Frc consts  --      2.0438                 1.4659                 1.7020
 IR Inten    --     15.9685                 6.6860                39.9710

                     34                     35                     36
                      A                      A                      A
 Frequencies --   1301.7657              1323.7672              1333.8398
 Red. masses --      1.5642                 1.3150                 1.2822
 Frc consts  --      1.5617                 1.3577                 1.3441
 IR Inten    --      9.5593                 4.6550                 1.0371

                     37                     38                     39
                      A                      A                      A
 Frequencies --   1353.7290              1365.7549              1395.0910
 Red. masses --      1.3946                 1.4497                 1.4717
 Frc consts  --      1.5058                 1.5932                 1.6876
 IR Inten    --      0.7249                 1.2808                10.1097

                     40                     41                     42
                      A                      A                      A
 Frequencies --   1398.5264              1443.2531              1505.8617
 Red. masses --      1.3180                 1.2593                 1.1522
 Frc consts  --      1.5188                 1.5454                 1.5394
 IR Inten    --      1.0339                 5.8715                16.4951

                     43                     44                     45
                      A                      A                      A
 Frequencies --   1513.0551              1517.3351              1530.2897
 Red. masses --      1.0906                 1.0755                 1.0577
 Frc consts  --      1.4710                 1.4588                 1.4594
 IR Inten    --      3.2378                 0.1795                 4.5253

                     46                     47                     48
                      A                      A                      A
 Frequencies --   1532.8381              1541.5759              2228.6075
 Red. masses --      1.0549                 1.0886                13.9577
 Frc consts  --      1.4604                 1.5242                40.8442
 IR Inten    --      4.3502                 2.5043               519.9694

                     49                     50                     51
                      A                      A                      A
 Frequencies --   3032.2766              3044.6241              3048.1619
 Red. masses --      1.0702                 1.0377                 1.0698
 Frc consts  --      5.7977                 5.6673                 5.8562
 IR Inten    --     26.7564                20.4483                11.2060

                     52                     53                     54
                      A                      A                      A
 Frequencies --   3061.7222              3072.6377              3076.8926
 Red. masses --      1.0762                 1.0665                 1.0855
 Frc consts  --      5.9441                 5.9322                 6.0548
 IR Inten    --     58.2771                32.7392                 6.9686

                     55                     56                     57
                      A                      A                      A
 Frequencies --   3094.3824              3109.7674              3111.8412
 Red. masses --      1.1015                 1.1015                 1.1007
 Frc consts  --      6.2144                 6.2762                 6.2797
 IR Inten    --      7.2785                41.6463                15.2836

                     58                     59                     60
                      A                      A                      A
 Frequencies --   3116.0506              3119.5378              3452.2779
 Red. masses --      1.0988                 1.1006                 1.0744
 Frc consts  --      6.2859                 6.3102                 7.5445
 IR Inten    --     52.9256                52.8820                 0.6283

 - Thermochemistry -
 -------------------
 Temperature   298.150 Kelvin.  Pressure   1.00000 Atm.
 Atom     1 has atomic number  6 and mass  12.00000

 Molecular mass:   140.10620 amu.
 Principal axes and moments of inertia in atomic units:
                           1         2         3
     Eigenvalues --   580.072232796.278572997.79767
           X            0.99992   0.01072  -0.00699
           Y           -0.01083   0.99981  -0.01594
           Z            0.00682   0.01602   0.99985
 This molecule is an asymmetric top.
 Rotational symmetry number  1.
 Warning -- assumption of classical behavior for rotation
           may cause significant error
 Rotational temperatures (Kelvin)      0.14932     0.03097     0.02889
 Rotational constants (GHZ):           3.11124     0.64541     0.60202
 Zero-point vibrational energy     498237.6 (Joules/Mol)
                                  119.08164 (Kcal/Mol)
 Warning -- explicit consideration of  12 degrees of freedom as
           vibrations may cause significant error
 Vibrational temperatures:     31.07    46.71   107.00   227.24   287.69
          (Kelvin)            327.50   354.83   501.25   519.24   575.24
                              660.48   817.70   896.39   954.65   982.86
                             1128.88  1181.43  1239.42  1280.26  1331.41
                             1339.18  1389.65  1426.45  1448.06  1482.01
                             1531.72  1575.62  1618.76  1656.38  1731.48
                             1769.77  1799.79  1840.57  1872.95  1904.61
                             1919.10  1947.71  1965.02  2007.22  2012.17
                             2076.52  2166.60  2176.95  2183.11  2201.75
                             2205.41  2217.98  3206.47  4362.77  4380.54
                             4385.63  4405.14  4420.84  4426.96  4452.13
                             4474.26  4477.25  4483.30  4488.32  4967.06

 Zero-point correction=                           0.189769 (Hartree/Particle)
 Thermal correction to Energy=                    0.199978
 Thermal correction to Enthalpy=                  0.200922
 Thermal correction to Gibbs Free Energy=         0.152067
 Sum of electronic and zero-point Energies=           -454.610898
 Sum of electronic and thermal Energies=              -454.600689
 Sum of electronic and thermal Enthalpies=            -454.599745
 Sum of electronic and thermal Free Energies=         -454.648600

                     E (Thermal)             CV                S
                      KCal/Mol        Cal/Mol-Kelvin    Cal/Mol-Kelvin
 Total                  125.488             36.992            102.823
 Electronic               0.000              0.000              0.000
 Translational            0.889              2.981             40.723
 Rotational               0.889              2.981             29.965
 Vibrational            123.710             31.030             32.135
 Vibration     1          0.593              1.985              6.482
 Vibration     2          0.594              1.983              5.673
 Vibration     3          0.599              1.966              4.034
 Vibration     4          0.621              1.894              2.574
 Vibration     5          0.638              1.840              2.134
 Vibration     6          0.651              1.799              1.898
 Vibration     7          0.661              1.768              1.755
 Vibration     8          0.726              1.579              1.173
 Vibration     9          0.735              1.553              1.118
 Vibration    10          0.766              1.471              0.963
 Vibration    11          0.817              1.341              0.769
 Vibration    12          0.924              1.100              0.507

 Optimization completed.
    -- Stationary point found.

 1\1\GINC-NODE305\Freq\RB3LYP\6-31G(d)\C6H12N4\VSC10255\08-Dec-2020\0\\
 #N Geom=AllCheck Guess=TCheck SCRF=Check GenChk RB3LYP/6-31G(d) Freq\\
 CID_150682458_JID_121_neutraal\\0,1\C,1.7767571765,-0.0194010337,-0.71
 69534473\C,0.8311639582,0.0810953237,0.4866195582\C,-0.101669837,-1.14
 46584288,0.600976411\C,-1.2866375138,-0.847113137,-0.3503947655\C,-1.2
 669359259,0.6880647435,-0.5986727793\C,-0.1749232235,1.2375309565,0.34
 6680113\N,-2.625350752,1.2327712723,-0.424628902\N,-2.5842545189,2.691
 5485738,-0.5477697083\N,-3.1452015268,3.0600684859,-1.598770831\N,-3.6

 Normal termination of Gaussian 16 at Tue Dec  8 10:23:44 2020.

 ----------------------------------------------------------------------
 # B3LYP/6-311++G(d,p) empiricaldispersion=gd3bj scf=xqc pop=npa geom=c
 heck
 ----------------------------------------------------------------------

 --------------------------------------
 CID_150682458_JID_121_Energie_neutraal
 --------------------------------------
 Structure from the checkpoint file:  "JID_121.chk"
 Charge =  0 Multiplicity = 1

 SCF Done:  E(RB3LYP) =  -454.929537726     A.U. after   15 cycles
 Normal termination of Gaussian 16 at Tue Dec  8 10:25:03 2020.

 ----------------------------------------------------------------------
 # B3LYP/6-311++G(d,p) empiricaldispersion=gd3bj scf=xqc pop=npa geom=c
 heck
 ----------------------------------------------------------------------

 ------------------------------------
 CID_150682458_JID_121_Energie_kation
 ------------------------------------
 Structure from the checkpoint file:  "JID_121.chk"
 Charge =  1 Multiplicity = 2

 SCF Done:  E(UB3LYP) =  -454.600695311     A.U. after   25 cycles
 Normal termination of Gaussian 16 at Tue Dec  8 10:27:56 2020.
 Gaussian 16:  ES64L-G16RevA.03 25-Dec-2016

 -----------------------------------
 CID_150682458_JID_121_Energie_anion
 -----------------------------------
 Structure from the checkpoint file:  "JID_121.chk"
 Charge = -1 Multiplicity = 2

                         Standard orientation:
 ---------------------------------------------------------------------
 Center     Atomic      Atomic             Coordinates (Angstroms)
 Number     Number       Type             X           Y           Z
 ---------------------------------------------------------------------
      1          6           0        2.626245    1.459010   -0.634005
      2          6           0        2.258276    0.479762    0.487826
      3          6           0        2.391446   -0.993796    0.044407
      4          6           0        1.061930   -1.325762   -0.676684
      5          6           0        0.039565   -0.247861   -0.216575
      6          6           0        0.771136    0.564601    0.875582
      7          7           0       -1.220486   -0.901455    0.180127
      8          7           0       -2.141038    0.102412    0.718384
      9          7           0       -3.098593    0.283040   -0.059776
     10          7           0       -4.022445    0.573235   -0.662455
     11          1           0        3.683222    1.361524   -0.906906
     12          1           0        2.035163    1.279891   -1.540180
     13          1           0        2.451373    2.495960   -0.325120
     14          1           0        2.900192    0.686998    1.352672
     15          1           0        3.267727   -1.165577   -0.589727
     16          1           0        2.506161   -1.630929    0.929595
     17          1           0        0.701674   -2.330105   -0.427852
     18          1           0        1.171832   -1.301756   -1.764538
     19          1           0       -0.217630    0.407329   -1.054648
     20          1           0        0.614903    0.074130    1.846879
     21          1           0        0.395366    1.588081    0.964829
     22          1           0       -1.023636   -1.481889    0.997726
 ---------------------------------------------------------------------

 SCF Done:  E(UB3LYP) =  -454.923614951     A.U. after   31 cycles

 The electronic state is 2-A.
 Alpha  occ. eigenvalues --  -14.31413 -14.23078 -14.22604 -14.21151 -10.08251
 Alpha  occ. eigenvalues --  -10.06240 -10.05426 -10.05331 -10.05162 -10.04622
 Alpha  occ. eigenvalues --   -0.99112  -0.86039  -0.75723  -0.70885  -0.62242
 Alpha  occ. eigenvalues --   -0.58936  -0.55386  -0.46116  -0.44492  -0.42539
 Alpha  occ. eigenvalues --   -0.38785  -0.36850  -0.35808  -0.34940  -0.32570
 Alpha  occ. eigenvalues --   -0.30964  -0.30250  -0.29731  -0.28324  -0.26139
 Alpha  occ. eigenvalues --   -0.23332  -0.22803  -0.21997  -0.21489  -0.20966
 Alpha  occ. eigenvalues --   -0.20246  -0.12457  -0.10875   0.04768
 Alpha virt. eigenvalues --    0.06690   0.08158   0.08733   0.09581   0.10649
 Alpha virt. eigenvalues --    0.11290   0.11510   0.11815   0.12665   0.13716
 Alpha virt. eigenvalues --    0.14841   0.15103   0.15358   0.16008   0.17827

  Beta  occ. eigenvalues --  -14.31100 -14.23135 -14.22145 -14.21018 -10.08245
  Beta  occ. eigenvalues --  -10.06232 -10.05403 -10.05308 -10.05134 -10.04601
  Beta  occ. eigenvalues --   -0.98485  -0.85733  -0.75535  -0.70728  -0.62164
  Beta  occ. eigenvalues --   -0.58857  -0.55289  -0.46020  -0.44405  -0.42239
  Beta  occ. eigenvalues --   -0.38683  -0.35682  -0.35588  -0.34719  -0.32491
  Beta  occ. eigenvalues --   -0.30252  -0.29889  -0.29589  -0.28279  -0.25892
  Beta  occ. eigenvalues --   -0.23278  -0.22591  -0.21939  -0.21450  -0.20921
  Beta  occ. eigenvalues --   -0.19669  -0.12277  -0.10716
  Beta virt. eigenvalues --    0.07214   0.08772   0.09165   0.09645   0.10750
  Beta virt. eigenvalues --    0.11184   0.11652   0.11776   0.12301   0.12836
  Beta virt. eigenvalues --    0.13988   0.15142   0.15291   0.15459   0.16210

 Mulliken charges and spin densities:
               1          2
     1  C    1.299501  -1.977150
     2  C   -1.668424   2.125079
     3  C    0.670176  -1.111729
     4  C    0.034764  -0.422433
     5  C   -0.459372   0.011635
     6  C    0.726153  -1.195017
     7  N    0.081811  -0.128925
     8  N   -0.662898   0.270030
     9  N    0.581927  -0.071788
    10  N   -0.262896   0.212671
    11  H   -0.314186   0.453392
    12  H   -0.086432   0.233108
    13  H   -0.041003   0.166911
    14  H   -0.455192   0.662781
    15  H   -0.266758   0.421324
    16  H   -0.219473   0.349060
    17  H    0.014510   0.132417
    18  H   -0.021802   0.165245
    19  H    0.141760   0.058989
    20  H   -0.073533   0.228830
    21  H   -0.011887   0.184936
    22  H   -0.006745   0.230635
 Sum of Mulliken charges =  -1.00000   1.00000

 Dipole moment (field-independent basis, Debye):
    X=              0.3825    Y=             -0.2769    Z=             -0.3288  Tot=              0.5754
 Quadrupole moment (field-independent basis, Debye-Ang):
   XX=           -131.2302   YY=            -86.7711   ZZ=            -85.6906
   XY=              0.9172   XZ=             -2.1744   YZ=              1.0015

 Summary of Natural Population Analysis:

                                       Natural Population
                Natural  -----------------------------------------------
    Atom  No    Charge         Core      Valence    Rydberg      Total
 -----------------------------------------------------------------------
      C    1   -0.28579      0.99965     2.27959    0.00655     3.28579
      C    2   -0.11334      0.99961     2.10346    0.01026     3.11334
      C    3   -0.19044      0.99962     2.18216    0.00866     3.19044
      C    4   -0.19675      0.99962     2.18747    0.00967     3.19675
      C    5   -0.01160      0.99959     1.99952    0.01249     3.01160
      C    6   -0.19733      0.99960     2.18836    0.00937     3.19733
      N    7   -0.23853      0.99972     2.72591    0.01290     3.73853
      N    8   -0.15712      0.99973     2.64121    0.01618     3.65712
      N    9    0.13806      0.99971     2.34686    0.01537     3.36194
      N   10    0.00198      0.99982     2.48390    0.01430     3.49802
      H   11    0.09909      0.00000     0.39976    0.00115     0.40091
      H   12    0.09557      0.00000     0.40342    0.00101     0.40443
      H   13    0.09792      0.00000     0.40120    0.00088     0.40208
      H   14    0.09576      0.00000     0.40248    0.00176     0.40424
      H   15    0.09832      0.00000     0.40043    0.00125     0.40168
      H   16    0.09784      0.00000     0.40052    0.00164     0.40216
      H   17    0.10237      0.00000     0.39641    0.00122     0.39763
      H   18    0.09922      0.00000     0.39977    0.00102     0.40078
      H   19    0.09200      0.00000     0.40629    0.00171     0.40800
      H   20    0.09944      0.00000     0.39897    0.00159     0.40056
      H   21    0.10428      0.00000     0.39458    0.00113     0.39572
      H   22    0.16905      0.00000     0.32781    0.00314     0.33095
 =======================================================================
   * Total *    0.00000      9.99667    27.87008    0.13325    38.00000

 Normal termination of Gaussian 16 at Tue Dec  8 10:31:26 2020.
