 Gaussian 16, Revision A.03,

 -----------------------------------------------------------
 # opt freq B3LYP/6-31G(d) empiricaldispersion=gd3bj scf=xqc
 -----------------------------------------------------------

 ------------------------------
 CID_58205323_JID_7867_neutraal
 ------------------------------
 Symbolic Z-matrix:
 Charge =  0 Multiplicity = 1

 SCF Done:  E(RB3LYP) =  -715.497717581     A.U. after   15 cycles
 SCF Done:  E(RB3LYP) =  -715.500192292     A.U. after   12 cycles
 SCF Done:  E(RB3LYP) =  -715.500300989     A.U. after   12 cycles
 SCF Done:  E(RB3LYP) =  -715.500764792     A.U. after   11 cycles
 SCF Done:  E(RB3LYP) =  -715.500852096     A.U. after   11 cycles
 SCF Done:  E(RB3LYP) =  -715.500913918     A.U. after   10 cycles
 SCF Done:  E(RB3LYP) =  -715.500966533     A.U. after   11 cycles
 SCF Done:  E(RB3LYP) =  -715.500988252     A.U. after   10 cycles
 SCF Done:  E(RB3LYP) =  -715.500995111     A.U. after    9 cycles
 SCF Done:  E(RB3LYP) =  -715.501002452     A.U. after   10 cycles
 SCF Done:  E(RB3LYP) =  -715.501213770     A.U. after    9 cycles
 SCF Done:  E(RB3LYP) =  -715.501214478     A.U. after    8 cycles
 SCF Done:  E(RB3LYP) =  -715.501214643     A.U. after    7 cycles
 SCF Done:  E(RB3LYP) =  -715.501214704     A.U. after    7 cycles
 Optimization completed.
    -- Stationary point found.
 Normal termination of Gaussian 16 at Sun Dec 13 16:24:02 2020.

 --------------------------------------------------------------------
 #N Geom=AllCheck Guess=TCheck SCRF=Check GenChk RB3LYP/6-31G(d) Freq
 --------------------------------------------------------------------

 Structure from the checkpoint file:  "JID_7867.chk"
 ------------------------------
 CID_58205323_JID_7867_neutraal
 ------------------------------
 Charge =  0 Multiplicity = 1

 SCF Done:  E(RB3LYP) =  -715.501214703     A.U. after    1 cycles

  Exact polarizability: 195.600   2.999 153.836   5.960   4.350 137.027
 Approx polarizability: 234.042   7.362 239.028  14.051  10.378 219.263

                      1                      2                      3
                      A                      A                      A
 Frequencies --     26.3439                39.0192                47.1559
 Red. masses --      3.5295                 3.6582                 4.8948
 Frc consts  --      0.0014                 0.0033                 0.0064
 IR Inten    --      0.1190                 0.3840                 1.6163

                      4                      5                      6
                      A                      A                      A
 Frequencies --     69.2528               107.2757               124.0076
 Red. masses --      3.7092                 2.8207                 2.5856
 Frc consts  --      0.0105                 0.0191                 0.0234
 IR Inten    --      1.6676                 0.1974                 0.3681

                      7                      8                      9
                      A                      A                      A
 Frequencies --    165.3389               178.2385               197.1157
 Red. masses --      2.2869                 1.1479                 1.2288
 Frc consts  --      0.0368                 0.0215                 0.0281
 IR Inten    --      1.1598                 0.1709                 0.0183

                     10                     11                     12
                      A                      A                      A
 Frequencies --    210.1098               223.3310               257.6964
 Red. masses --      3.2797                 2.0217                 3.2031
 Frc consts  --      0.0853                 0.0594                 0.1253
 IR Inten    --      1.4935                 0.1111                 2.2538

                     13                     14                     15
                      A                      A                      A
 Frequencies --    270.1001               295.4399               331.5108
 Red. masses --      2.4121                 4.4896                 3.4886
 Frc consts  --      0.1037                 0.2309                 0.2259
 IR Inten    --      0.0163                 0.2238                 5.0068

                     16                     17                     18
                      A                      A                      A
 Frequencies --    342.7477               368.3493               379.2808
 Red. masses --      3.0700                 2.4852                 2.1975
 Frc consts  --      0.2125                 0.1987                 0.1863
 IR Inten    --      3.8615                 0.7407                 0.9055

                     19                     20                     21
                      A                      A                      A
 Frequencies --    397.8512               435.1421               438.7865
 Red. masses --      3.0863                 2.1620                 3.6920
 Frc consts  --      0.2878                 0.2412                 0.4188
 IR Inten    --      1.5619                 2.0768                 1.6401

                     22                     23                     24
                      A                      A                      A
 Frequencies --    463.1380               480.0306               511.2781
 Red. masses --      3.2436                 2.9606                 2.4481
 Frc consts  --      0.4099                 0.4019                 0.3770
 IR Inten    --      0.6491                 3.7100                 3.3008

                     25                     26                     27
                      A                      A                      A
 Frequencies --    558.8078               584.9260               599.9276
 Red. masses --      3.0376                 2.1427                 3.0178
 Frc consts  --      0.5589                 0.4319                 0.6399
 IR Inten    --      1.1723                34.1128                11.9784

                     28                     29                     30
                      A                      A                      A
 Frequencies --    652.2389               687.2097               729.9959
 Red. masses --      1.5469                 2.4940                 1.6374
 Frc consts  --      0.3877                 0.6939                 0.5141
 IR Inten    --     13.5344                 2.2256                43.2790

                     31                     32                     33
                      A                      A                      A
 Frequencies --    767.8566               776.0742               805.3638
 Red. masses --      2.7971                 2.5235                 2.0832
 Frc consts  --      0.9717                 0.8955                 0.7961
 IR Inten    --      7.6402                 4.6239                 4.4022

                     34                     35                     36
                      A                      A                      A
 Frequencies --    810.0766               848.1392               865.0400
 Red. masses --      2.2883                 1.4952                 2.1007
 Frc consts  --      0.8847                 0.6337                 0.9262
 IR Inten    --     12.9224                 3.5907                 2.4937

                     37                     38                     39
                      A                      A                      A
 Frequencies --    904.0848               905.8893               940.3268
 Red. masses --      1.5883                 2.1702                 1.7928
 Frc consts  --      0.7649                 1.0493                 0.9340
 IR Inten    --      7.0269                 0.8944                 3.6211

                     40                     41                     42
                      A                      A                      A
 Frequencies --    947.9767               961.3266               987.7018
 Red. masses --      1.3538                 1.9800                 2.0584
 Frc consts  --      0.7168                 1.0781                 1.1831
 IR Inten    --     44.7929                 2.2459                 3.7751

                     43                     44                     45
                      A                      A                      A
 Frequencies --    994.3857              1025.0304              1033.1967
 Red. masses --      1.5489                 1.9990                 1.7703
 Frc consts  --      0.9024                 1.2375                 1.1134
 IR Inten    --      2.9709                 1.1021                 0.1670

                     46                     47                     48
                      A                      A                      A
 Frequencies --   1038.2692              1057.6495              1077.2349
 Red. masses --      1.4250                 1.7112                 1.5049
 Frc consts  --      0.9051                 1.1278                 1.0289
 IR Inten    --      3.4719                 0.9259                 2.9164

                     49                     50                     51
                      A                      A                      A
 Frequencies --   1087.3563              1093.3140              1099.6592
 Red. masses --      1.4779                 2.1504                 1.8233
 Frc consts  --      1.0295                 1.5145                 1.2990
 IR Inten    --      1.4586                 3.4424                 5.8971

                     52                     53                     54
                      A                      A                      A
 Frequencies --   1109.2736              1132.1088              1143.0832
 Red. masses --      2.7448                 2.2857                 1.5611
 Frc consts  --      1.9899                 1.7261                 1.2018
 IR Inten    --      2.8227                 1.6713                 5.5053

                     55                     56                     57
                      A                      A                      A
 Frequencies --   1159.0598              1172.9713              1206.3154
 Red. masses --      2.1793                 2.5293                 2.1725
 Frc consts  --      1.7249                 2.0504                 1.8626
 IR Inten    --     11.7811                 3.7532                 5.1056

                     58                     59                     60
                      A                      A                      A
 Frequencies --   1211.8573              1250.7404              1260.2616
 Red. masses --      1.5906                 2.5634                 1.3192
 Frc consts  --      1.3763                 2.3627                 1.2344
 IR Inten    --     23.9914                85.9292                 2.9589

                     61                     62                     63
                      A                      A                      A
 Frequencies --   1268.9848              1285.7496              1311.8775
 Red. masses --      1.4424                 1.3260                 1.2484
 Frc consts  --      1.3685                 1.2915                 1.2659
 IR Inten    --     10.5833                 0.3959                 4.5865

                     64                     65                     66
                      A                      A                      A
 Frequencies --   1329.9928              1338.6975              1350.1378
 Red. masses --      1.3023                 1.3567                 1.2588
 Frc consts  --      1.3573                 1.4325                 1.3519
 IR Inten    --      8.4611                 2.2836                 1.3940

                     67                     68                     69
                      A                      A                      A
 Frequencies --   1359.0458              1365.6402              1388.9332
 Red. masses --      1.3051                 1.3213                 1.3894
 Frc consts  --      1.4202                 1.4519                 1.5792
 IR Inten    --      2.3606                 1.9327                 0.6849

                     70                     71                     72
                      A                      A                      A
 Frequencies --   1396.3622              1402.9857              1408.0425
 Red. masses --      1.5691                 1.8195                 1.8192
 Frc consts  --      1.8026                 2.1102                 2.1250
 IR Inten    --     41.2761                76.2486                 3.6600

                     73                     74                     75
                      A                      A                      A
 Frequencies --   1409.7489              1420.8874              1425.0679
 Red. masses --      1.8147                 1.6253                 1.6513
 Frc consts  --      2.1249                 1.9334                 1.9758
 IR Inten    --     60.6879                 9.6615                 0.8679

                     76                     77                     78
                      A                      A                      A
 Frequencies --   1433.7612              1442.9346              1469.1427
 Red. masses --      1.4007                 1.2681                 1.2450
 Frc consts  --      1.6965                 1.5557                 1.5832
 IR Inten    --      9.0952                 0.8756                30.3763

                     79                     80                     81
                      A                      A                      A
 Frequencies --   1497.7799              1503.4664              1505.9359
 Red. masses --      1.5853                 1.0516                 1.0745
 Frc consts  --      2.0953                 1.4005                 1.4357
 IR Inten    --     38.0498                12.0841                 4.4562

                     82                     83                     84
                      A                      A                      A
 Frequencies --   1509.4873              1510.9777              1519.2950
 Red. masses --      1.0561                 1.0891                 1.0886
 Frc consts  --      1.4178                 1.4650                 1.4804
 IR Inten    --      3.6358                 2.0465                 5.8259

                     85                     86                     87
                      A                      A                      A
 Frequencies --   1522.1778              1524.8583              1525.4172
 Red. masses --      1.0647                 1.0971                 1.0601
 Frc consts  --      1.4534                 1.5030                 1.4534
 IR Inten    --      4.6145                 3.3077                17.0997

                     88                     89                     90
                      A                      A                      A
 Frequencies --   1529.6578              1717.2400              1751.9841
 Red. masses --      1.1067                 5.1574                 7.0002
 Frc consts  --      1.5257                 8.9606                12.6595
 IR Inten    --      3.8113                66.5735                 2.0010

                     91                     92                     93
                      A                      A                      A
 Frequencies --   1761.1522              2952.7397              2990.9782
 Red. masses --      7.7426                 1.0799                 1.0813
 Frc consts  --     14.1491                 5.5472                 5.6993
 IR Inten    --    367.8499                18.6616                 9.0940

                     94                     95                     96
                      A                      A                      A
 Frequencies --   3004.7316              3014.8165              3025.7855
 Red. masses --      1.0677                 1.0659                 1.0589
 Frc consts  --      5.6795                 5.7082                 5.7117
 IR Inten    --     30.6933                18.7566                42.7886

                     97                     98                     99
                      A                      A                      A
 Frequencies --   3026.3571              3030.5655              3031.8679
 Red. masses --      1.0507                 1.0663                 1.0628
 Frc consts  --      5.6697                 5.7699                 5.7558
 IR Inten    --     14.9213                 6.5796                75.8336

                    100                    101                    102
                      A                      A                      A
 Frequencies --   3046.3479              3048.4482              3069.7274
 Red. masses --      1.0842                 1.0408                 1.0983
 Frc consts  --      5.9283                 5.6988                 6.0979
 IR Inten    --     61.6837                19.2166                11.1020

                    103                    104                    105
                      A                      A                      A
 Frequencies --   3070.2198              3073.8774              3077.2491
 Red. masses --      1.0993                 1.0997                 1.1016
 Frc consts  --      6.1054                 6.1218                 6.1459
 IR Inten    --     22.1429                36.4440                76.0489

                    106                    107                    108
                      A                      A                      A
 Frequencies --   3083.2372              3111.2980              3115.7028
 Red. masses --      1.0963                 1.0936                 1.0862
 Frc consts  --      6.1405                 6.2370                 6.2124
 IR Inten    --     43.0470                15.7065                18.1620

                    109                    110                    111
                      A                      A                      A
 Frequencies --   3122.0082              3139.6654              3144.5336
 Red. masses --      1.0995                 1.0889                 1.1040
 Frc consts  --      6.3139                 6.3243                 6.4316
 IR Inten    --     17.7919                39.5954                11.8605

                    112                    113                    114
                      A                      A                      A
 Frequencies --   3164.1257              3245.2723              3555.2967
 Red. masses --      1.0601                 1.1156                 1.0745
 Frc consts  --      6.2530                 6.9225                 8.0025
 IR Inten    --      8.1758                14.3206                11.3212

 - Thermochemistry -
 -------------------
 Temperature   298.150 Kelvin.  Pressure   1.00000 Atm.
 Atom     1 has atomic number  6 and mass  12.00000

 Molecular mass:   233.17796 amu.
 Principal axes and moments of inertia in atomic units:
                           1         2         3
     Eigenvalues --  1700.253489061.543099355.65300
           X            0.99998  -0.00126  -0.00668
           Y            0.00111   0.99976  -0.02177
           Z            0.00670   0.02176   0.99974
 This molecule is an asymmetric top.
 Rotational symmetry number  1.
 Warning -- assumption of classical behavior for rotation
           may cause significant error
 Rotational temperatures (Kelvin)      0.05094     0.00956     0.00926
 Rotational constants (GHZ):           1.06145     0.19916     0.19290
 Zero-point vibrational energy     940118.5 (Joules/Mol)
                                  224.69372 (Kcal/Mol)
 Warning -- explicit consideration of  27 degrees of freedom as
           vibrations may cause significant error
 Vibrational temperatures:     37.90    56.14    67.85    99.64   154.35
          (Kelvin)            178.42   237.89   256.45   283.61   302.30
                              321.32   370.77   388.61   425.07   476.97
                              493.14   529.97   545.70   572.42   626.07
                              631.32   666.35   690.66   735.62   804.00
                              841.58   863.16   938.43   988.74  1050.30
                             1104.77  1116.60  1158.74  1165.52  1220.28
                             1244.60  1300.78  1303.37  1352.92  1363.93
                             1383.13  1421.08  1430.70  1474.79  1486.54
                             1493.84  1521.72  1549.90  1564.46  1573.04
                             1582.16  1596.00  1628.85  1644.64  1667.63
                             1687.64  1735.62  1743.59  1799.54  1813.24
                             1825.79  1849.91  1887.50  1913.56  1926.09
                             1942.55  1955.36  1964.85  1998.37  2009.05
                             2018.58  2025.86  2028.31  2044.34  2050.35
                             2062.86  2076.06  2113.77  2154.97  2163.15
                             2166.71  2171.82  2173.96  2185.93  2190.07
                             2193.93  2194.74  2200.84  2470.73  2520.71
                             2533.91  4248.33  4303.35  4323.14  4337.65
                             4353.43  4354.25  4360.31  4362.18  4383.02
                             4386.04  4416.65  4417.36  4422.62  4427.48
                             4436.09  4476.46  4482.80  4491.87  4517.28
                             4524.28  4552.47  4669.22  5115.28

 Zero-point correction=                           0.358072 (Hartree/Particle)
 Thermal correction to Energy=                    0.375128
 Thermal correction to Enthalpy=                  0.376072
 Thermal correction to Gibbs Free Energy=         0.312720
 Sum of electronic and zero-point Energies=           -715.143142
 Sum of electronic and thermal Energies=              -715.126086
 Sum of electronic and thermal Enthalpies=            -715.125142
 Sum of electronic and thermal Free Energies=         -715.188495

                     E (Thermal)             CV                S
                      KCal/Mol        Cal/Mol-Kelvin    Cal/Mol-Kelvin
 Total                  235.397             66.491            133.336
 Electronic               0.000              0.000              0.000
 Translational            0.889              2.981             42.242
 Rotational               0.889              2.981             33.333
 Vibrational            233.619             60.530             57.762
 Vibration     1          0.593              1.985              6.087
 Vibration     2          0.594              1.981              5.308
 Vibration     3          0.595              1.979              4.933
 Vibration     4          0.598              1.969              4.174
 Vibration     5          0.606              1.943              3.318
 Vibration     6          0.610              1.929              3.037
 Vibration     7          0.624              1.885              2.488
 Vibration     8          0.629              1.869              2.347
 Vibration     9          0.636              1.844              2.160
 Vibration    10          0.642              1.825              2.043
 Vibration    11          0.649              1.806              1.932
 Vibration    12          0.667              1.750              1.677
 Vibration    13          0.674              1.728              1.596
 Vibration    14          0.690              1.682              1.443
 Vibration    15          0.714              1.613              1.253
 Vibration    16          0.722              1.590              1.199
 Vibration    17          0.741              1.537              1.087
 Vibration    18          0.749              1.514              1.042
 Vibration    19          0.764              1.475              0.971
 Vibration    20          0.796              1.394              0.842
 Vibration    21          0.799              1.386              0.830
 Vibration    22          0.821              1.332              0.757
 Vibration    23          0.836              1.294              0.710
 Vibration    24          0.866              1.225              0.631
 Vibration    25          0.914              1.120              0.526
 Vibration    26          0.942              1.064              0.476
 Vibration    27          0.958              1.032              0.450

 Optimization completed.
    -- Stationary point found.
 Normal termination of Gaussian 16 at Sun Dec 13 16:39:19 2020.

 ----------------------------------------------------------------------
 # B3LYP/6-311++G(d,p) empiricaldispersion=gd3bj scf=xqc pop=npa geom=c
 heck
 ----------------------------------------------------------------------

 --------------------------------------
 CID_58205323_JID_7867_Energie_neutraal
 --------------------------------------
 Structure from the checkpoint file:  "JID_7867.chk"
 Charge =  0 Multiplicity = 1

 SCF Done:  E(RB3LYP) =  -715.699282397     A.U. after   16 cycles
 Normal termination of Gaussian 16 at Sun Dec 13 16:48:37 2020.

 ----------------------------------------------------------------------
 # B3LYP/6-311++G(d,p) empiricaldispersion=gd3bj scf=xqc pop=npa geom=c
 heck
 ----------------------------------------------------------------------

 ------------------------------------
 CID_58205323_JID_7867_Energie_kation
 ------------------------------------
 Structure from the checkpoint file:  "JID_7867.chk"
 Charge =  1 Multiplicity = 2

 SCF Done:  E(UB3LYP) =  -715.397690802     A.U. after   33 cycles
 SCF Done:  E(UB3LYP) =  -715.397690802     a.u. after    1 cycles
 Normal termination of Gaussian 16 at Sun Dec 13 17:16:06 2020.
 Gaussian 16:  ES64L-G16RevA.03 25-Dec-2016

 ----------------------------------------------------------------------
 # B3LYP/6-311++G(d,p) empiricaldispersion=gd3bj scf=xqc pop=npa geom=c
 heck
 ----------------------------------------------------------------------

 -----------------------------------
 CID_58205323_JID_7867_Energie_anion
 -----------------------------------
 Structure from the checkpoint file:  "JID_7867.chk"
 Charge = -1 Multiplicity = 2

                         Standard orientation:
 ---------------------------------------------------------------------
 Center     Atomic      Atomic             Coordinates (Angstroms)
 Number     Number       Type             X           Y           Z
 ---------------------------------------------------------------------
      1          6           0        5.462496   -0.017905    0.971009
      2          6           0        4.080927   -0.160527    0.391545
      3          6           0        3.324224    0.898658    0.077713
      4          6           0        1.925625    0.808702   -0.477713
      5          6           0        0.995447    1.908037    0.058770
      6          6           0       -0.397523    1.804777   -0.575065
      7          6           0       -1.012239    0.410091   -0.383866
      8          6           0       -0.060462   -0.692784   -0.877271
      9          6           0        1.313983   -0.576913   -0.211818
     10          6           0        2.301374   -1.665839   -0.635943
     11          6           0        3.589587   -1.579210    0.193499
     12          7           0       -2.311519    0.317339   -1.050230
     13          6           0       -3.496111   -0.167161   -0.554059
     14          8           0       -4.372082   -0.593666   -1.302515
     15          6           0       -3.739221   -0.112294    0.931018
     16          6           0       -3.456853    0.983811    1.643639
     17          6           0       -4.461054   -1.307056    1.491365
     18          1           0        5.537089   -0.527599    1.941912
     19          1           0        5.735913    1.031765    1.116832
     20          1           0        6.215684   -0.480848    0.318521
     21          1           0        3.726176    1.901595    0.226412
     22          1           0        1.975449    0.942600   -1.573717
     23          1           0        0.918287    1.812314    1.151238
     24          1           0        1.425146    2.898115   -0.139052
     25          1           0       -0.323558    2.011563   -1.652818
     26          1           0       -1.074955    2.559204   -0.158493
     27          1           0       -1.190379    0.252471    0.682435
     28          1           0       -0.507693   -1.674129   -0.674990
     29          1           0        0.052724   -0.614747   -1.969694
     30          1           0        1.169241   -0.663238    0.877675
     31          1           0        1.850241   -2.660350   -0.530628
     32          1           0        2.537531   -1.536505   -1.701393
     33          1           0        3.430082   -2.037985    1.182310
     34          1           0        4.383263   -2.176513   -0.277140
     35          1           0       -2.278412    0.234418   -2.061765
     36          1           0       -3.724636    1.058741    2.694600
     37          1           0       -2.980863    1.851729    1.197475
     38          1           0       -5.376341   -1.484658    0.918384
     39          1           0       -3.850468   -2.214710    1.401232
     40          1           0       -4.713422   -1.161591    2.545470
 ---------------------------------------------------------------------

 SCF Done:  E(UB3LYP) =  -715.688593228     A.U. after   33 cycles
 SCF Done:  E(UB3LYP) =  -715.688593228     a.u. after    1 cycles

 The electronic state is 2-A.
 Alpha  occ. eigenvalues --  -18.97587 -14.22804 -10.15843 -10.11533 -10.08174
 Alpha  occ. eigenvalues --  -10.08082 -10.08058 -10.07808 -10.07770 -10.07707
 Alpha  occ. eigenvalues --  -10.07680 -10.07535 -10.07348 -10.06904 -10.06771
 Alpha  occ. eigenvalues --  -10.06491 -10.05944  -0.92794  -0.82201  -0.76253
 Alpha  occ. eigenvalues --   -0.71533  -0.69843  -0.67871  -0.65475  -0.63141
 Alpha  occ. eigenvalues --   -0.59225  -0.58546  -0.54185  -0.52646  -0.51578
 Alpha  occ. eigenvalues --   -0.50314  -0.47722  -0.44152  -0.42146  -0.40149
 Alpha  occ. eigenvalues --   -0.37913  -0.37543  -0.36447  -0.35481  -0.34715
 Alpha  occ. eigenvalues --   -0.34251  -0.33833  -0.33171  -0.32502  -0.31480
 Alpha  occ. eigenvalues --   -0.31200  -0.30131  -0.29543  -0.29010  -0.27902
 Alpha  occ. eigenvalues --   -0.27558  -0.27275  -0.26920  -0.26218  -0.25687
 Alpha  occ. eigenvalues --   -0.25037  -0.24116  -0.23379  -0.21616  -0.20569
 Alpha  occ. eigenvalues --   -0.16451  -0.15609  -0.14499  -0.14380   0.04278
 Alpha virt. eigenvalues --    0.05517   0.06717   0.06887   0.07037   0.07919
 Alpha virt. eigenvalues --    0.08481   0.08678   0.09328   0.09490   0.10298
 Alpha virt. eigenvalues --    0.10372   0.10952   0.11353   0.11681   0.11933

  Beta  occ. eigenvalues --  -18.97480 -14.22787 -10.15748 -10.11532 -10.08168
  Beta  occ. eigenvalues --  -10.08083 -10.08055 -10.07802 -10.07760 -10.07673
  Beta  occ. eigenvalues --  -10.07599 -10.07509 -10.07334 -10.06899 -10.06732
  Beta  occ. eigenvalues --  -10.06479 -10.05809  -0.92595  -0.82128  -0.76231
  Beta  occ. eigenvalues --   -0.71494  -0.69595  -0.67851  -0.65441  -0.63111
  Beta  occ. eigenvalues --   -0.59085  -0.58479  -0.54139  -0.52395  -0.51497
  Beta  occ. eigenvalues --   -0.50274  -0.47675  -0.44008  -0.42107  -0.40103
  Beta  occ. eigenvalues --   -0.37807  -0.37473  -0.36397  -0.35431  -0.34641
  Beta  occ. eigenvalues --   -0.34144  -0.33783  -0.33071  -0.32340  -0.31405
  Beta  occ. eigenvalues --   -0.31139  -0.30046  -0.29502  -0.28971  -0.27804
  Beta  occ. eigenvalues --   -0.27411  -0.27191  -0.26844  -0.26170  -0.25618
  Beta  occ. eigenvalues --   -0.24960  -0.24063  -0.23350  -0.21572  -0.20537
  Beta  occ. eigenvalues --   -0.15830  -0.15306  -0.14369  -0.14173
  Beta virt. eigenvalues --    0.06289   0.06926   0.06932   0.07322   0.07580
  Beta virt. eigenvalues --    0.08239   0.08772   0.08982   0.09413   0.09696
  Beta virt. eigenvalues --    0.10399   0.10548   0.11027   0.11499   0.11918

 Mulliken charges and spin densities:
               1          2
     1  C    1.500751  -1.956823
     2  C   -0.373558   1.228430
     3  C   -0.670805  -0.181492
     4  C    1.352901  -0.826435
     5  C   -0.083565  -0.347377
     6  C    0.150462  -0.461479
     7  C   -0.403116   0.297889
     8  C   -0.389561  -0.976853
     9  C   -0.342143   0.990678
    10  C   -0.116677  -0.380868
    11  C   -0.700684  -0.283216
    12  N    0.047707   0.065706
    13  C   -0.439131   0.155257
    14  O   -0.352985   0.038768
    15  C    0.718546   0.087933
    16  C   -0.677975   0.254565
    17  C   -0.297706  -0.327962
    18  H   -0.218019   0.364215
    19  H   -0.405548   0.550640
    20  H   -0.245149   0.396911
    21  H   -0.238691   0.397597
    22  H   -0.029192   0.224313
    23  H    0.186314  -0.021605
    24  H   -0.003467   0.152419
    25  H    0.061207   0.073431
    26  H    0.095621   0.091077
    27  H    0.159227  -0.021893
    28  H    0.243372  -0.040180
    29  H    0.046371   0.091278
    30  H    0.026341   0.141732
    31  H   -0.198763   0.340382
    32  H    0.044130   0.113357
    33  H    0.119006   0.056620
    34  H   -0.257918   0.446885
    35  H    0.244136   0.047449
    36  H    0.073277   0.026895
    37  H    0.069435   0.057403
    38  H    0.133997   0.046084
    39  H    0.074811   0.057783
    40  H    0.097040   0.030484
 Sum of Mulliken charges =  -1.00000   1.00000

 Dipole moment (field-independent basis, Debye):
    X=             -2.7905    Y=              0.7042    Z=              0.6012  Tot=              2.9401
 Quadrupole moment (field-independent basis, Debye-Ang):
   XX=           -242.0839   YY=           -139.0506   ZZ=           -133.4004
   XY=              2.8566   XZ=            -11.7496   YZ=             -1.9980

 Summary of Natural Population Analysis:

                                       Natural Population
                Natural  -----------------------------------------------
    Atom  No    Charge         Core      Valence    Rydberg      Total
 -----------------------------------------------------------------------
      C    1   -0.29342      0.99963     2.28786    0.00593     3.29342
      C    2    0.00047      0.99949     1.99082    0.00922     2.99953
      C    3   -0.09987      0.99944     2.08971    0.01071     3.09987
      C    4   -0.12112      0.99956     2.11084    0.01072     3.12112
      C    5   -0.18460      0.99961     2.17640    0.00859     3.18460
      C    6   -0.18950      0.99961     2.18055    0.00935     3.18950
      C    7   -0.01423      0.99956     2.00360    0.01106     3.01423
      C    8   -0.18629      0.99959     2.17908    0.00762     3.18629
      C    9   -0.10600      0.99957     2.09678    0.00965     3.10600
      C   10   -0.18366      0.99962     2.17430    0.00975     3.18366
      C   11   -0.20069      0.99959     2.19200    0.00911     3.20069
      N   12   -0.31797      0.99966     2.80746    0.01085     3.81797
      C   13    0.34660      0.99960     1.63164    0.02216     2.65340
      O   14   -0.31963      0.99988     3.31416    0.00558     4.31963
      C   15   -0.03116      0.99949     2.02244    0.00923     3.03116
      C   16   -0.16449      0.99952     2.15805    0.00693     3.16449
      C   17   -0.29606      0.99963     2.29099    0.00544     3.29606
      H   18    0.10180      0.00000     0.39685    0.00135     0.39820
      H   19    0.10222      0.00000     0.39664    0.00115     0.39778
      H   20    0.10296      0.00000     0.39551    0.00153     0.39704
      H   21    0.09426      0.00000     0.40419    0.00155     0.40574
      H   22    0.09733      0.00000     0.40092    0.00175     0.40267
      H   23    0.09524      0.00000     0.40351    0.00125     0.40476
      H   24    0.09932      0.00000     0.39976    0.00092     0.40068
      H   25    0.09398      0.00000     0.40481    0.00121     0.40602
      H   26    0.10202      0.00000     0.39703    0.00095     0.39798
      H   27    0.10671      0.00000     0.39109    0.00220     0.39329
      H   28    0.10262      0.00000     0.39619    0.00119     0.39738
      H   29    0.09335      0.00000     0.40532    0.00133     0.40665
      H   30    0.09399      0.00000     0.40430    0.00171     0.40601
      H   31    0.09885      0.00000     0.40017    0.00098     0.40115
      H   32    0.09535      0.00000     0.40340    0.00125     0.40465
      H   33    0.10056      0.00000     0.39819    0.00125     0.39944
      H   34    0.10426      0.00000     0.39443    0.00131     0.39574
      H   35    0.18754      0.00000     0.30984    0.00262     0.31246
      H   36    0.08827      0.00000     0.41062    0.00111     0.41173
      H   37    0.09332      0.00000     0.40548    0.00119     0.40668
      H   38    0.11234      0.00000     0.38607    0.00159     0.38766
      H   39    0.09997      0.00000     0.39881    0.00122     0.40003
      H   40    0.09535      0.00000     0.40336    0.00129     0.40465
 =======================================================================
   * Total *    0.00000     16.99305    46.81316    0.19379    64.00000

 Normal termination of Gaussian 16 at Sun Dec 13 17:41:39 2020.
