 Gaussian 16, Revision A.03,

 -----------------------------------------------------------
 # opt freq B3LYP/6-31G(d) empiricaldispersion=gd3bj scf=xqc
 -----------------------------------------------------------

 -------------------------------
 CID_20477555_JID_10573_neutraal
 -------------------------------
 Symbolic Z-matrix:
 Charge =  0 Multiplicity = 1

 SCF Done:  E(RB3LYP) =  -990.940648279     A.U. after   14 cycles
 SCF Done:  E(RB3LYP) =  -990.955394985     A.U. after   13 cycles
 SCF Done:  E(RB3LYP) =  -990.956332122     A.U. after   12 cycles
 SCF Done:  E(RB3LYP) =  -990.956196650     A.U. after   12 cycles
 SCF Done:  E(RB3LYP) =  -990.956586551     A.U. after   12 cycles
 SCF Done:  E(RB3LYP) =  -990.956604129     A.U. after   10 cycles
 SCF Done:  E(RB3LYP) =  -990.956619883     A.U. after   10 cycles
 SCF Done:  E(RB3LYP) =  -990.956628316     A.U. after   11 cycles
 SCF Done:  E(RB3LYP) =  -990.956631710     A.U. after   10 cycles
 SCF Done:  E(RB3LYP) =  -990.956638225     A.U. after   11 cycles
 SCF Done:  E(RB3LYP) =  -990.956647452     A.U. after    8 cycles
 SCF Done:  E(RB3LYP) =  -990.956647519     A.U. after    8 cycles
 SCF Done:  E(RB3LYP) =  -990.956647540     A.U. after    7 cycles
 SCF Done:  E(RB3LYP) =  -990.956647570     A.U. after    7 cycles
 SCF Done:  E(RB3LYP) =  -990.956647592     A.U. after    7 cycles
 Optimization completed.
    -- Stationary point found.
 Normal termination of Gaussian 16 at Mon Dec 14 13:55:12 2020.

 --------------------------------------------------------------------
 #N Geom=AllCheck Guess=TCheck SCRF=Check GenChk RB3LYP/6-31G(d) Freq
 --------------------------------------------------------------------

 Structure from the checkpoint file:  "JID_10573.chk"
 -------------------------------
 CID_20477555_JID_10573_neutraal
 -------------------------------
 Charge =  0 Multiplicity = 1

 SCF Done:  E(RB3LYP) =  -990.956647592     A.U. after    1 cycles

  Exact polarizability: 216.972 -11.020 134.799   8.905  -4.312  98.211
 Approx polarizability: 286.811 -22.161 240.184  16.691 -11.686 160.705

                      1                      2                      3
                      A                      A                      A
 Frequencies --     10.0078                20.8716                32.3052
 Red. masses --     10.4063                 6.4660                 7.3711
 Frc consts  --      0.0006                 0.0017                 0.0045
 IR Inten    --      0.1149                 0.9211                 1.6004

                      4                      5                      6
                      A                      A                      A
 Frequencies --     44.5233                76.5960               109.5383
 Red. masses --      5.0007                 4.8163                 4.5988
 Frc consts  --      0.0058                 0.0166                 0.0325
 IR Inten    --      2.2224                 4.3076                 1.8372

                      7                      8                      9
                      A                      A                      A
 Frequencies --    138.5185               139.0794               141.9731
 Red. masses --     14.2738                 6.5566                11.5950
 Frc consts  --      0.1614                 0.0747                 0.1377
 IR Inten    --      1.9129                 4.5479                 4.8652

                     10                     11                     12
                      A                      A                      A
 Frequencies --    168.1915               229.0319               299.5296
 Red. masses --      4.7588                 6.1053                 5.1254
 Frc consts  --      0.0793                 0.1887                 0.2709
 IR Inten    --      1.7843                 1.1708                 0.2685

                     13                     14                     15
                      A                      A                      A
 Frequencies --    329.9668               350.8008               412.8820
 Red. masses --      6.3385                 6.8518                 5.0538
 Frc consts  --      0.4066                 0.4968                 0.5076
 IR Inten    --      3.1670                12.1151                 7.4270

                     16                     17                     18
                      A                      A                      A
 Frequencies --    416.8567               430.4954               466.3567
 Red. masses --      5.1686                 5.3973                 4.6844
 Frc consts  --      0.5292                 0.5893                 0.6003
 IR Inten    --      7.3236                 3.5519                 3.6036

                     19                     20                     21
                      A                      A                      A
 Frequencies --    494.2847               534.8721               548.4297
 Red. masses --      3.4393                 3.1438                 3.1535
 Frc consts  --      0.4951                 0.5299                 0.5588
 IR Inten    --      7.7889                23.7526                 0.3805

                     22                     23                     24
                      A                      A                      A
 Frequencies --    556.2880               615.8894               628.0673
 Red. masses --      3.3674                 4.2497                 4.5391
 Frc consts  --      0.6140                 0.9498                 1.0550
 IR Inten    --      2.9309                 0.6076                 1.8040

                     25                     26                     27
                      A                      A                      A
 Frequencies --    632.4190               633.8433               650.8582
 Red. masses --      9.7823                10.3131                 6.4650
 Frc consts  --      2.3052                 2.4412                 1.6136
 IR Inten    --      1.1364                 2.9448                 5.6213

                     28                     29                     30
                      A                      A                      A
 Frequencies --    666.0187               717.5181               732.3578
 Red. masses --      6.3068                 5.9559                 4.5128
 Frc consts  --      1.6483                 1.8066                 1.4261
 IR Inten    --      7.0839                60.6671                14.3803

                     31                     32                     33
                      A                      A                      A
 Frequencies --    742.2234               798.9819               809.1413
 Red. masses --      4.9555                 2.9980                 3.3670
 Frc consts  --      1.6084                 1.1276                 1.2988
 IR Inten    --     12.6857                 2.4832                11.5347

                     34                     35                     36
                      A                      A                      A
 Frequencies --    852.5330               857.5348               865.7154
 Red. masses --      1.5364                 2.3256                 2.3517
 Frc consts  --      0.6579                 1.0076                 1.0385
 IR Inten    --     12.1262                 6.4477                10.7933

                     37                     38                     39
                      A                      A                      A
 Frequencies --    874.2667               943.2109               947.5386
 Red. masses --      5.4811                 4.9730                 5.6790
 Frc consts  --      2.4683                 2.6066                 3.0041
 IR Inten    --      1.6923               172.0243               125.6172

                     40                     41                     42
                      A                      A                      A
 Frequencies --    959.5179               976.8640               981.5964
 Red. masses --      1.4444                 1.9372                 1.8931
 Frc consts  --      0.7835                 1.0892                 1.0747
 IR Inten    --      5.7207                34.7487                 5.6860

                     43                     44                     45
                      A                      A                      A
 Frequencies --    998.3072              1045.7071              1062.5185
 Red. masses --      1.8432                 3.1115                 3.1953
 Frc consts  --      1.0823                 2.0047                 2.1254
 IR Inten    --     18.5382                 7.0499                74.5503

                     46                     47                     48
                      A                      A                      A
 Frequencies --   1065.4549              1082.8163              1094.6466
 Red. masses --      2.9246                 4.1423                 4.0349
 Frc consts  --      1.9561                 2.8616                 2.8486
 IR Inten    --    164.7790               169.7590               184.3552

                     49                     50                     51
                      A                      A                      A
 Frequencies --   1159.8528              1184.5396              1190.6270
 Red. masses --      1.4053                 1.4579                 1.5195
 Frc consts  --      1.1138                 1.2052                 1.2692
 IR Inten    --      2.8594                13.9392                37.0362

                     52                     53                     54
                      A                      A                      A
 Frequencies --   1229.4982              1236.5482              1241.6398
 Red. masses --      1.5071                 1.8665                 1.4889
 Frc consts  --      1.3423                 1.6815                 1.3524
 IR Inten    --      2.8297                10.9815                14.4092

                     55                     56                     57
                      A                      A                      A
 Frequencies --   1245.2097              1253.4753              1275.2547
 Red. masses --      5.2669                 4.3805                 1.4492
 Frc consts  --      4.8116                 4.0552                 1.3886
 IR Inten    --    234.1393               191.6132                 3.8009

                     58                     59                     60
                      A                      A                      A
 Frequencies --   1279.9180              1300.5436              1306.0558
 Red. masses --      1.6598                 1.3932                 1.3918
 Frc consts  --      1.6020                 1.3884                 1.3987
 IR Inten    --      7.9900                16.2059                 8.5182

                     61                     62                     63
                      A                      A                      A
 Frequencies --   1335.8785              1353.1775              1359.1930
 Red. masses --      2.3863                 2.0193                 2.0876
 Frc consts  --      2.5091                 2.1785                 2.2722
 IR Inten    --      3.2899                 2.1303                 0.7985

                     64                     65                     66
                      A                      A                      A
 Frequencies --   1389.9002              1467.9743              1492.3664
 Red. masses --      1.7989                 2.4883                 1.1062
 Frc consts  --      2.0475                 3.1593                 1.4515
 IR Inten    --      3.2599                10.3336                 8.6429

                     67                     68                     69
                      A                      A                      A
 Frequencies --   1495.2449              1569.9562              1633.2870
 Red. masses --      1.0879                 2.4238                 6.2618
 Frc consts  --      1.4331                 3.5198                 9.8418
 IR Inten    --      9.8902                31.4105                 0.1185

                     70                     71                     72
                      A                      A                      A
 Frequencies --   1679.7517              1878.2671              1884.3252
 Red. masses --      5.7196                13.0578                13.1527
 Frc consts  --      9.5084                27.1416                27.5154
 IR Inten    --      1.3427               561.4709               529.6136

                     73                     74                     75
                      A                      A                      A
 Frequencies --   1950.6008              1954.0337              3013.8741
 Red. masses --     12.8908                12.9413                 1.0818
 Frc consts  --     28.8980                29.1133                 5.7894
 IR Inten    --    217.2195                99.7756                 6.1018

                     76                     77                     78
                      A                      A                      A
 Frequencies --   3059.6552              3078.8894              3085.1532
 Red. masses --      1.0834                 1.0669                 1.0662
 Frc consts  --      5.9758                 5.9590                 5.9794
 IR Inten    --      6.1300                 2.5898                 3.0819

                     79                     80                     81
                      A                      A                      A
 Frequencies --   3148.3560              3151.4373              3182.5626
 Red. masses --      1.0989                 1.0980                 1.0902
 Frc consts  --      6.4177                 6.4249                 6.5060
 IR Inten    --      3.2209                 1.8966                13.1100

                     82                     83                     84
                      A                      A                      A
 Frequencies --   3186.6650              3208.5000              3249.4472
 Red. masses --      1.0883                 1.0929                 1.0920
 Frc consts  --      6.5111                 6.6290                 6.7936
 IR Inten    --     11.6511                12.7687                 2.2979

 - Thermochemistry -
 -------------------
 Temperature   298.150 Kelvin.  Pressure   1.00000 Atm.
 Atom     1 has atomic number  6 and mass  12.00000

 Molecular mass:   274.04774 amu.
 Principal axes and moments of inertia in atomic units:
                           1         2         3
     Eigenvalues --  1652.63824********************
           X            1.00000  -0.00129   0.00141
           Y            0.00130   0.99998  -0.00537
           Z           -0.00141   0.00537   0.99998
 This molecule is an asymmetric top.
 Rotational symmetry number  1.
 Warning -- assumption of classical behavior for rotation
           may cause significant error
 Rotational temperatures (Kelvin)      0.05241     0.00612     0.00597
 Rotational constants (GHZ):           1.09204     0.12756     0.12436
 Zero-point vibrational energy     579582.4 (Joules/Mol)
                                  138.52351 (Kcal/Mol)
 Warning -- explicit consideration of  23 degrees of freedom as
           vibrations may cause significant error
 Vibrational temperatures:     14.40    30.03    46.48    64.06   110.20
          (Kelvin)            157.60   199.30   200.10   204.27   241.99
                              329.53   430.96   474.75   504.72   594.05
                              599.76   619.39   670.98   711.17   769.56
                              789.07   800.37   886.13   903.65   909.91
                              911.96   936.44   958.25  1032.35  1053.70
                             1067.89  1149.56  1164.17  1226.60  1233.80
                             1245.57  1257.87  1357.07  1363.30  1380.53
                             1405.49  1412.30  1436.34  1504.54  1528.73
                             1532.95  1557.93  1574.95  1668.77  1704.29
                             1713.05  1768.97  1779.12  1786.44  1791.58
                             1803.47  1834.81  1841.52  1871.19  1879.12
                             1922.03  1946.92  1955.58  1999.76  2112.09
                             2147.18  2151.32  2258.82  2349.94  2416.79
                             2702.41  2711.12  2806.48  2811.42  4336.29
                             4402.16  4429.84  4438.85  4529.78  4534.22
                             4579.00  4584.90  4616.32  4675.23

 Zero-point correction=                           0.220751 (Hartree/Particle)
 Thermal correction to Energy=                    0.236998
 Thermal correction to Enthalpy=                  0.237942
 Thermal correction to Gibbs Free Energy=         0.172572
 Sum of electronic and zero-point Energies=           -990.735896
 Sum of electronic and thermal Energies=              -990.719650
 Sum of electronic and thermal Enthalpies=            -990.718705
 Sum of electronic and thermal Free Energies=         -990.784075

                     E (Thermal)             CV                S
                      KCal/Mol        Cal/Mol-Kelvin    Cal/Mol-Kelvin
 Total                  148.718             61.052            137.582
 Electronic               0.000              0.000              0.000
 Translational            0.889              2.981             42.723
 Rotational               0.889              2.981             34.183
 Vibrational            146.941             55.090             60.676
 Vibration     1          0.593              1.987              8.009
 Vibration     2          0.593              1.986              6.549
 Vibration     3          0.594              1.983              5.683
 Vibration     4          0.595              1.980              5.047
 Vibration     5          0.599              1.965              3.976
 Vibration     6          0.606              1.942              3.277
 Vibration     7          0.614              1.915              2.824
 Vibration     8          0.615              1.914              2.817
 Vibration     9          0.615              1.911              2.777
 Vibration    10          0.625              1.882              2.456
 Vibration    11          0.652              1.797              1.887
 Vibration    12          0.692              1.675              1.420
 Vibration    13          0.713              1.616              1.260
 Vibration    14          0.728              1.574              1.163
 Vibration    15          0.777              1.442              0.916
 Vibration    16          0.780              1.434              0.903
 Vibration    17          0.792              1.404              0.857
 Vibration    18          0.824              1.325              0.748
 Vibration    19          0.850              1.263              0.673
 Vibration    20          0.890              1.173              0.576
 Vibration    21          0.904              1.143              0.547
 Vibration    22          0.912              1.126              0.531
 Vibration    23          0.975              0.998              0.423

                           ! Non-Optimized Parameters !
 Normal termination of Gaussian 16 at Mon Dec 14 14:08:25 2020.

 ----------------------------------------------------------------------
 # B3LYP/6-311++G(d,p) empiricaldispersion=gd3bj scf=xqc pop=npa geom=c
 heck
 ----------------------------------------------------------------------

 ---------------------------------------
 CID_20477555_JID_10573_Energie_neutraal
 ---------------------------------------
 Structure from the checkpoint file:  "JID_10573.chk"
 Charge =  0 Multiplicity = 1

 SCF Done:  E(RB3LYP) =  -991.235317489     A.U. after   15 cycles
 Normal termination of Gaussian 16 at Mon Dec 14 14:12:52 2020.

 ----------------------------------------------------------------------
 # B3LYP/6-311++G(d,p) empiricaldispersion=gd3bj scf=xqc pop=npa geom=c
 heck
 ----------------------------------------------------------------------

 -------------------------------------
 CID_20477555_JID_10573_Energie_kation
 -------------------------------------
 Structure from the checkpoint file:  "JID_10573.chk"
 Charge =  1 Multiplicity = 2

 SCF Done:  E(UB3LYP) =  -990.893436197     A.U. after   29 cycles
 Normal termination of Gaussian 16 at Mon Dec 14 14:25:37 2020.
 Gaussian 16:  ES64L-G16RevA.03 25-Dec-2016

 ----------------------------------------------------------------------
 # B3LYP/6-311++G(d,p) empiricaldispersion=gd3bj scf=xqc pop=npa geom=c
 heck
 ----------------------------------------------------------------------

 ------------------------------------
 CID_20477555_JID_10573_Energie_anion
 ------------------------------------
 Structure from the checkpoint file:  "JID_10573.chk"
 Charge = -1 Multiplicity = 2

                         Standard orientation:
 ---------------------------------------------------------------------
 Center     Atomic      Atomic             Coordinates (Angstroms)
 Number     Number       Type             X           Y           Z
 ---------------------------------------------------------------------
      1          6           0        3.777896   -1.142150   -0.099867
      2          6           0        2.855279   -0.075794   -0.705910
      3          6           0        3.479758    1.232801   -0.204919
      4          8           0        3.043232    2.346971   -0.231714
      5          8           0        4.756973    0.977426    0.267576
      6          6           0        5.036229   -0.386363    0.274502
      7          8           0        6.116436   -0.804586    0.565858
      8          6           0        1.365196   -0.239946   -0.453917
      9          6           0        0.836904   -1.508325   -0.194037
     10          6           0       -0.532408   -1.687376    0.000270
     11          6           0       -1.408041   -0.604256   -0.063377
     12          6           0       -0.880785    0.664498   -0.330415
     13          6           0        0.483240    0.847691   -0.530425
     14          6           0       -2.893603   -0.798922    0.123509
     15          6           0       -3.779134   -0.489188   -1.094480
     16          6           0       -4.993161    0.213909   -0.516025
     17          8           0       -6.035400    0.477624   -1.037883
     18          8           0       -4.723823    0.572840    0.801386
     19          6           0       -3.486705    0.096737    1.217193
     20          8           0       -3.033996    0.369883    2.288315
     21          1           0        3.355953   -1.554163    0.824386
     22          1           0        4.020807   -1.978035   -0.758153
     23          1           0        3.018890   -0.047326   -1.794705
     24          1           0        1.487845   -2.375624   -0.147344
     25          1           0       -0.917874   -2.682474    0.206057
     26          1           0       -1.539340    1.528865   -0.371155
     27          1           0        0.870933    1.839835   -0.723542
     28          1           0       -3.078212   -1.827189    0.459277
     29          1           0       -4.087405   -1.365181   -1.668695
     30          1           0       -3.282977    0.200134   -1.787052
 ---------------------------------------------------------------------

 SCF Done:  E(UB3LYP) =  -991.251137180     A.U. after   33 cycles
 SCF Done:  E(UB3LYP) =  -991.251137180     a.u. after    1 cycles

 The electronic state is 2-A.
 Alpha  occ. eigenvalues --  -19.09861 -19.09332 -19.03574 -19.03440 -19.02505
 Alpha  occ. eigenvalues --  -19.01927 -10.22023 -10.22006 -10.20748 -10.20285
 Alpha  occ. eigenvalues --  -10.11933 -10.11519 -10.11349 -10.10852 -10.09000
 Alpha  occ. eigenvalues --  -10.08842 -10.08290 -10.08106 -10.08037 -10.07517
 Alpha  occ. eigenvalues --   -1.04429  -1.04095  -0.97914  -0.97620  -0.94001
 Alpha  occ. eigenvalues --   -0.93577  -0.77847  -0.74669  -0.72029  -0.66182
 Alpha  occ. eigenvalues --   -0.65503  -0.61869  -0.59699  -0.55778  -0.54294
 Alpha  occ. eigenvalues --   -0.52289  -0.50364  -0.47079  -0.46650  -0.43575
 Alpha  occ. eigenvalues --   -0.42742  -0.40395  -0.39567  -0.38960  -0.38264
 Alpha  occ. eigenvalues --   -0.37790  -0.36651  -0.36123  -0.34994  -0.34859
 Alpha  occ. eigenvalues --   -0.34372  -0.34138  -0.33459  -0.33200  -0.32554
 Alpha  occ. eigenvalues --   -0.31720  -0.30359  -0.29666  -0.28254  -0.27505
 Alpha  occ. eigenvalues --   -0.26384  -0.25563  -0.25243  -0.24050  -0.23612
 Alpha  occ. eigenvalues --   -0.21662  -0.20931  -0.18698  -0.18330  -0.16382
 Alpha  occ. eigenvalues --   -0.15317   0.02824
 Alpha virt. eigenvalues --    0.04904   0.05917   0.06235   0.07248   0.07546
 Alpha virt. eigenvalues --    0.07902   0.08310   0.09049   0.09349   0.09691
 Alpha virt. eigenvalues --    0.09821   0.10544   0.11981   0.12253   0.12603

  Beta  occ. eigenvalues --  -19.09909 -19.09366 -19.03467 -19.03360 -19.02366
  Beta  occ. eigenvalues --  -19.01785 -10.21944 -10.21872 -10.20558 -10.20078
  Beta  occ. eigenvalues --  -10.11950 -10.11523 -10.11370 -10.10824 -10.08885
  Beta  occ. eigenvalues --  -10.08719 -10.08289 -10.08078 -10.08026 -10.07518
  Beta  occ. eigenvalues --   -1.04320  -1.03992  -0.97677  -0.97415  -0.93847
  Beta  occ. eigenvalues --   -0.93422  -0.77711  -0.74550  -0.71955  -0.66032
  Beta  occ. eigenvalues --   -0.65410  -0.61637  -0.59406  -0.55613  -0.54198
  Beta  occ. eigenvalues --   -0.52223  -0.50161  -0.46948  -0.46507  -0.43338
  Beta  occ. eigenvalues --   -0.42438  -0.40243  -0.39401  -0.38766  -0.38047
  Beta  occ. eigenvalues --   -0.37592  -0.36463  -0.36011  -0.34796  -0.34631
  Beta  occ. eigenvalues --   -0.34109  -0.33730  -0.33172  -0.33144  -0.32371
  Beta  occ. eigenvalues --   -0.31621  -0.30234  -0.29628  -0.27930  -0.27179
  Beta  occ. eigenvalues --   -0.26113  -0.25445  -0.25140  -0.23634  -0.23193
  Beta  occ. eigenvalues --   -0.21555  -0.20858  -0.18587  -0.18194  -0.16190
  Beta  occ. eigenvalues --   -0.14769
  Beta virt. eigenvalues --    0.05725   0.06396   0.06597   0.07012   0.07687
  Beta virt. eigenvalues --    0.07970   0.08249   0.08999   0.09509   0.09599
  Beta virt. eigenvalues --    0.09753   0.10511   0.10616   0.12040   0.12261

 Mulliken charges and spin densities:
               1          2
     1  C    0.292802  -0.857732
     2  C    0.096957   0.284316
     3  C    0.088401  -0.250711
     4  O   -0.320548   0.063900
     5  O   -0.089824  -0.002702
     6  C    0.067556   0.065488
     7  O   -0.316038   0.023291
     8  C    1.737853  -0.771365
     9  C   -0.693563   0.056689
    10  C   -0.690312   0.109693
    11  C    0.737878  -0.071633
    12  C   -0.824090   0.223137
    13  C   -0.290682   0.321770
    14  C   -0.084456   0.269384
    15  C   -0.270501  -0.222976
    16  C    0.013154   0.089942
    17  O   -0.323668   0.036657
    18  O   -0.041446  -0.018362
    19  C   -0.246514   0.000230
    20  O   -0.288013   0.049468
    21  H    0.132530   0.076447
    22  H    0.037492   0.174571
    23  H   -0.339237   0.624631
    24  H   -0.080491   0.211242
    25  H   -0.012800   0.163513
    26  H    0.210843  -0.012937
    27  H    0.149043   0.055038
    28  H    0.067028   0.175118
    29  H    0.195659   0.007498
    30  H    0.084989   0.126394
 Sum of Mulliken charges =  -1.00000   1.00000

 Dipole moment (field-independent basis, Debye):
    X=             -2.0427    Y=             -3.5291    Z=             -1.2517  Tot=              4.2654
 Quadrupole moment (field-independent basis, Debye-Ang):
   XX=           -240.1638   YY=           -133.3303   ZZ=           -139.4122
   XY=              4.4021   XZ=              3.1445   YZ=             -3.1729

 Summary of Natural Population Analysis:

                                       Natural Population
                Natural  -----------------------------------------------
    Atom  No    Charge         Core      Valence    Rydberg      Total
 -----------------------------------------------------------------------
      C    1   -0.24572      0.99959     2.23687    0.00926     3.24572
      C    2   -0.16683      0.99954     2.15671    0.01058     3.16683
      C    3    0.43806      0.99967     1.53567    0.02659     2.56194
      O    4   -0.27077      0.99986     3.26483    0.00608     4.27077
      O    5   -0.27967      0.99985     3.27297    0.00685     4.27967
      C    6    0.42024      0.99969     1.55403    0.02605     2.57976
      O    7   -0.27470      0.99986     3.26874    0.00610     4.27470
      C    8    0.00058      0.99950     1.98960    0.01032     2.99942
      C    9   -0.09687      0.99952     2.08874    0.00860     3.09687
      C   10   -0.09571      0.99952     2.08645    0.00974     3.09571
      C   11   -0.00304      0.99949     1.99204    0.01151     3.00304
      C   12   -0.09308      0.99952     2.08484    0.00872     3.09308
      C   13   -0.09329      0.99952     2.08435    0.00941     3.09329
      C   14   -0.16608      0.99954     2.15559    0.01095     3.16608
      C   15   -0.24167      0.99959     2.23472    0.00737     3.24167
      C   16    0.42126      0.99970     1.55324    0.02580     2.57874
      O   17   -0.27323      0.99986     3.26713    0.00625     4.27323
      O   18   -0.28288      0.99985     3.27563    0.00740     4.28288
      C   19    0.43104      0.99967     1.54284    0.02645     2.56896
      O   20   -0.26189      0.99986     3.25609    0.00595     4.26189
      H   21    0.12011      0.00000     0.37870    0.00119     0.37989
      H   22    0.11726      0.00000     0.38162    0.00112     0.38274
      H   23    0.13178      0.00000     0.36238    0.00584     0.36822
      H   24    0.09821      0.00000     0.40049    0.00130     0.40179
      H   25    0.09760      0.00000     0.40144    0.00096     0.40240
      H   26    0.09800      0.00000     0.40073    0.00128     0.40200
      H   27    0.11626      0.00000     0.38274    0.00101     0.38374
      H   28    0.11845      0.00000     0.37969    0.00187     0.38155
      H   29    0.11487      0.00000     0.38396    0.00118     0.38513
      H   30    0.12173      0.00000     0.37690    0.00137     0.37827
 =======================================================================
   * Total *    0.00000     19.99319    50.74972    0.25709    71.00000

 Normal termination of Gaussian 16 at Mon Dec 14 14:40:39 2020.
