 Gaussian 16, Revision A.03,

 -----------------------------------------------------------
 # opt freq B3LYP/6-31G(d) empiricaldispersion=gd3bj scf=xqc
 -----------------------------------------------------------

 -------------------------------
 CID_142317717_JID_2875_neutraal
 -------------------------------
 Symbolic Z-matrix:
 Charge =  0 Multiplicity = 1

 SCF Done:  E(RB3LYP) =  -486.541177152     A.U. after   14 cycles
 SCF Done:  E(RB3LYP) =  -486.545063786     A.U. after   12 cycles
 SCF Done:  E(RB3LYP) =  -486.541457876     A.U. after   14 cycles
 SCF Done:  E(RB3LYP) =  -486.545787157     A.U. after   12 cycles
 SCF Done:  E(RB3LYP) =  -486.545308792     A.U. after   12 cycles
 SCF Done:  E(RB3LYP) =  -486.546031968     A.U. after   12 cycles
 SCF Done:  E(RB3LYP) =  -486.546136230     A.U. after   10 cycles
 SCF Done:  E(RB3LYP) =  -486.546242812     A.U. after   11 cycles
 SCF Done:  E(RB3LYP) =  -486.546279624     A.U. after    9 cycles
 SCF Done:  E(RB3LYP) =  -486.546336910     A.U. after   10 cycles
 SCF Done:  E(RB3LYP) =  -486.546694872     A.U. after   13 cycles
 SCF Done:  E(RB3LYP) =  -486.546236454     A.U. after   12 cycles
 SCF Done:  E(RB3LYP) =  -486.546666751     A.U. after   13 cycles
 SCF Done:  E(RB3LYP) =  -486.546952831     A.U. after   12 cycles
 SCF Done:  E(RB3LYP) =  -486.547038727     A.U. after   10 cycles
 SCF Done:  E(RB3LYP) =  -486.547038429     A.U. after    6 cycles
 Optimization completed.
    -- Stationary point found.
 Normal termination of Gaussian 16 at Wed Dec  9 18:36:04 2020.

 --------------------------------------------------------------------
 #N Geom=AllCheck Guess=TCheck SCRF=Check GenChk RB3LYP/6-31G(d) Freq
 --------------------------------------------------------------------

 Structure from the checkpoint file:  "JID_2875.chk"
 -------------------------------
 CID_142317717_JID_2875_neutraal
 -------------------------------
 Charge =  0 Multiplicity = 1

 SCF Done:  E(RB3LYP) =  -486.547038429     A.U. after    1 cycles

  Exact polarizability: 144.828  -6.906 110.014  -8.263  -3.293 107.525
 Approx polarizability: 197.753  -8.554 144.458 -16.480  -0.175 154.374

                      1                      2                      3
                      A                      A                      A
 Frequencies --     15.5229                26.3157                37.1151
 Red. masses --      1.0147                 3.1736                 3.0320
 Frc consts  --      0.0001                 0.0013                 0.0025
 IR Inten    --      0.0057                 0.3013                 0.1505

                      4                      5                      6
                      A                      A                      A
 Frequencies --     41.9271                52.6727                74.1020
 Red. masses --      3.3290                 1.8764                 2.9728
 Frc consts  --      0.0034                 0.0031                 0.0096
 IR Inten    --      0.1115                 0.0573                 0.0219

                      7                      8                      9
                      A                      A                      A
 Frequencies --     87.4865                97.4091               101.5495
 Red. masses --      2.5832                 1.2377                 2.2374
 Frc consts  --      0.0116                 0.0069                 0.0136
 IR Inten    --      0.3236                 0.0285                 0.3052

                     10                     11                     12
                      A                      A                      A
 Frequencies --    107.3153               120.0232               166.9298
 Red. masses --      1.9447                 2.8180                 2.8552
 Frc consts  --      0.0132                 0.0239                 0.0469
 IR Inten    --      0.2241                 1.6107                 3.0692

                     13                     14                     15
                      A                      A                      A
 Frequencies --    244.3875               281.3137               303.7255
 Red. masses --      1.1203                 3.0095                 3.1652
 Frc consts  --      0.0394                 0.1403                 0.1720
 IR Inten    --      1.0553                 2.7651                 3.8888

                     16                     17                     18
                      A                      A                      A
 Frequencies --    321.2995               348.1689               371.6322
 Red. masses --      1.0131                 3.7039                 2.4350
 Frc consts  --      0.0616                 0.2645                 0.1981
 IR Inten    --      0.4370                 0.9978                 0.7131

                     19                     20                     21
                      A                      A                      A
 Frequencies --    423.5044               489.0203               546.6342
 Red. masses --      2.6218                 4.2904                 4.6735
 Frc consts  --      0.2771                 0.6045                 0.8228
 IR Inten    --      0.8756                 1.1472                 2.5263

                     22                     23                     24
                      A                      A                      A
 Frequencies --    644.7994               659.7282               757.1775
 Red. masses --      2.4412                 2.0628                 2.7416
 Frc consts  --      0.5980                 0.5290                 0.9261
 IR Inten    --      0.8149                 4.2627                 3.6976

                     25                     26                     27
                      A                      A                      A
 Frequencies --    785.2076               834.6715               837.0055
 Red. masses --      2.0533                 1.0563                 1.0568
 Frc consts  --      0.7459                 0.4336                 0.4362
 IR Inten    --     11.4690                 8.9285                 7.3798

                     28                     29                     30
                      A                      A                      A
 Frequencies --    845.8989               860.5217               901.2408
 Red. masses --      1.9605                 1.7052                 3.3746
 Frc consts  --      0.8265                 0.7440                 1.6149
 IR Inten    --      0.7871                 1.3529                 6.9951

                     31                     32                     33
                      A                      A                      A
 Frequencies --    925.2901               953.2361               977.7817
 Red. masses --      2.4769                 1.8837                 2.3546
 Frc consts  --      1.2494                 1.0085                 1.3263
 IR Inten    --      0.1384                18.0733                 5.4656

                     34                     35                     36
                      A                      A                      A
 Frequencies --   1013.1439              1021.1259              1057.4523
 Red. masses --      3.2589                 2.2943                 1.7803
 Frc consts  --      1.9709                 1.4095                 1.1729
 IR Inten    --      0.5256                16.6589                 6.2991

                     37                     38                     39
                      A                      A                      A
 Frequencies --   1070.5714              1071.0691              1091.1219
 Red. masses --      1.4189                 1.4103                 1.9196
 Frc consts  --      0.9582                 0.9532                 1.3465
 IR Inten    --      5.2499                 2.8027                24.2048

                     40                     41                     42
                      A                      A                      A
 Frequencies --   1103.7607              1115.4782              1160.5752
 Red. masses --      2.3385                 1.9937                 3.4009
 Frc consts  --      1.6786                 1.4616                 2.6989
 IR Inten    --     11.8423                 5.7324                14.5016

                     43                     44                     45
                      A                      A                      A
 Frequencies --   1208.6840              1220.4925              1236.5881
 Red. masses --      2.1575                 1.3660                 1.4626
 Frc consts  --      1.8571                 1.1989                 1.3177
 IR Inten    --      6.1362                 6.7474                 0.0575

                     46                     47                     48
                      A                      A                      A
 Frequencies --   1238.0972              1251.1332              1268.3225
 Red. masses --      1.4606                 1.1984                 1.1494
 Frc consts  --      1.3192                 1.1052                 1.0893
 IR Inten    --      0.0769                 2.2056                 1.6697

                     49                     50                     51
                      A                      A                      A
 Frequencies --   1298.0208              1327.9521              1355.7222
 Red. masses --      1.4992                 1.3463                 1.3146
 Frc consts  --      1.4882                 1.3988                 1.4236
 IR Inten    --      5.5989                 0.1871                16.6432

                     52                     53                     54
                      A                      A                      A
 Frequencies --   1360.4935              1370.8639              1381.9530
 Red. masses --      1.2697                 1.2756                 1.4421
 Frc consts  --      1.3846                 1.4124                 1.6227
 IR Inten    --      9.8654                 1.6744                35.2471

                     55                     56                     57
                      A                      A                      A
 Frequencies --   1397.2285              1428.4125              1431.1642
 Red. masses --      1.4271                 1.1986                 1.2285
 Frc consts  --      1.6416                 1.4408                 1.4825
 IR Inten    --     13.0116                 1.3625                 6.4518

                     58                     59                     60
                      A                      A                      A
 Frequencies --   1443.5044              1451.3836              1507.9545
 Red. masses --      1.2400                 1.2553                 1.0401
 Frc consts  --      1.5223                 1.5580                 1.3935
 IR Inten    --      3.0461                 2.8102                 5.1828

                     61                     62                     63
                      A                      A                      A
 Frequencies --   1508.5250              1514.2280              1519.2696
 Red. masses --      1.0406                 1.0714                 1.0685
 Frc consts  --      1.3952                 1.4474                 1.4531
 IR Inten    --      5.9988                 0.2968                 0.6092

                     64                     65                     66
                      A                      A                      A
 Frequencies --   1524.1077              1525.8088              1528.6088
 Red. masses --      1.0480                 1.0743                 1.0507
 Frc consts  --      1.4344                 1.4736                 1.4465
 IR Inten    --      5.9067                 2.2783                 1.6824

                     67                     68                     69
                      A                      A                      A
 Frequencies --   1530.3990              1533.4433              1537.7758
 Red. masses --      1.0322                 1.0616                 1.0510
 Frc consts  --      1.4244                 1.4707                 1.4643
 IR Inten    --      0.1839                 0.5747                10.1462

                     70                     71                     72
                      A                      A                      A
 Frequencies --   1539.8664              1548.7447              2372.2512
 Red. masses --      1.0535                 1.0985                11.8571
 Frc consts  --      1.4718                 1.5524                39.3141
 IR Inten    --      8.3488                 7.0477                 4.4600

                     73                     74                     75
                      A                      A                      A
 Frequencies --   2942.8581              3039.6529              3044.5140
 Red. masses --      1.0797                 1.0345                 1.0732
 Frc consts  --      5.5092                 5.6314                 5.8611
 IR Inten    --     35.0823                32.9923                32.8627

                     76                     77                     78
                      A                      A                      A
 Frequencies --   3048.7574              3049.7924              3053.6377
 Red. masses --      1.0372                 1.0360                 1.0708
 Frc consts  --      5.6804                 5.6772                 5.8832
 IR Inten    --     17.5374                36.1162                54.6729

                     79                     80                     81
                      A                      A                      A
 Frequencies --   3064.3049              3065.0054              3079.4344
 Red. masses --      1.0506                 1.0457                 1.0624
 Frc consts  --      5.8125                 5.7876                 5.9359
 IR Inten    --     34.7659                14.3422                38.3614

                     82                     83                     84
                      A                      A                      A
 Frequencies --   3096.2800              3100.7217              3100.7619
 Red. masses --      1.1010                 1.1014                 1.1016
 Frc consts  --      6.2188                 6.2390                 6.2406
 IR Inten    --      9.8223                 9.2416                13.2390

                     85                     86                     87
                      A                      A                      A
 Frequencies --   3101.9988              3107.2974              3121.5941
 Red. masses --      1.1018                 1.1013                 1.1025
 Frc consts  --      6.2465                 6.2652                 6.3296
 IR Inten    --     11.9272                22.0175                56.8879

                     88                     89                     90
                      A                      A                      A
 Frequencies --   3126.2143              3128.7911              3134.3830
 Red. masses --      1.1013                 1.1017                 1.1023
 Frc consts  --      6.3415                 6.3546                 6.3806
 IR Inten    --     40.1984                64.6131                58.7594

                     91                     92                     93
                      A                      A                      A
 Frequencies --   3137.2195              3150.4112              3155.9965
 Red. masses --      1.0999                 1.1034                 1.0934
 Frc consts  --      6.3783                 6.4526                 6.4163
 IR Inten    --     23.6003                23.7742                14.8416

 - Thermochemistry -
 -------------------
 Temperature   298.150 Kelvin.  Pressure   1.00000 Atm.
 Atom     1 has atomic number  6 and mass  12.00000

 Molecular mass:   167.16740 amu.
 Principal axes and moments of inertia in atomic units:
                           1         2         3
     Eigenvalues --  1918.296402919.501183689.45500
           X            0.99978   0.01932  -0.00754
           Y           -0.01936   0.99980  -0.00531
           Z            0.00744   0.00546   0.99996
 This molecule is an asymmetric top.
 Rotational symmetry number  1.
 Warning -- assumption of classical behavior for rotation
           may cause significant error
 Rotational temperatures (Kelvin)      0.04515     0.02967     0.02348
 Rotational constants (GHZ):           0.94080     0.61817     0.48916
 Zero-point vibrational energy     790465.7 (Joules/Mol)
                                  188.92583 (Kcal/Mol)
 Warning -- explicit consideration of  21 degrees of freedom as
           vibrations may cause significant error
 Vibrational temperatures:     22.33    37.86    53.40    60.32    75.78
          (Kelvin)            106.62   125.87   140.15   146.11   154.40
                              172.69   240.17   351.62   404.75   436.99
                              462.28   500.94   534.70   609.33   703.59
                              786.48   927.72   949.20  1089.41  1129.74
                             1200.91  1204.26  1217.06  1238.10  1296.68
                             1331.29  1371.49  1406.81  1457.69  1469.17
                             1521.44  1540.31  1541.03  1569.88  1588.07
                             1604.92  1669.81  1739.03  1756.02  1779.17
                             1781.35  1800.10  1824.83  1867.56  1910.63
                             1950.58  1957.45  1972.37  1988.32  2010.30
                             2055.17  2059.13  2076.88  2088.22  2169.61
                             2170.43  2178.64  2185.89  2192.85  2195.30
                             2199.33  2201.90  2206.28  2212.52  2215.52
                             2228.30  3413.14  4234.12  4373.38  4380.38
                             4386.48  4387.97  4393.50  4408.85  4409.86
                             4430.62  4454.86  4461.25  4461.30  4463.08
                             4470.71  4491.28  4497.93  4501.63  4509.68
                             4513.76  4532.74  4540.78

 Zero-point correction=                           0.301072 (Hartree/Particle)
 Thermal correction to Energy=                    0.317822
 Thermal correction to Enthalpy=                  0.318766
 Thermal correction to Gibbs Free Energy=         0.252887
 Sum of electronic and zero-point Energies=           -486.245966
 Sum of electronic and thermal Energies=              -486.229216
 Sum of electronic and thermal Enthalpies=            -486.228272
 Sum of electronic and thermal Free Energies=         -486.294152

                     E (Thermal)             CV                S
                      KCal/Mol        Cal/Mol-Kelvin    Cal/Mol-Kelvin
 Total                  199.436             56.413            138.655
 Electronic               0.000              0.000              0.000
 Translational            0.889              2.981             41.250
 Rotational               0.889              2.981             31.403
 Vibrational            197.659             50.451             66.003
 Vibration     1          0.593              1.986              7.137
 Vibration     2          0.593              1.985              6.089
 Vibration     3          0.594              1.982              5.407
 Vibration     4          0.595              1.980              5.166
 Vibration     5          0.596              1.977              4.714
 Vibration     6          0.599              1.966              4.041
 Vibration     7          0.601              1.958              3.715
 Vibration     8          0.603              1.951              3.506
 Vibration     9          0.604              1.948              3.424
 Vibration    10          0.606              1.943              3.317
 Vibration    11          0.609              1.933              3.100
 Vibration    12          0.624              1.883              2.470
 Vibration    13          0.660              1.772              1.771
 Vibration    14          0.681              1.708              1.526
 Vibration    15          0.695              1.667              1.396
 Vibration    16          0.707              1.633              1.303
 Vibration    17          0.726              1.579              1.174
 Vibration    18          0.743              1.530              1.073
 Vibration    19          0.786              1.419              0.880
 Vibration    20          0.845              1.274              0.686
 Vibration    21          0.902              1.147              0.551

                           ! Non-Optimized Parameters !
 Normal termination of Gaussian 16 at Wed Dec  9 18:43:52 2020.

 ----------------------------------------------------------------------
 # B3LYP/6-311++G(d,p) empiricaldispersion=gd3bj scf=xqc pop=npa geom=c
 heck
 ----------------------------------------------------------------------

 ---------------------------------------
 CID_142317717_JID_2875_Energie_neutraal
 ---------------------------------------
 Structure from the checkpoint file:  "JID_2875.chk"
 Charge =  0 Multiplicity = 1

 SCF Done:  E(RB3LYP) =  -486.684098848     A.U. after   13 cycles
 Normal termination of Gaussian 16 at Wed Dec  9 18:46:47 2020.

 ----------------------------------------------------------------------
 # B3LYP/6-311++G(d,p) empiricaldispersion=gd3bj scf=xqc pop=npa geom=c
 heck
 ----------------------------------------------------------------------

 -------------------------------------
 CID_142317717_JID_2875_Energie_kation
 -------------------------------------
 Structure from the checkpoint file:  "JID_2875.chk"
 Charge =  1 Multiplicity = 2

 SCF Done:  E(UB3LYP) =  -486.394244950     A.U. after   20 cycles
 Normal termination of Gaussian 16 at Wed Dec  9 18:52:39 2020.
 Gaussian 16:  ES64L-G16RevA.03 25-Dec-2016

 ----------------------------------------------------------------------
 # B3LYP/6-311++G(d,p) empiricaldispersion=gd3bj scf=xqc pop=npa geom=c
 heck
 ----------------------------------------------------------------------

 ------------------------------------
 CID_142317717_JID_2875_Energie_anion
 ------------------------------------
 Structure from the checkpoint file:  "JID_2875.chk"
 Charge = -1 Multiplicity = 2

                         Standard orientation:
 ---------------------------------------------------------------------
 Center     Atomic      Atomic             Coordinates (Angstroms)
 Number     Number       Type             X           Y           Z
 ---------------------------------------------------------------------
      1          6           0        1.768469    1.930940    1.502110
      2          6           0        2.356408    2.307218    0.141161
      3          6           0        3.300815   -1.459183   -1.008511
      4          6           0        1.958834   -1.307863   -0.453901
      5          6           0        0.847016   -1.168775    0.000564
      6          6           0       -0.474243   -1.001991    0.614446
      7          6           0       -0.785830   -2.227010    1.492691
      8          7           0       -1.547818   -0.836076   -0.399283
      9          6           0       -1.213208    0.047648   -1.526204
     10          6           0       -1.427663    1.504191   -1.042333
     11          6           0       -2.467092    1.361656    0.099328
     12          6           0       -2.726828   -0.168770    0.179177
     13          1           0        2.192417    2.544061    2.305706
     14          1           0        1.967017    0.879773    1.734504
     15          1           0        0.681751    2.073526    1.518320
     16          1           0        2.107461    3.338910   -0.133696
     17          1           0        3.449482    2.223308    0.148692
     18          1           0        1.979201    1.646332   -0.645342
     19          1           0        3.276700   -1.466391   -2.104929
     20          1           0        3.952170   -0.634121   -0.696469
     21          1           0        3.765984   -2.396664   -0.681244
     22          1           0       -0.411413   -0.116215    1.273536
     23          1           0       -1.748778   -2.113050    1.999639
     24          1           0       -0.827086   -3.122539    0.867086
     25          1           0       -0.010097   -2.356160    2.253933
     26          1           0       -1.915310   -0.182359   -2.337865
     27          1           0       -0.205072   -0.153079   -1.889480
     28          1           0       -0.490102    1.924410   -0.666302
     29          1           0       -1.773607    2.156223   -1.850612
     30          1           0       -2.064164    1.740459    1.044706
     31          1           0       -3.391280    1.913895   -0.097786
     32          1           0       -2.923365   -0.521035    1.194267
     33          1           0       -3.597257   -0.435108   -0.432847
 ---------------------------------------------------------------------

 SCF Done:  E(UB3LYP) =  -486.668434195     A.U. after   30 cycles

 The electronic state is 2-A.
 Alpha  occ. eigenvalues --  -14.20460 -10.12203 -10.09092 -10.08520 -10.08412
 Alpha  occ. eigenvalues --  -10.06553 -10.06524 -10.06472 -10.06253 -10.05739
 Alpha  occ. eigenvalues --  -10.05585 -10.05509  -0.83575  -0.70420  -0.67136
 Alpha  occ. eigenvalues --   -0.65138  -0.63836  -0.62297  -0.59375  -0.54234
 Alpha  occ. eigenvalues --   -0.51462  -0.48136  -0.47476  -0.40744  -0.39725
 Alpha  occ. eigenvalues --   -0.37445  -0.35553  -0.34190  -0.33754  -0.33090
 Alpha  occ. eigenvalues --   -0.32915  -0.32409  -0.32293  -0.30054  -0.29334
 Alpha  occ. eigenvalues --   -0.27669  -0.26744  -0.26278  -0.25197  -0.24448
 Alpha  occ. eigenvalues --   -0.24312  -0.24118  -0.24109  -0.22160  -0.16270
 Alpha  occ. eigenvalues --   -0.15743  -0.12198   0.04469
 Alpha virt. eigenvalues --    0.06215   0.07228   0.07289   0.08747   0.09019
 Alpha virt. eigenvalues --    0.09146   0.09558   0.10303   0.10933   0.11436
 Alpha virt. eigenvalues --    0.11700   0.11938   0.12569   0.13133   0.13664

  Beta  occ. eigenvalues --  -14.20462 -10.12196 -10.09075 -10.08462 -10.08401
  Beta  occ. eigenvalues --  -10.06531 -10.06520 -10.06454 -10.06238 -10.05736
  Beta  occ. eigenvalues --  -10.05561 -10.05481  -0.83567  -0.70398  -0.67087
  Beta  occ. eigenvalues --   -0.65101  -0.63802  -0.62261  -0.59322  -0.54192
  Beta  occ. eigenvalues --   -0.51377  -0.48096  -0.47426  -0.40719  -0.39692
  Beta  occ. eigenvalues --   -0.37412  -0.35494  -0.34158  -0.33722  -0.33053
  Beta  occ. eigenvalues --   -0.32884  -0.32362  -0.32242  -0.30032  -0.29311
  Beta  occ. eigenvalues --   -0.27643  -0.26680  -0.26255  -0.25171  -0.24418
  Beta  occ. eigenvalues --   -0.24282  -0.24091  -0.24076  -0.22136  -0.16252
  Beta  occ. eigenvalues --   -0.15722  -0.12190
  Beta virt. eigenvalues --    0.06523   0.07275   0.07743   0.07806   0.09110
  Beta virt. eigenvalues --    0.09358   0.09523   0.10043   0.10653   0.11372
  Beta virt. eigenvalues --    0.11784   0.11945   0.12276   0.12705   0.13248

 Mulliken charges and spin densities:
               1          2
     1  C   -0.203074  -0.183857
     2  C    0.190253  -0.619089
     3  C    2.573738  -3.031567
     4  C   -1.508603   1.483687
     5  C    0.275067  -0.051567
     6  C   -1.304281   0.913612
     7  C    0.649671  -1.185987
     8  N    0.133708   0.115606
     9  C   -0.011999  -0.477332
    10  C   -0.556063   0.345581
    11  C    0.497142  -0.837692
    12  C   -0.277238  -0.008935
    13  H   -0.268097   0.404319
    14  H    0.151378  -0.021595
    15  H    0.168794  -0.054432
    16  H   -0.128282   0.252592
    17  H   -0.129921   0.260324
    18  H   -0.133572   0.293414
    19  H   -0.377492   0.551870
    20  H   -0.238815   0.410092
    21  H   -0.397286   0.559550
    22  H    0.133577   0.038453
    23  H   -0.109424   0.229673
    24  H    0.117479   0.053226
    25  H   -0.077605   0.201445
    26  H    0.006552   0.148430
    27  H    0.274102  -0.112533
    28  H    0.531513  -0.398043
    29  H   -0.361838   0.524384
    30  H   -0.247517   0.381717
    31  H   -0.267446   0.430085
    32  H   -0.026510   0.129325
    33  H   -0.077912   0.255243
 Sum of Mulliken charges =  -1.00000   1.00000

 Dipole moment (field-independent basis, Debye):
    X=             -3.0320    Y=             -0.3740    Z=              0.9593  Tot=              3.2021
 Quadrupole moment (field-independent basis, Debye-Ang):
   XX=           -151.5115   YY=           -125.9803   ZZ=           -114.3870
   XY=              7.5933   XZ=              1.8818   YZ=             -2.4443

 Summary of Natural Population Analysis:

                                       Natural Population
                Natural  -----------------------------------------------
    Atom  No    Charge         Core      Valence    Rydberg      Total
 -----------------------------------------------------------------------
      C    1   -0.28605      0.99968     2.28205    0.00432     3.28605
      C    2   -0.28713      0.99968     2.28286    0.00458     3.28713
      C    3   -0.31959      0.99961     2.31341    0.00657     3.31959
      C    4    0.00511      0.99923     1.98908    0.00659     2.99489
      C    5   -0.02291      0.99925     2.01310    0.01056     3.02291
      C    6   -0.04596      0.99953     2.03291    0.01352     3.04596
      C    7   -0.27449      0.99964     2.26969    0.00516     3.27449
      N    8   -0.27427      0.99973     2.76177    0.01277     3.77427
      C    9   -0.08930      0.99962     2.07893    0.01075     3.08930
      C   10   -0.20720      0.99964     2.20008    0.00748     3.20720
      C   11   -0.20512      0.99964     2.19783    0.00764     3.20512
      C   12   -0.08891      0.99962     2.07818    0.01110     3.08891
      H   13    0.09253      0.00000     0.40639    0.00108     0.40747
      H   14    0.10078      0.00000     0.39778    0.00144     0.39922
      H   15    0.09328      0.00000     0.40530    0.00142     0.40672
      H   16    0.09264      0.00000     0.40635    0.00101     0.40736
      H   17    0.09497      0.00000     0.40377    0.00127     0.40503
      H   18    0.10062      0.00000     0.39801    0.00137     0.39938
      H   19    0.11282      0.00000     0.38562    0.00156     0.38718
      H   20    0.11353      0.00000     0.38488    0.00158     0.38647
      H   21    0.11267      0.00000     0.38541    0.00192     0.38733
      H   22    0.09643      0.00000     0.40023    0.00334     0.40357
      H   23    0.09681      0.00000     0.40204    0.00115     0.40319
      H   24    0.10228      0.00000     0.39614    0.00158     0.39772
      H   25    0.10046      0.00000     0.39860    0.00094     0.39954
      H   26    0.09113      0.00000     0.40767    0.00121     0.40887
      H   27    0.10805      0.00000     0.39077    0.00118     0.39195
      H   28    0.09974      0.00000     0.39852    0.00175     0.40026
      H   29    0.09904      0.00000     0.39961    0.00135     0.40096
      H   30    0.09651      0.00000     0.40204    0.00145     0.40349
      H   31    0.10065      0.00000     0.39773    0.00162     0.39935
      H   32    0.09733      0.00000     0.40156    0.00111     0.40267
      H   33    0.09355      0.00000     0.40529    0.00116     0.40645
 =======================================================================
   * Total *   -0.00000     11.99487    34.87361    0.13152    47.00000

 Normal termination of Gaussian 16 at Wed Dec  9 19:01:22 2020.
