 Gaussian 16, Revision A.03,

 -----------------------------------------------------------
 # opt freq B3LYP/6-31G(d) empiricaldispersion=gd3bj scf=xqc
 -----------------------------------------------------------

 -------------------------------
 CID_101970233_JID_5718_neutraal
 -------------------------------
 Symbolic Z-matrix:
 Charge =  0 Multiplicity = 1

 SCF Done:  E(RB3LYP) =  -944.986845357     A.U. after   13 cycles
 SCF Done:  E(RB3LYP) =  -944.989573880     A.U. after   11 cycles
 SCF Done:  E(RB3LYP) =  -944.989721227     A.U. after   10 cycles
 SCF Done:  E(RB3LYP) =  -944.990532722     A.U. after   10 cycles
 SCF Done:  E(RB3LYP) =  -944.990583226     A.U. after    9 cycles
 SCF Done:  E(RB3LYP) =  -944.990590498     A.U. after    9 cycles
 SCF Done:  E(RB3LYP) =  -944.990592637     A.U. after    9 cycles
 SCF Done:  E(RB3LYP) =  -944.990593406     A.U. after    7 cycles
 SCF Done:  E(RB3LYP) =  -944.990593430     A.U. after    6 cycles
 Optimization completed.
    -- Stationary point found.
 Normal termination of Gaussian 16 at Thu Dec 10 16:36:15 2020.

 --------------------------------------------------------------------
 #N Geom=AllCheck Guess=TCheck SCRF=Check GenChk RB3LYP/6-31G(d) Freq
 --------------------------------------------------------------------

 Structure from the checkpoint file:  "JID_5718.chk"
 -------------------------------
 CID_101970233_JID_5718_neutraal
 -------------------------------
 Charge =  0 Multiplicity = 1

 SCF Done:  E(RB3LYP) =  -944.990593430     A.U. after    1 cycles

  Exact polarizability: 165.516   4.387 151.018  -1.210  -0.310 126.833
 Approx polarizability: 216.392   2.503 224.330  -3.953   0.925 200.926

                      1                      2                      3
                      A                      A                      A
 Frequencies --     41.6223                58.3434                73.4340
 Red. masses --      4.1564                 6.9774                 2.9315
 Frc consts  --      0.0042                 0.0140                 0.0093
 IR Inten    --      0.7514                 0.7885                 0.1322

                      4                      5                      6
                      A                      A                      A
 Frequencies --    163.2890               180.6966               239.3472
 Red. masses --      2.0949                 4.7552                 3.3044
 Frc consts  --      0.0329                 0.0915                 0.1115
 IR Inten    --      2.1288                 1.4911                 0.1018

                      7                      8                      9
                      A                      A                      A
 Frequencies --    255.0768               268.7596               291.9523
 Red. masses --      1.7733                 1.4283                 2.0302
 Frc consts  --      0.0680                 0.0608                 0.1020
 IR Inten    --      7.5724                10.5575                 1.8637

                     10                     11                     12
                      A                      A                      A
 Frequencies --    309.8949               321.5145               373.3947
 Red. masses --      2.5500                 2.0114                 3.0498
 Frc consts  --      0.1443                 0.1225                 0.2505
 IR Inten    --      0.1900                 0.0395                 0.6887

                     13                     14                     15
                      A                      A                      A
 Frequencies --    398.3213               454.1595               513.0656
 Red. masses --      3.1174                 3.1866                 1.9816
 Frc consts  --      0.2914                 0.3873                 0.3073
 IR Inten    --      0.7836                 0.3071                 0.2810

                     16                     17                     18
                      A                      A                      A
 Frequencies --    523.1014               587.1441               662.4249
 Red. masses --      3.0512                 2.6836                 4.3039
 Frc consts  --      0.4919                 0.5451                 1.1127
 IR Inten    --      0.1085                 0.0172                 5.0600

                     19                     20                     21
                      A                      A                      A
 Frequencies --    690.2906               705.4978               758.3131
 Red. masses --      3.6097                 1.7371                 2.7222
 Frc consts  --      1.0134                 0.5094                 0.9223
 IR Inten    --      0.6525                 6.6904                 0.1086

                     22                     23                     24
                      A                      A                      A
 Frequencies --    770.9354               789.2457               800.2913
 Red. masses --      2.4626                 4.2347                 2.9677
 Frc consts  --      0.8623                 1.5542                 1.1199
 IR Inten    --      0.1751                 0.6842                 0.8939

                     25                     26                     27
                      A                      A                      A
 Frequencies --    813.6406               833.6215               852.6902
 Red. masses --      1.8938                 1.3819                 2.0258
 Frc consts  --      0.7387                 0.5658                 0.8678
 IR Inten    --      0.6867                 1.1100                 0.0384

                     28                     29                     30
                      A                      A                      A
 Frequencies --    872.3759               886.5669               887.9997
 Red. masses --      2.2930                 2.1843                 2.5631
 Frc consts  --      1.0281                 1.0115                 1.1908
 IR Inten    --      0.0662                 1.6155                 0.3344

                     31                     32                     33
                      A                      A                      A
 Frequencies --    892.4285               898.1835               930.7541
 Red. masses --      2.9008                 2.0596                 2.2323
 Frc consts  --      1.3612                 0.9789                 1.1394
 IR Inten    --      1.3243                 2.3320                 0.3392

                     34                     35                     36
                      A                      A                      A
 Frequencies --    933.9842               954.6460               964.0118
 Red. masses --      2.9731                 2.6596                 1.7115
 Frc consts  --      1.5281                 1.4281                 0.9371
 IR Inten    --      1.0499                 2.7572                 0.5154

                     37                     38                     39
                      A                      A                      A
 Frequencies --    971.9322               980.0432              1005.0632
 Red. masses --      1.7478                 2.1715                 2.3626
 Frc consts  --      0.9728                 1.2288                 1.4061
 IR Inten    --      4.3685                 0.9061                 2.5751

                     40                     41                     42
                      A                      A                      A
 Frequencies --   1011.3813              1026.5876              1037.1117
 Red. masses --      1.9881                 1.8585                 1.3732
 Frc consts  --      1.1982                 1.1540                 0.8702
 IR Inten    --      0.1260                 1.4189                 0.4872

                     43                     44                     45
                      A                      A                      A
 Frequencies --   1051.3556              1063.5280              1068.2392
 Red. masses --      1.9403                 1.9177                 1.6350
 Frc consts  --      1.2636                 1.2780                 1.0993
 IR Inten    --      0.5011                 0.0006                 0.0903

                     46                     47                     48
                      A                      A                      A
 Frequencies --   1080.3906              1094.5652              1115.8404
 Red. masses --      1.6655                 1.4195                 1.8498
 Frc consts  --      1.1454                 1.0020                 1.3570
 IR Inten    --      6.3907                 0.6342                 0.8143

                     49                     50                     51
                      A                      A                      A
 Frequencies --   1137.9438              1151.3900              1163.2798
 Red. masses --      1.1388                 1.0751                 1.2782
 Frc consts  --      0.8688                 0.8397                 1.0191
 IR Inten    --      1.2765                 2.4770                 4.6312

                     52                     53                     54
                      A                      A                      A
 Frequencies --   1175.1858              1190.3004              1202.4266
 Red. masses --      1.3552                 1.5545                 2.0785
 Frc consts  --      1.1027                 1.2976                 1.7706
 IR Inten    --      0.3610                 1.0154                 0.7410

                     55                     56                     57
                      A                      A                      A
 Frequencies --   1220.3993              1225.3852              1246.2386
 Red. masses --      1.4679                 1.4231                 1.4047
 Frc consts  --      1.2881                 1.2590                 1.2854
 IR Inten    --      2.4842                 2.2991                 0.1604

                     58                     59                     60
                      A                      A                      A
 Frequencies --   1251.5412              1260.9091              1267.6227
 Red. masses --      1.3925                 1.4989                 1.2896
 Frc consts  --      1.2851                 1.4041                 1.2210
 IR Inten    --      0.0673                 0.4332                 0.9237

                     61                     62                     63
                      A                      A                      A
 Frequencies --   1280.2181              1296.2690              1303.9814
 Red. masses --      1.3691                 1.3927                 1.5823
 Frc consts  --      1.3220                 1.3788                 1.5852
 IR Inten    --      0.9044                 0.3674                 0.0984

                     64                     65                     66
                      A                      A                      A
 Frequencies --   1311.9312              1317.3343              1328.8657
 Red. masses --      1.4051                 1.3650                 1.5887
 Frc consts  --      1.4249                 1.3957                 1.6529
 IR Inten    --      0.0598                 0.6231                 0.0274

                     67                     68                     69
                      A                      A                      A
 Frequencies --   1330.7749              1336.7198              1343.8445
 Red. masses --      1.3505                 1.4512                 1.2746
 Frc consts  --      1.4091                 1.5277                 1.3562
 IR Inten    --      2.3749                 0.5487                27.2914

                     70                     71                     72
                      A                      A                      A
 Frequencies --   1350.6003              1351.5487              1367.4750
 Red. masses --      1.4756                 1.4712                 1.5540
 Frc consts  --      1.5859                 1.5833                 1.7122
 IR Inten    --      0.6833                 0.3103                 0.3701

                     73                     74                     75
                      A                      A                      A
 Frequencies --   1385.1695              1398.0283              1409.5622
 Red. masses --      1.4324                 1.4318                 1.3474
 Frc consts  --      1.6193                 1.6488                 1.5773
 IR Inten    --      2.9092                 0.1917                 0.1179

                     76                     77                     78
                      A                      A                      A
 Frequencies --   1433.0403              1501.0899              1510.9751
 Red. masses --      1.4437                 1.0819                 1.0939
 Frc consts  --      1.7468                 1.4363                 1.4714
 IR Inten    --      5.7852                 7.8934                 2.5255

                     79                     80                     81
                      A                      A                      A
 Frequencies --   1522.1602              1530.0186              1537.2483
 Red. masses --      1.0819                 1.0790                 1.0944
 Frc consts  --      1.4769                 1.4883                 1.5238
 IR Inten    --      0.5384                 1.0087                 3.8994

                     82                     83                     84
                      A                      A                      A
 Frequencies --   1549.0465              1567.6312              2681.8331
 Red. masses --      1.0947                 1.1015                 1.0384
 Frc consts  --      1.5476                 1.5949                 4.4005
 IR Inten    --     10.7413                 6.7215                20.1993

                     85                     86                     87
                      A                      A                      A
 Frequencies --   3048.7875              3050.9449              3059.1288
 Red. masses --      1.0846                 1.0601                 1.0607
 Frc consts  --      5.9401                 5.8138                 5.8486
 IR Inten    --      3.0128                19.6967                24.7387

                     88                     89                     90
                      A                      A                      A
 Frequencies --   3061.8155              3063.5500              3064.7861
 Red. masses --      1.0826                 1.0616                 1.0723
 Frc consts  --      5.9798                 5.8703                 5.9340
 IR Inten    --     35.2193                22.1605                14.7653

                     91                     92                     93
                      A                      A                      A
 Frequencies --   3069.7538              3071.5595              3077.6102
 Red. masses --      1.0646                 1.0682                 1.0654
 Frc consts  --      5.9107                 5.9379                 5.9454
 IR Inten    --     87.3659                39.4286                 8.8888

                     94                     95                     96
                      A                      A                      A
 Frequencies --   3085.9145              3091.7425              3093.3756
 Red. masses --      1.0871                 1.0908                 1.1013
 Frc consts  --      6.0997                 6.1433                 6.2093
 IR Inten    --     31.1540                28.9716                37.5191

                     97                     98                     99
                      A                      A                      A
 Frequencies --   3093.8074              3096.8695              3097.3439
 Red. masses --      1.0915                 1.0989                 1.0919
 Frc consts  --      6.1556                 6.2097                 6.1718
 IR Inten    --     37.8847                 8.9417                70.8939

                    100                    101                    102
                      A                      A                      A
 Frequencies --   3103.4442              3114.7144              3116.4437
 Red. masses --      1.0887                 1.1060                 1.1052
 Frc consts  --      6.1778                 6.3217                 6.3243
 IR Inten    --     26.1123                70.1199                79.5350

                    103                    104                    105
                      A                      A                      A
 Frequencies --   3128.6149              3158.4906              3204.5960
 Red. masses --      1.1068                 1.0916                 1.0800
 Frc consts  --      6.3827                 6.4159                 6.5346
 IR Inten    --     18.0008                25.6563                26.5415

 - Thermochemistry -
 -------------------
 Temperature   298.150 Kelvin.  Pressure   1.00000 Atm.
 Atom     1 has atomic number  6 and mass  12.00000

 Molecular mass:   222.14422 amu.
 Principal axes and moments of inertia in atomic units:
                           1         2         3
     Eigenvalues --  2066.657874546.820655566.09396
           X            0.99947   0.03257   0.00085
           Y           -0.03257   0.99947   0.00048
           Z           -0.00084  -0.00051   1.00000
 This molecule is an asymmetric top.
 Rotational symmetry number  1.
 Warning -- assumption of classical behavior for rotation
           may cause significant error
 Rotational temperatures (Kelvin)      0.04191     0.01905     0.01556
 Rotational constants (GHZ):           0.87327     0.39692     0.32424
 Zero-point vibrational energy     884329.5 (Joules/Mol)
                                  211.35981 (Kcal/Mol)
 Warning -- explicit consideration of  17 degrees of freedom as
           vibrations may cause significant error
 Vibrational temperatures:     59.89    83.94   105.66   234.94   259.98
          (Kelvin)            344.37   367.00   386.69   420.05   445.87
                              462.59   537.23   573.10   653.43   738.19
                              752.63   844.77   953.08   993.17  1015.05
                             1091.04  1109.20  1135.55  1151.44  1170.65
                             1199.40  1226.83  1255.15  1275.57  1277.63
                             1284.01  1292.29  1339.15  1343.79  1373.52
                             1387.00  1398.39  1410.06  1446.06  1455.15
                             1477.03  1492.17  1512.67  1530.18  1536.96
                             1554.44  1574.84  1605.45  1637.25  1656.59
                             1673.70  1690.83  1712.58  1730.02  1755.88
                             1763.06  1793.06  1800.69  1814.17  1823.83
                             1841.95  1865.04  1876.14  1887.58  1895.35
                             1911.94  1914.69  1923.24  1933.49  1943.21
                             1944.58  1967.49  1992.95  2011.45  2028.05
                             2061.83  2159.73  2173.96  2190.05  2201.36
                             2211.76  2228.73  2255.47  3858.56  4386.53
                             4389.63  4401.40  4405.27  4407.77  4409.54
                             4416.69  4419.29  4427.99  4439.94  4448.33
                             4450.68  4451.30  4455.70  4456.39  4465.16
                             4481.38  4483.87  4501.38  4544.36  4610.70

 Zero-point correction=                           0.336823 (Hartree/Particle)
 Thermal correction to Energy=                    0.349621
 Thermal correction to Enthalpy=                  0.350566
 Thermal correction to Gibbs Free Energy=         0.297225
 Sum of electronic and zero-point Energies=           -944.653770
 Sum of electronic and thermal Energies=              -944.640972
 Sum of electronic and thermal Enthalpies=            -944.640028
 Sum of electronic and thermal Free Energies=         -944.693368

                     E (Thermal)             CV                S
                      KCal/Mol        Cal/Mol-Kelvin    Cal/Mol-Kelvin
 Total                  219.391             54.127            112.265
 Electronic               0.000              0.000              0.000
 Translational            0.889              2.981             42.097
 Rotational               0.889              2.981             32.325
 Vibrational            217.613             48.165             37.842
 Vibration     1          0.594              1.981              5.180
 Vibration     2          0.596              1.974              4.512
 Vibration     3          0.599              1.967              4.059
 Vibration     4          0.623              1.887              2.511
 Vibration     5          0.630              1.866              2.321
 Vibration     6          0.657              1.780              1.808
 Vibration     7          0.665              1.754              1.695
 Vibration     8          0.673              1.731              1.604
 Vibration     9          0.687              1.689              1.463
 Vibration    10          0.699              1.655              1.363
 Vibration    11          0.707              1.632              1.302
 Vibration    12          0.745              1.527              1.066
 Vibration    13          0.765              1.474              0.969
 Vibration    14          0.813              1.352              0.783
 Vibration    15          0.868              1.221              0.626
 Vibration    16          0.878              1.199              0.603
 Vibration    17          0.944              1.059              0.472

 Optimization completed.
    -- Stationary point found.
 Normal termination of Gaussian 16 at Thu Dec 10 16:53:49 2020.

 ----------------------------------------------------------------------
 # B3LYP/6-311++G(d,p) empiricaldispersion=gd3bj scf=xqc pop=npa geom=c
 heck
 ----------------------------------------------------------------------

 ---------------------------------------
 CID_101970233_JID_5718_Energie_neutraal
 ---------------------------------------
 Structure from the checkpoint file:  "JID_5718.chk"
 Charge =  0 Multiplicity = 1

 SCF Done:  E(RB3LYP) =  -945.159678746     A.U. after   14 cycles
 Normal termination of Gaussian 16 at Thu Dec 10 17:06:18 2020.

 ----------------------------------------------------------------------
 # B3LYP/6-311++G(d,p) empiricaldispersion=gd3bj scf=xqc pop=npa geom=c
 heck
 ----------------------------------------------------------------------

 -------------------------------------
 CID_101970233_JID_5718_Energie_kation
 -------------------------------------
 Structure from the checkpoint file:  "JID_5718.chk"
 Charge =  1 Multiplicity = 2

 SCF Done:  E(UB3LYP) =  -944.842567236     A.U. after   24 cycles
 Normal termination of Gaussian 16 at Thu Dec 10 17:30:50 2020.
 Gaussian 16:  ES64L-G16RevA.03 25-Dec-2016

 ----------------------------------------------------------------------
 # B3LYP/6-311++G(d,p) empiricaldispersion=gd3bj scf=xqc pop=npa geom=c
 heck
 ----------------------------------------------------------------------

 ------------------------------------
 CID_101970233_JID_5718_Energie_anion
 ------------------------------------
 Structure from the checkpoint file:  "JID_5718.chk"
 Charge = -1 Multiplicity = 2

                         Standard orientation:
 ---------------------------------------------------------------------
 Center     Atomic      Atomic             Coordinates (Angstroms)
 Number     Number       Type             X           Y           Z
 ---------------------------------------------------------------------
      1          6           0       -3.221297   -1.063555    0.932106
      2          6           0       -3.571861   -0.563394   -0.512355
      3          6           0       -2.180252   -0.434135   -1.185281
      4          6           0       -1.479928   -1.656352   -0.550278
      5          6           0       -1.673820   -1.166318    0.901187
      6          6           0       -1.151101    0.291013    0.910280
      7          6           0       -1.512614    0.805092   -0.537154
      8          6           0       -0.160185    1.355453   -1.051744
      9          6           0        0.093166    2.660850   -0.250829
     10          6           0        0.477455    2.133717    1.171967
     11          6           0        0.363017    0.595583    1.015539
     12          6           0        0.892408    0.407007   -0.429425
     13          6           0        2.361844    0.754800   -0.683555
     14          6           0        3.343448   -0.047537    0.175314
     15         16           0        3.262360   -1.878920   -0.033283
     16          1           0       -3.574544   -0.379496    1.710699
     17          1           0       -3.669313   -2.043341    1.128638
     18          1           0       -4.189712   -1.296017   -1.042371
     19          1           0       -4.119287    0.384810   -0.507227
     20          1           0       -2.215448   -0.407510   -2.278411
     21          1           0       -0.451160   -1.828834   -0.859550
     22          1           0       -2.035961   -2.582369   -0.740786
     23          1           0       -1.255361   -1.799565    1.689611
     24          1           0       -1.675209    0.845148    1.696991
     25          1           0       -2.240666    1.623694   -0.521958
     26          1           0       -0.107926    1.480510   -2.137949
     27          1           0        0.902631    3.250879   -0.691523
     28          1           0       -0.794940    3.300446   -0.232107
     29          1           0        1.495453    2.430191    1.445320
     30          1           0       -0.187929    2.512775    1.954048
     31          1           0        0.874359    0.029907    1.801356
     32          1           0        0.759123   -0.611597   -0.780383
     33          1           0        2.584356    0.576241   -1.742794
     34          1           0        2.564163    1.815827   -0.496100
     35          1           0        4.374436    0.203277   -0.092093
     36          1           0        3.220815    0.185645    1.236895
     37          1           0        2.062673   -2.061239    0.557596
 ---------------------------------------------------------------------

 SCF Done:  E(UB3LYP) =  -945.145253226     A.U. after   32 cycles

 The electronic state is 2-A.
 Alpha  occ. eigenvalues --  -88.74411 -10.10424 -10.07351 -10.07256 -10.07234
 Alpha  occ. eigenvalues --  -10.07183 -10.07059 -10.06816 -10.06771 -10.06710
 Alpha  occ. eigenvalues --  -10.06701 -10.06667 -10.06477 -10.06418 -10.06292
 Alpha  occ. eigenvalues --   -7.83090  -5.79455  -5.79122  -5.78479  -0.79316
 Alpha  occ. eigenvalues --   -0.75074  -0.70361  -0.64355  -0.63530  -0.62902
 Alpha  occ. eigenvalues --   -0.59995  -0.59888  -0.57663  -0.51039  -0.49500
 Alpha  occ. eigenvalues --   -0.45954  -0.44994  -0.44154  -0.42689  -0.41516
 Alpha  occ. eigenvalues --   -0.39146  -0.38088  -0.37842  -0.35981  -0.34084
 Alpha  occ. eigenvalues --   -0.32100  -0.30985  -0.30081  -0.29027  -0.28519
 Alpha  occ. eigenvalues --   -0.26299  -0.26030  -0.25355  -0.24984  -0.24487
 Alpha  occ. eigenvalues --   -0.24462  -0.24210  -0.23678  -0.22892  -0.21839
 Alpha  occ. eigenvalues --   -0.21359  -0.20556  -0.20240  -0.19826  -0.18008
 Alpha  occ. eigenvalues --   -0.14393   0.04322
 Alpha virt. eigenvalues --    0.06037   0.06987   0.07196   0.08074   0.08307
 Alpha virt. eigenvalues --    0.08552   0.09220   0.09465   0.10304   0.10733
 Alpha virt. eigenvalues --    0.11055   0.11232   0.11612   0.11875   0.12877

  Beta  occ. eigenvalues --  -88.74402 -10.10396 -10.07346 -10.07248 -10.07217
  Beta  occ. eigenvalues --  -10.07179 -10.07045 -10.06810 -10.06764 -10.06698
  Beta  occ. eigenvalues --  -10.06695 -10.06652 -10.06462 -10.06399 -10.06280
  Beta  occ. eigenvalues --   -7.83079  -5.79434  -5.79116  -5.78472  -0.79297
  Beta  occ. eigenvalues --   -0.75051  -0.70323  -0.64335  -0.63501  -0.62864
  Beta  occ. eigenvalues --   -0.59963  -0.59860  -0.57618  -0.50973  -0.49459
  Beta  occ. eigenvalues --   -0.45916  -0.44948  -0.44121  -0.42656  -0.41478
  Beta  occ. eigenvalues --   -0.39105  -0.38058  -0.37813  -0.35948  -0.34049
  Beta  occ. eigenvalues --   -0.32047  -0.30956  -0.30053  -0.28991  -0.28484
  Beta  occ. eigenvalues --   -0.26264  -0.26002  -0.25329  -0.24957  -0.24459
  Beta  occ. eigenvalues --   -0.24437  -0.24184  -0.23651  -0.22854  -0.21816
  Beta  occ. eigenvalues --   -0.21337  -0.20531  -0.20212  -0.19802  -0.17988
  Beta  occ. eigenvalues --   -0.14365
  Beta virt. eigenvalues --    0.06335   0.06948   0.07603   0.07775   0.08482
  Beta virt. eigenvalues --    0.08823   0.09029   0.09512   0.09793   0.10536
  Beta virt. eigenvalues --    0.11144   0.11445   0.11488   0.11961   0.12130

 Mulliken charges and spin densities:
               1          2
     1  C    0.367844  -0.900419
     2  C    0.044911  -0.594052
     3  C   -0.191149   0.551485
     4  C   -0.021014  -0.731260
     5  C   -0.292596   0.683977
     6  C    1.136267  -1.664265
     7  C    0.598233  -1.068721
     8  C   -0.998700   1.367873
     9  C    0.263730  -0.871285
    10  C    0.201734  -0.764532
    11  C   -1.406286   1.749113
    12  C    0.723226  -1.166820
    13  C   -0.255512   0.117114
    14  C    0.431343  -0.906397
    15  S    0.056410  -0.112149
    16  H   -0.091092   0.214249
    17  H   -0.067399   0.226751
    18  H   -0.127396   0.287307
    19  H   -0.078886   0.196990
    20  H   -0.105999   0.319835
    21  H    0.039941   0.104604
    22  H   -0.200344   0.383903
    23  H   -0.265273   0.476087
    24  H    0.124842   0.104136
    25  H    0.075842   0.147209
    26  H   -0.069432   0.311717
    27  H   -0.319141   0.488986
    28  H   -0.040770   0.153878
    29  H   -0.200689   0.369757
    30  H   -0.169290   0.302706
    31  H   -0.102097   0.361606
    32  H    0.458020  -0.383775
    33  H   -0.159653   0.288980
    34  H    0.277268  -0.132865
    35  H   -0.512781   0.760788
    36  H   -0.097899   0.303049
    37  H   -0.026210   0.024441
 Sum of Mulliken charges =  -1.00000   1.00000

 Dipole moment (field-independent basis, Debye):
    X=             -0.9975    Y=             -0.3513    Z=             -0.9339  Tot=              1.4109
 Quadrupole moment (field-independent basis, Debye-Ang):
   XX=           -179.2076   YY=           -152.6913   ZZ=           -140.0130
   XY=             -4.3497   XZ=             -1.4525   YZ=             -0.7808

 Summary of Natural Population Analysis:

                                       Natural Population
                Natural  -----------------------------------------------
    Atom  No    Charge         Core      Valence    Rydberg      Total
 -----------------------------------------------------------------------
      C    1   -0.18920      0.99963     2.18125    0.00831     3.18920
      C    2   -0.18950      0.99963     2.18141    0.00846     3.18950
      C    3   -0.10996      0.99958     2.09874    0.01164     3.10996
      C    4   -0.19005      0.99961     2.18182    0.00862     3.19005
      C    5   -0.11028      0.99958     2.09881    0.01188     3.11028
      C    6   -0.10393      0.99958     2.09241    0.01194     3.10393
      C    7   -0.10352      0.99958     2.09232    0.01162     3.10352
      C    8   -0.10379      0.99957     2.09283    0.01139     3.10379
      C    9   -0.19264      0.99964     2.18430    0.00871     3.19264
      C   10   -0.19308      0.99963     2.18448    0.00897     3.19308
      C   11   -0.10951      0.99957     2.09777    0.01217     3.10951
      C   12   -0.11871      0.99956     2.10635    0.01280     3.11871
      C   13   -0.19433      0.99959     2.18367    0.01107     3.19433
      C   14   -0.23862      0.99958     2.22904    0.01000     3.23862
      S   15   -0.03053      4.99966     3.01660    0.01427     8.03053
      H   16    0.09756      0.00000     0.40125    0.00119     0.40244
      H   17    0.09866      0.00000     0.40018    0.00117     0.40134
      H   18    0.09847      0.00000     0.40038    0.00115     0.40153
      H   19    0.09753      0.00000     0.40131    0.00116     0.40247
      H   20    0.10206      0.00000     0.39697    0.00097     0.39794
      H   21    0.09954      0.00000     0.39908    0.00138     0.40046
      H   22    0.09828      0.00000     0.40057    0.00115     0.40172
      H   23    0.10301      0.00000     0.39580    0.00118     0.39699
      H   24    0.10059      0.00000     0.39799    0.00142     0.39941
      H   25    0.10031      0.00000     0.39827    0.00141     0.39969
      H   26    0.10196      0.00000     0.39681    0.00123     0.39804
      H   27    0.09987      0.00000     0.39900    0.00113     0.40013
      H   28    0.09890      0.00000     0.39993    0.00118     0.40110
      H   29    0.10042      0.00000     0.39828    0.00130     0.39958
      H   30    0.09932      0.00000     0.39947    0.00121     0.40068
      H   31    0.10401      0.00000     0.39425    0.00174     0.39599
      H   32    0.10456      0.00000     0.39275    0.00270     0.39544
      H   33    0.10061      0.00000     0.39818    0.00120     0.39939
      H   34    0.10305      0.00000     0.39521    0.00174     0.39695
      H   35    0.10567      0.00000     0.39299    0.00134     0.39433
      H   36    0.10256      0.00000     0.39589    0.00155     0.39744
      H   37    0.06072      0.00000     0.43640    0.00288     0.43928
 =======================================================================
   * Total *    0.00000     18.99401    41.81275    0.19324    61.00000

 Normal termination of Gaussian 16 at Thu Dec 10 17:53:07 2020.
