 Gaussian 16, Revision A.03,

 -----------------------------------------------------------
 # opt freq B3LYP/6-31G(d) empiricaldispersion=gd3bj scf=xqc
 -----------------------------------------------------------

 ------------------------------
 CID_59945863_JID_3815_neutraal
 ------------------------------
 Symbolic Z-matrix:
 Charge =  0 Multiplicity = 1

 SCF Done:  E(RB3LYP) =  -571.848285989     A.U. after   15 cycles
 SCF Done:  E(RB3LYP) =  -571.852507069     A.U. after   12 cycles
 SCF Done:  E(RB3LYP) =  -571.852802659     A.U. after   12 cycles
 SCF Done:  E(RB3LYP) =  -571.852955915     A.U. after   11 cycles
 SCF Done:  E(RB3LYP) =  -571.852973424     A.U. after    9 cycles
 SCF Done:  E(RB3LYP) =  -571.852988848     A.U. after   10 cycles
 SCF Done:  E(RB3LYP) =  -571.852994047     A.U. after    9 cycles
 SCF Done:  E(RB3LYP) =  -571.852997127     A.U. after    9 cycles
 SCF Done:  E(RB3LYP) =  -571.852999580     A.U. after    9 cycles
 SCF Done:  E(RB3LYP) =  -571.853000154     A.U. after    8 cycles
 Optimization completed.
    -- Stationary point found.
 Normal termination of Gaussian 16 at Mon Dec 14 13:11:07 2020.

 --------------------------------------------------------------------
 #N Geom=AllCheck Guess=TCheck SCRF=Check GenChk RB3LYP/6-31G(d) Freq
 --------------------------------------------------------------------

 Structure from the checkpoint file:  "JID_3815.chk"
 ------------------------------
 CID_59945863_JID_3815_neutraal
 ------------------------------
 Charge =  0 Multiplicity = 1

 SCF Done:  E(RB3LYP) =  -571.853000154     A.U. after    1 cycles

  Exact polarizability: 191.816   7.530 119.851   3.510   1.443  54.823
 Approx polarizability: 279.901  23.160 217.604   9.198   0.749  84.983

                      1                      2                      3
                      A                      A                      A
 Frequencies --     70.7800                91.4575               134.2775
 Red. masses --      4.5046                 3.9710                 1.2296
 Frc consts  --      0.0133                 0.0196                 0.0131
 IR Inten    --      1.4345                 1.2693                 1.0216

                      4                      5                      6
                      A                      A                      A
 Frequencies --    155.2334               168.7238               265.4771
 Red. masses --      3.5733                 3.0921                 3.7714
 Frc consts  --      0.0507                 0.0519                 0.1566
 IR Inten    --      0.5220                 2.3262                 2.0909

                      7                      8                      9
                      A                      A                      A
 Frequencies --    277.4100               320.5433               335.2052
 Red. masses --      3.7746                 4.4518                 5.1643
 Frc consts  --      0.1711                 0.2695                 0.3419
 IR Inten    --      2.5611                 1.5081                 2.2057

                     10                     11                     12
                      A                      A                      A
 Frequencies --    428.9795               445.2688               452.0760
 Red. masses --      3.3821                 2.0024                 1.8794
 Frc consts  --      0.3667                 0.2339                 0.2263
 IR Inten    --      3.1422                14.6833                23.1006

                     13                     14                     15
                      A                      A                      A
 Frequencies --    513.9124               534.2990               580.1210
 Red. masses --      2.5079                 4.7637                 2.8504
 Frc consts  --      0.3902                 0.8012                 0.5652
 IR Inten    --      7.3122                 8.1518                63.6298

                     16                     17                     18
                      A                      A                      A
 Frequencies --    619.3427               625.8914               666.4159
 Red. masses --      3.3390                 4.0969                 1.9950
 Frc consts  --      0.7546                 0.9456                 0.5220
 IR Inten    --     20.4776                 2.1668               102.6566

                     19                     20                     21
                      A                      A                      A
 Frequencies --    686.3825               745.5536               755.7756
 Red. masses --      5.4096                 3.9448                 4.1883
 Frc consts  --      1.5016                 1.2919                 1.4095
 IR Inten    --      1.0301                38.0518                24.5002

                     22                     23                     24
                      A                      A                      A
 Frequencies --    767.5268               810.4037               845.3592
 Red. masses --      2.9865                 1.3925                 1.5232
 Frc consts  --      1.0366                 0.5388                 0.6414
 IR Inten    --     62.9436                 9.3041                45.7409

                     25                     26                     27
                      A                      A                      A
 Frequencies --    857.7203               870.3505               913.7779
 Red. masses --      3.1442                 1.2641                 1.3966
 Frc consts  --      1.3629                 0.5642                 0.6871
 IR Inten    --      2.6420                12.7370                 9.0938

                     28                     29                     30
                      A                      A                      A
 Frequencies --    935.6154               958.8804               983.2847
 Red. masses --      4.0915                 1.2813                 5.5617
 Frc consts  --      2.1102                 0.6941                 3.1682
 IR Inten    --      6.6811                 1.0985                25.2270

                     31                     32                     33
                      A                      A                      A
 Frequencies --   1028.6592              1080.3807              1085.4029
 Red. masses --      1.5993                 1.4903                 2.1460
 Frc consts  --      0.9971                 1.0249                 1.4896
 IR Inten    --      6.0451                 3.3045                20.8793

                     34                     35                     36
                      A                      A                      A
 Frequencies --   1144.4208              1164.7264              1177.1122
 Red. masses --      1.9108                 1.5671                 1.4400
 Frc consts  --      1.4745                 1.2526                 1.1756
 IR Inten    --     13.8341                 4.9185                10.3625

                     37                     38                     39
                      A                      A                      A
 Frequencies --   1190.6428              1226.9399              1287.7305
 Red. masses --      1.5303                 2.0208                 2.1202
 Frc consts  --      1.2781                 1.7923                 2.0715
 IR Inten    --     82.6162                32.7073                 3.4397

                     40                     41                     42
                      A                      A                      A
 Frequencies --   1307.9816              1339.5690              1399.5524
 Red. masses --      2.9872                 3.6004                 3.8408
 Frc consts  --      3.0111                 3.8065                 4.4325
 IR Inten    --     17.4785                35.1061                13.4520

                     43                     44                     45
                      A                      A                      A
 Frequencies --   1443.8042              1447.0134              1475.3072
 Red. masses --      1.4587                 2.3672                 3.6102
 Frc consts  --      1.7916                 2.9203                 4.6297
 IR Inten    --     51.2457               165.8421                25.1617

                     46                     47                     48
                      A                      A                      A
 Frequencies --   1500.4218              1517.0654              1526.9799
 Red. masses --      1.0427                 1.1130                 3.2943
 Frc consts  --      1.3831                 1.5092                 4.5256
 IR Inten    --      7.3424                 4.6266                10.9269

                     49                     50                     51
                      A                      A                      A
 Frequencies --   1626.0452              1646.3863              1660.4542
 Red. masses --      7.0067                 1.4068                 6.5641
 Frc consts  --     10.9151                 2.2467                10.6629
 IR Inten    --     18.7193               108.5688                37.2055

                     52                     53                     54
                      A                      A                      A
 Frequencies --   1678.2682              1717.4738              3050.4820
 Red. masses --      6.8593                 3.9003                 1.0379
 Frc consts  --     11.3830                 6.7785                 5.6903
 IR Inten    --      1.7986               166.7025                29.6571

                     55                     56                     57
                      A                      A                      A
 Frequencies --   3102.5275              3149.3834              3195.4853
 Red. masses --      1.1012                 1.1001                 1.0870
 Frc consts  --      6.2454                 6.4291                 6.5396
 IR Inten    --     12.2188                 9.9379                 4.8912

                     58                     59                     60
                      A                      A                      A
 Frequencies --   3211.2052              3233.9181              3269.3096
 Red. masses --      1.0946                 1.0917                 1.0968
 Frc consts  --      6.6500                 6.7266                 6.9072
 IR Inten    --     15.0773                 0.1392                 5.4745

                     61                     62                     63
                      A                      A                      A
 Frequencies --   3477.7003              3542.4714              3652.0502
 Red. masses --      1.0745                 1.0468                 1.0992
 Frc consts  --      7.6565                 7.7399                 8.6375
 IR Inten    --      3.1584                18.3669                11.2491

 - Thermochemistry -
 -------------------
 Temperature   298.150 Kelvin.  Pressure   1.00000 Atm.
 Atom     1 has atomic number  6 and mass  12.00000

 Molecular mass:   174.07931 amu.
 Principal axes and moments of inertia in atomic units:
                           1         2         3
     Eigenvalues --   791.383084093.430374784.82566
           X            0.99999   0.00156  -0.00286
           Y           -0.00153   0.99997   0.00815
           Z            0.00287  -0.00814   0.99996
 This molecule is an asymmetric top.
 Rotational symmetry number  1.
 Warning -- assumption of classical behavior for rotation
           may cause significant error
 Rotational temperatures (Kelvin)      0.10945     0.02116     0.01810
 Rotational constants (GHZ):           2.28049     0.44089     0.37718
 Zero-point vibrational energy     486718.1 (Joules/Mol)
                                  116.32842 (Kcal/Mol)
 Warning -- explicit consideration of  16 degrees of freedom as
           vibrations may cause significant error
 Vibrational temperatures:    101.84   131.59   193.20   223.35   242.76
          (Kelvin)            381.96   399.13   461.19   482.29   617.21
                              640.64   650.44   739.41   768.74   834.66
                              891.10   900.52   958.82   987.55  1072.69
                             1087.39  1104.30  1165.99  1216.28  1234.07
                             1252.24  1314.72  1346.14  1379.62  1414.73
                             1480.01  1554.43  1561.65  1646.57  1675.78
                             1693.60  1713.07  1765.29  1852.76  1881.89
                             1927.34  2013.64  2077.31  2081.93  2122.64
                             2158.77  2182.72  2196.98  2339.52  2368.78
                             2389.02  2414.65  2471.06  4388.96  4463.85
                             4531.26  4597.59  4620.21  4652.89  4703.81
                             5003.64  5096.83  5254.49

 Zero-point correction=                           0.185381 (Hartree/Particle)
 Thermal correction to Energy=                    0.196283
 Thermal correction to Enthalpy=                  0.197227
 Thermal correction to Gibbs Free Energy=         0.148720
 Sum of electronic and zero-point Energies=           -571.667619
 Sum of electronic and thermal Energies=              -571.656717
 Sum of electronic and thermal Enthalpies=            -571.655773
 Sum of electronic and thermal Free Energies=         -571.704280

                     E (Thermal)             CV                S
                      KCal/Mol        Cal/Mol-Kelvin    Cal/Mol-Kelvin
 Total                  123.169             43.089            102.090
 Electronic               0.000              0.000              0.000
 Translational            0.889              2.981             41.370
 Rotational               0.889              2.981             31.117
 Vibrational            121.392             37.128             29.603
 Vibration     1          0.598              1.968              4.132
 Vibration     2          0.602              1.955              3.629
 Vibration     3          0.613              1.919              2.884
 Vibration     4          0.620              1.897              2.607
 Vibration     5          0.625              1.881              2.450
 Vibration     6          0.671              1.736              1.625
 Vibration     7          0.678              1.715              1.550
 Vibration     8          0.706              1.634              1.307
 Vibration     9          0.716              1.605              1.235
 Vibration    10          0.790              1.407              0.862
 Vibration    11          0.805              1.371              0.810
 Vibration    12          0.811              1.356              0.790
 Vibration    13          0.869              1.219              0.624
 Vibration    14          0.889              1.174              0.578
 Vibration    15          0.937              1.074              0.485
 Vibration    16          0.979              0.991              0.418

 Optimization completed.
    -- Stationary point found.
 Normal termination of Gaussian 16 at Mon Dec 14 13:16:06 2020.

 ----------------------------------------------------------------------
 # B3LYP/6-311++G(d,p) empiricaldispersion=gd3bj scf=xqc pop=npa geom=c
 heck
 ----------------------------------------------------------------------

 --------------------------------------
 CID_59945863_JID_3815_Energie_neutraal
 --------------------------------------
 Structure from the checkpoint file:  "JID_3815.chk"
 Charge =  0 Multiplicity = 1

 SCF Done:  E(RB3LYP) =  -572.014343191     A.U. after   15 cycles
 Normal termination of Gaussian 16 at Mon Dec 14 13:18:15 2020.

 ----------------------------------------------------------------------
 # B3LYP/6-311++G(d,p) empiricaldispersion=gd3bj scf=xqc pop=npa geom=c
 heck
 ----------------------------------------------------------------------

 ------------------------------------
 CID_59945863_JID_3815_Energie_kation
 ------------------------------------
 Structure from the checkpoint file:  "JID_3815.chk"
 Charge =  1 Multiplicity = 2

 SCF Done:  E(UB3LYP) =  -571.722869888     A.U. after   26 cycles
 Normal termination of Gaussian 16 at Mon Dec 14 13:23:24 2020.
 Gaussian 16:  ES64L-G16RevA.03 25-Dec-2016

 ----------------------------------------------------------------------
 # B3LYP/6-311++G(d,p) empiricaldispersion=gd3bj scf=xqc pop=npa geom=c
 heck
 ----------------------------------------------------------------------

 -----------------------------------
 CID_59945863_JID_3815_Energie_anion
 -----------------------------------
 Structure from the checkpoint file:  "JID_3815.chk"
 Charge = -1 Multiplicity = 2

                         Standard orientation:
 ---------------------------------------------------------------------
 Center     Atomic      Atomic             Coordinates (Angstroms)
 Number     Number       Type             X           Y           Z
 ---------------------------------------------------------------------
      1          6           0       -4.306497   -0.843366    0.115017
      2          6           0       -2.954772   -0.232624    0.039636
      3          6           0       -2.522209    1.048393   -0.109649
      4          6           0       -1.081626    1.002966   -0.106882
      5          6           0       -0.751343   -0.358056    0.047112
      6          8           0       -1.893145   -1.111042    0.138464
      7          6           0        0.546705   -0.837452    0.099955
      8          6           0        1.577223    0.107907    0.001370
      9          6           0        1.270812    1.477267   -0.157482
     10          6           0       -0.039513    1.935214   -0.213885
     11          6           0        3.004203   -0.321972    0.071708
     12          7           0        3.974283    0.347533    0.582785
     13          7           0        3.254405   -1.594489   -0.430747
     14          1           0       -4.455261   -1.573729   -0.689379
     15          1           0       -4.448821   -1.369731    1.066451
     16          1           0       -5.072789   -0.069158    0.027831
     17          1           0       -3.152278    1.921206   -0.207678
     18          1           0        0.761048   -1.890392    0.241528
     19          1           0        2.089905    2.182271   -0.261914
     20          1           0       -0.249056    2.992413   -0.346247
     21          1           0        3.617788    1.194170    1.029321
     22          1           0        2.749323   -1.841327   -1.273014
     23          1           0        4.246584   -1.798360   -0.480283
 ---------------------------------------------------------------------

 SCF Done:  E(UB3LYP) =  -572.006147286     A.U. after   33 cycles
 SCF Done:  E(UB3LYP) =  -572.008116709     a.u. after    9 cycles

 The electronic state is 2-A.
 Alpha  occ. eigenvalues --  -19.05462 -14.20250 -14.14439 -10.11073 -10.10241
 Alpha  occ. eigenvalues --  -10.09907 -10.06252 -10.04929 -10.04740 -10.04656
 Alpha  occ. eigenvalues --  -10.04539 -10.04528 -10.04107  -0.98056  -0.82395
 Alpha  occ. eigenvalues --   -0.73190  -0.72226  -0.68143  -0.64552  -0.61855
 Alpha  occ. eigenvalues --   -0.57923  -0.49758  -0.49413  -0.47060  -0.44194
 Alpha  occ. eigenvalues --   -0.41147  -0.38144  -0.36961  -0.35004  -0.34486
 Alpha  occ. eigenvalues --   -0.33036  -0.31853  -0.29715  -0.29300  -0.29103
 Alpha  occ. eigenvalues --   -0.28382  -0.26734  -0.25533  -0.24425  -0.22004
 Alpha  occ. eigenvalues --   -0.21817  -0.17068  -0.14375  -0.13239  -0.11912
 Alpha  occ. eigenvalues --   -0.09708   0.04956
 Alpha virt. eigenvalues --    0.06792   0.08048   0.08772   0.09723   0.10734
 Alpha virt. eigenvalues --    0.10771   0.11233   0.11930   0.12059   0.12979
 Alpha virt. eigenvalues --    0.13945   0.14644   0.15435   0.15614   0.16419

  Beta  occ. eigenvalues --  -19.05401 -14.20235 -14.14285 -10.10994 -10.09990
  Beta  occ. eigenvalues --  -10.09969 -10.06239 -10.04969 -10.04644 -10.04587
  Beta  occ. eigenvalues --  -10.04497 -10.04359 -10.03909  -0.97921  -0.82230
  Beta  occ. eigenvalues --   -0.72978  -0.71998  -0.67868  -0.64288  -0.61600
  Beta  occ. eigenvalues --   -0.57724  -0.49634  -0.49061  -0.46940  -0.44037
  Beta  occ. eigenvalues --   -0.41034  -0.37991  -0.36819  -0.34820  -0.34032
  Beta  occ. eigenvalues --   -0.32922  -0.31717  -0.29536  -0.29107  -0.29034
  Beta  occ. eigenvalues --   -0.28205  -0.26610  -0.25005  -0.24300  -0.21766
  Beta  occ. eigenvalues --   -0.21440  -0.16360  -0.14116  -0.12661  -0.11323
  Beta  occ. eigenvalues --   -0.08661
  Beta virt. eigenvalues --    0.07542   0.08030   0.08839   0.09272   0.10046
  Beta virt. eigenvalues --    0.10889   0.11110   0.11472   0.11943   0.12202
  Beta virt. eigenvalues --    0.13184   0.13968   0.15109   0.15511   0.15898

 Mulliken charges and spin densities:
               1          2
     1  C    2.946554  -3.478882
     2  C   -1.310235   1.935788
     3  C   -1.208934   0.478581
     4  C    2.308537  -0.365455
     5  C   -2.198124   0.475378
     6  O   -0.088975   0.039951
     7  C   -0.362330  -0.178280
     8  C    1.437844  -0.049911
     9  C   -0.700615   0.149927
    10  C   -0.510646   0.150972
    11  C   -0.414338  -0.111540
    12  N   -0.355517   0.081116
    13  N   -0.308851   0.011183
    14  H    0.028698   0.116905
    15  H   -0.265503   0.428946
    16  H   -0.601528   0.770284
    17  H   -0.303325   0.425055
    18  H    0.164942  -0.006930
    19  H    0.049359   0.073047
    20  H    0.092107   0.004057
    21  H    0.182280  -0.014690
    22  H    0.151389   0.063301
    23  H    0.267213   0.001197
 Sum of Mulliken charges =  -1.00000   1.00000

 Dipole moment (field-independent basis, Debye):
    X=              2.8435    Y=              0.0366    Z=             -1.7851  Tot=              3.3576
 Quadrupole moment (field-independent basis, Debye-Ang):
   XX=           -164.3358   YY=            -90.6426   ZZ=            -91.6920
   XY=             -4.8203   XZ=             -0.8786   YZ=              4.3246

 Summary of Natural Population Analysis:

                                       Natural Population
                Natural  -----------------------------------------------
    Atom  No    Charge         Core      Valence    Rydberg      Total
 -----------------------------------------------------------------------
      C    1   -0.30904      0.99963     2.30364    0.00577     3.30904
      C    2    0.20955      0.99947     1.77718    0.01379     2.79045
      C    3   -0.17131      0.99946     2.16305    0.00880     3.17131
      C    4   -0.02994      0.99949     2.02058    0.00988     3.02994
      C    5    0.14547      0.99935     1.84131    0.01386     2.85453
      O    6   -0.24576      0.99985     3.23808    0.00783     4.24576
      C    7   -0.08189      0.99949     2.07380    0.00860     3.08189
      C    8   -0.03771      0.99948     2.02700    0.01124     3.03771
      C    9   -0.11028      0.99955     2.10203    0.00870     3.11028
      C   10   -0.08640      0.99954     2.07863    0.00823     3.08640
      C   11    0.22758      0.99963     1.75441    0.01839     2.77242
      N   12   -0.35557      0.99971     2.84768    0.00819     3.85557
      N   13   -0.40855      0.99971     2.89930    0.00953     3.90855
      H   14    0.10425      0.00000     0.39451    0.00123     0.39575
      H   15    0.10993      0.00000     0.38751    0.00256     0.39007
      H   16    0.10773      0.00000     0.39072    0.00154     0.39227
      H   17    0.10526      0.00000     0.39394    0.00080     0.39474
      H   18    0.10540      0.00000     0.39341    0.00119     0.39460
      H   19    0.09757      0.00000     0.40129    0.00115     0.40243
      H   20    0.09339      0.00000     0.40534    0.00128     0.40661
      H   21    0.16148      0.00000     0.33682    0.00171     0.33852
      H   22    0.18482      0.00000     0.31339    0.00179     0.31518
      H   23    0.18403      0.00000     0.31351    0.00246     0.31597
 =======================================================================
   * Total *    0.00000     12.99435    32.85714    0.14851    46.00000

 Normal termination of Gaussian 16 at Mon Dec 14 14:12:45 2020.
