 Gaussian 16, Revision A.03,

 -----------------------------------------------------------
 # opt freq B3LYP/6-31G(d) empiricaldispersion=gd3bj scf=xqc
 -----------------------------------------------------------

 ------------------------------
 CID_20398526_JID_2280_neutraal
 ------------------------------
 Symbolic Z-matrix:
 Charge =  0 Multiplicity = 1

 SCF Done:  E(RB3LYP) =  -611.573120205     A.U. after   14 cycles
 SCF Done:  E(RB3LYP) =  -611.579513240     A.U. after   12 cycles
 SCF Done:  E(RB3LYP) =  -611.579379554     A.U. after   12 cycles
 SCF Done:  E(RB3LYP) =  -611.581047293     A.U. after   12 cycles
 SCF Done:  E(RB3LYP) =  -611.581722867     A.U. after   12 cycles
 SCF Done:  E(RB3LYP) =  -611.582021132     A.U. after   12 cycles
 SCF Done:  E(RB3LYP) =  -611.582184261     A.U. after   12 cycles
 SCF Done:  E(RB3LYP) =  -611.582365822     A.U. after   10 cycles
 SCF Done:  E(RB3LYP) =  -611.582522561     A.U. after   12 cycles
 SCF Done:  E(RB3LYP) =  -611.582637128     A.U. after   12 cycles
 SCF Done:  E(RB3LYP) =  -611.588772452     A.U. after    9 cycles
 SCF Done:  E(RB3LYP) =  -611.588774044     A.U. after    8 cycles
 SCF Done:  E(RB3LYP) =  -611.588775346     A.U. after    8 cycles
 SCF Done:  E(RB3LYP) =  -611.588775718     A.U. after    8 cycles
 SCF Done:  E(RB3LYP) =  -611.588775783     A.U. after    7 cycles
 Optimization completed.
    -- Stationary point found.
 Normal termination of Gaussian 16 at Wed Dec  9 17:15:05 2020.

 --------------------------------------------------------------------
 #N Geom=AllCheck Guess=TCheck SCRF=Check GenChk RB3LYP/6-31G(d) Freq
 --------------------------------------------------------------------

 Structure from the checkpoint file:  "JID_2280.chk"
 ------------------------------
 CID_20398526_JID_2280_neutraal
 ------------------------------
 Charge =  0 Multiplicity = 1

 SCF Done:  E(RB3LYP) =  -611.588775783     A.U. after    1 cycles

  Exact polarizability: 114.706  -0.074  96.878   4.693   3.906  80.979
 Approx polarizability: 144.048  -1.048 133.446   9.359   6.860 117.254

                      1                      2                      3
                      A                      A                      A
 Frequencies --     23.3539                38.5450                40.2644
 Red. masses --      4.5206                 4.3459                 5.3692
 Frc consts  --      0.0015                 0.0038                 0.0051
 IR Inten    --      0.3997                 1.7239                 1.1994

                      4                      5                      6
                      A                      A                      A
 Frequencies --     80.1605                92.3470               104.0711
 Red. masses --      3.9441                 2.9015                 2.9133
 Frc consts  --      0.0149                 0.0146                 0.0186
 IR Inten    --      3.1710                 1.4043                 2.1908

                      7                      8                      9
                      A                      A                      A
 Frequencies --    142.8143               152.2660               231.5479
 Red. masses --      3.0235                 4.1518                 1.3965
 Frc consts  --      0.0363                 0.0567                 0.0441
 IR Inten    --     12.0689                 0.2417                 7.2542

                     10                     11                     12
                      A                      A                      A
 Frequencies --    243.4495               283.8035               296.3829
 Red. masses --      3.4735                 1.8548                 2.2929
 Frc consts  --      0.1213                 0.0880                 0.1187
 IR Inten    --      6.7448                 0.6522                 2.5737

                     13                     14                     15
                      A                      A                      A
 Frequencies --    350.6052               351.9257               413.4735
 Red. masses --      2.0778                 2.4133                 1.2579
 Frc consts  --      0.1505                 0.1761                 0.1267
 IR Inten    --      0.6063                 1.8878                38.0771

                     16                     17                     18
                      A                      A                      A
 Frequencies --    440.0283               508.5601               527.9005
 Red. masses --      2.7739                 3.5736                 1.4231
 Frc consts  --      0.3164                 0.5446                 0.2337
 IR Inten    --     10.1103                 3.3076                51.4429

                     19                     20                     21
                      A                      A                      A
 Frequencies --    559.8934               592.5306               603.6518
 Red. masses --      2.1009                 1.2352                 2.8346
 Frc consts  --      0.3880                 0.2555                 0.6086
 IR Inten    --      7.0851               203.8236                12.6251

                     22                     23                     24
                      A                      A                      A
 Frequencies --    647.3705               744.7725               771.3753
 Red. masses --      3.4107                 1.3346                 6.8672
 Frc consts  --      0.8422                 0.4362                 2.4075
 IR Inten    --     24.4468                 4.0987                78.6034

                     25                     26                     27
                      A                      A                      A
 Frequencies --    845.5524               883.5239               898.1752
 Red. masses --      2.8829                 2.2978                 2.7951
 Frc consts  --      1.2144                 1.0568                 1.3285
 IR Inten    --      1.6963                 6.5871                 1.6338

                     28                     29                     30
                      A                      A                      A
 Frequencies --    955.1236              1009.1116              1019.6543
 Red. masses --      2.4731                 1.8938                 2.1072
 Frc consts  --      1.3293                 1.1362                 1.2908
 IR Inten    --     22.6459                17.1589                 9.0509

                     31                     32                     33
                      A                      A                      A
 Frequencies --   1070.1513              1084.8959              1109.5854
 Red. masses --      1.7117                 2.2499                 2.7487
 Frc consts  --      1.1550                 1.5602                 1.9939
 IR Inten    --     18.4843               109.3057               192.8893

                     34                     35                     36
                      A                      A                      A
 Frequencies --   1130.9071              1142.9946              1158.9081
 Red. masses --      2.4333                 1.9511                 2.5225
 Frc consts  --      1.8335                 1.5018                 1.9961
 IR Inten    --     41.6942                52.3649                42.5541

                     37                     38                     39
                      A                      A                      A
 Frequencies --   1173.2904              1185.3181              1195.0851
 Red. masses --      4.4578                 2.1199                 1.3431
 Frc consts  --      3.6156                 1.7548                 1.1302
 IR Inten    --    110.3243                53.3880                 2.1631

                     40                     41                     42
                      A                      A                      A
 Frequencies --   1222.0851              1253.4720              1265.5704
 Red. masses --      1.4955                 1.2094                 1.3747
 Frc consts  --      1.3160                 1.1195                 1.2973
 IR Inten    --     13.7940                 5.7292                15.4129

                     43                     44                     45
                      A                      A                      A
 Frequencies --   1295.6953              1333.5383              1343.0750
 Red. masses --      1.1780                 1.1435                 1.1329
 Frc consts  --      1.1652                 1.1981                 1.2041
 IR Inten    --      6.6241                29.9086                 8.5135

                     46                     47                     48
                      A                      A                      A
 Frequencies --   1393.3296              1404.6630              1408.0573
 Red. masses --      1.3766                 1.5611                 1.6214
 Frc consts  --      1.5745                 1.8148                 1.8940
 IR Inten    --     56.1652                55.5924                41.3704

                     49                     50                     51
                      A                      A                      A
 Frequencies --   1438.8140              1447.8880              1466.7436
 Red. masses --      1.3491                 1.4539                 1.5346
 Frc consts  --      1.6455                 1.7958                 1.9451
 IR Inten    --     10.4571                14.1509                61.6081

                     52                     53                     54
                      A                      A                      A
 Frequencies --   1493.5817              1502.1025              1505.1792
 Red. masses --      1.6950                 1.1120                 1.1317
 Frc consts  --      2.2278                 1.4782                 1.5106
 IR Inten    --     69.4981                 2.5444                 2.7605

                     55                     56                     57
                      A                      A                      A
 Frequencies --   1514.3177              1514.9633              1528.0648
 Red. masses --      1.0842                 1.0697                 1.1307
 Frc consts  --      1.4649                 1.4465                 1.5556
 IR Inten    --      8.4594                 2.3063                 7.5506

                     58                     59                     60
                      A                      A                      A
 Frequencies --   1534.4761              1556.1220              1566.9633
 Red. masses --      1.0624                 1.0903                 1.0835
 Frc consts  --      1.4739                 1.5556                 1.5675
 IR Inten    --     12.8306                 5.3558                 5.2367

                     61                     62                     63
                      A                      A                      A
 Frequencies --   1662.1584              1824.4533              2967.9037
 Red. masses --      1.1940                 6.5499                 1.0663
 Frc consts  --      1.9435                12.8454                 5.5337
 IR Inten    --    115.4531               474.7466                57.6491

                     64                     65                     66
                      A                      A                      A
 Frequencies --   2976.7036              2989.9069              3004.4693
 Red. masses --      1.0492                 1.0445                 1.1055
 Frc consts  --      5.4776                 5.5016                 5.8795
 IR Inten    --     12.9322                87.6416                85.2102

                     67                     68                     69
                      A                      A                      A
 Frequencies --   3028.5310              3036.8123              3043.1609
 Red. masses --      1.1038                 1.0888                 1.0664
 Frc consts  --      5.9647                 5.9159                 5.8185
 IR Inten    --     70.1871                36.2961                29.8490

                     70                     71                     72
                      A                      A                      A
 Frequencies --   3060.2309              3069.2381              3099.7742
 Red. masses --      1.0639                 1.0633                 1.1036
 Frc consts  --      5.8700                 5.9015                 6.2475
 IR Inten    --     37.7371                43.1292                16.0909

                     73                     74                     75
                      A                      A                      A
 Frequencies --   3114.7008              3121.3975              3134.9119
 Red. masses --      1.1021                 1.1008                 1.0964
 Frc consts  --      6.2993                 6.3192                 6.3483
 IR Inten    --     39.2887                30.2020                32.5821

                     76                     77                     78
                      A                      A                      A
 Frequencies --   3572.2579              3628.7473              3680.0763
 Red. masses --      1.0474                 1.0767                 1.0996
 Frc consts  --      7.8747                 8.3530                 8.7740
 IR Inten    --     17.3045                33.8652                40.3902

 - Thermochemistry -
 -------------------
 Temperature   298.150 Kelvin.  Pressure   1.00000 Atm.
 Atom     1 has atomic number  6 and mass  12.00000

 Molecular mass:   176.11609 amu.
 Principal axes and moments of inertia in atomic units:
                           1         2         3
     Eigenvalues --  1115.738554791.254595322.80174
           X            0.99998  -0.00655   0.00208
           Y            0.00659   0.99980  -0.01881
           Z           -0.00196   0.01882   0.99982
 This molecule is an asymmetric top.
 Rotational symmetry number  1.
 Warning -- assumption of classical behavior for rotation
           may cause significant error
 Rotational temperatures (Kelvin)      0.07763     0.01808     0.01627
 Rotational constants (GHZ):           1.61753     0.37667     0.33906
 Zero-point vibrational energy     646626.5 (Joules/Mol)
                                  154.54744 (Kcal/Mol)
 Warning -- explicit consideration of  21 degrees of freedom as
           vibrations may cause significant error
 Vibrational temperatures:     33.60    55.46    57.93   115.33   132.87
          (Kelvin)            149.74   205.48   219.08   333.15   350.27
                              408.33   426.43   504.44   506.34   594.90
                              633.10   731.70   759.53   805.56   852.52
                              868.52   931.42  1071.56  1109.84  1216.56
                             1271.19  1292.27  1374.21  1451.89  1467.06
                             1539.71  1560.92  1596.45  1627.12  1644.51
                             1667.41  1688.10  1705.41  1719.46  1758.31
                             1803.47  1820.87  1864.22  1918.66  1932.39
                             2004.69  2021.00  2025.88  2070.13  2083.19
                             2110.32  2148.93  2161.19  2165.62  2178.77
                             2179.69  2198.54  2207.77  2238.91  2254.51
                             2391.48  2624.98  4270.15  4282.81  4301.81
                             4322.76  4357.38  4369.30  4378.43  4402.99
                             4415.95  4459.88  4481.36  4490.99  4510.44
                             5139.68  5220.96  5294.81

 Zero-point correction=                           0.246287 (Hartree/Particle)
 Thermal correction to Energy=                    0.260323
 Thermal correction to Enthalpy=                  0.261267
 Thermal correction to Gibbs Free Energy=         0.203250
 Sum of electronic and zero-point Energies=           -611.342489
 Sum of electronic and thermal Energies=              -611.328453
 Sum of electronic and thermal Enthalpies=            -611.327509
 Sum of electronic and thermal Free Energies=         -611.385525

                     E (Thermal)             CV                S
                      KCal/Mol        Cal/Mol-Kelvin    Cal/Mol-Kelvin
 Total                  163.355             49.708            122.106
 Electronic               0.000              0.000              0.000
 Translational            0.889              2.981             41.405
 Rotational               0.889              2.981             31.720
 Vibrational            161.578             43.746             48.981
 Vibration     1          0.593              1.985              6.326
 Vibration     2          0.594              1.981              5.333
 Vibration     3          0.594              1.981              5.246
 Vibration     4          0.600              1.963              3.887
 Vibration     5          0.602              1.955              3.610
 Vibration     6          0.605              1.946              3.377
 Vibration     7          0.616              1.910              2.766
 Vibration     8          0.619              1.900              2.644
 Vibration     9          0.653              1.793              1.867
 Vibration    10          0.659              1.774              1.778
 Vibration    11          0.682              1.704              1.511
 Vibration    12          0.690              1.680              1.437
 Vibration    13          0.728              1.574              1.163
 Vibration    14          0.728              1.571              1.158
 Vibration    15          0.777              1.441              0.914
 Vibration    16          0.800              1.383              0.827
 Vibration    17          0.864              1.231              0.637
 Vibration    18          0.883              1.188              0.592
 Vibration    19          0.916              1.118              0.524
 Vibration    20          0.950              1.048              0.463
 Vibration    21          0.962              1.024              0.443

 Optimization completed.
    -- Stationary point found.
 Normal termination of Gaussian 16 at Wed Dec  9 17:21:47 2020.

 ----------------------------------------------------------------------
 # B3LYP/6-311++G(d,p) empiricaldispersion=gd3bj scf=xqc pop=npa geom=c
 heck
 ----------------------------------------------------------------------

 --------------------------------------
 CID_20398526_JID_2280_Energie_neutraal
 --------------------------------------
 Structure from the checkpoint file:  "JID_2280.chk"
 Charge =  0 Multiplicity = 1

 SCF Done:  E(RB3LYP) =  -611.786549042     A.U. after   13 cycles
 Normal termination of Gaussian 16 at Wed Dec  9 17:25:01 2020.

 ----------------------------------------------------------------------
 # B3LYP/6-311++G(d,p) empiricaldispersion=gd3bj scf=xqc pop=npa geom=c
 heck
 ----------------------------------------------------------------------

 ------------------------------------
 CID_20398526_JID_2280_Energie_kation
 ------------------------------------
 Structure from the checkpoint file:  "JID_2280.chk"
 Charge =  1 Multiplicity = 2

 SCF Done:  E(UB3LYP) =  -611.456221187     A.U. after   33 cycles
 SCF Done:  E(UB3LYP) =  -611.456221187     a.u. after    2 cycles
 Normal termination of Gaussian 16 at Wed Dec  9 17:46:20 2020.
 Gaussian 16:  ES64L-G16RevA.03 25-Dec-2016

 ----------------------------------------------------------------------
 # B3LYP/6-311++G(d,p) empiricaldispersion=gd3bj scf=xqc pop=npa geom=c
 heck
 ----------------------------------------------------------------------

 -----------------------------------
 CID_20398526_JID_2280_Energie_anion
 -----------------------------------
 Structure from the checkpoint file:  "JID_2280.chk"
 Charge = -1 Multiplicity = 2

                         Standard orientation:
 ---------------------------------------------------------------------
 Center     Atomic      Atomic             Coordinates (Angstroms)
 Number     Number       Type             X           Y           Z
 ---------------------------------------------------------------------
      1          6           0        3.553417   -2.018183    0.279632
      2          8           0        3.167424   -0.821388   -0.357040
      3          6           0        2.882016    0.216889    0.565802
      4          6           0        2.469920    1.465459   -0.201732
      5          6           0        1.331896    1.227063   -1.205355
      6          6           0        0.124783    0.517680   -0.610761
      7          8           0       -0.329897    1.246506    0.522113
      8          6           0       -1.403370    0.634535    1.207902
      9          7           0       -2.641586    0.588072    0.476355
     10          6           0       -3.256305   -0.497994   -0.120835
     11          8           0       -4.394318   -0.426731   -0.561363
     12          7           0       -2.522036   -1.679709   -0.136583
     13          1           0        3.741992   -2.758071   -0.502670
     14          1           0        2.762962   -2.396997    0.948733
     15          1           0        4.470939   -1.885442    0.875312
     16          1           0        2.073189   -0.096565    1.247114
     17          1           0        3.766778    0.426243    1.190179
     18          1           0        2.165237    2.221567    0.530064
     19          1           0        3.339160    1.862406   -0.739319
     20          1           0        1.011801    2.189143   -1.622434
     21          1           0        1.697510    0.615622   -2.037331
     22          1           0       -0.676166    0.436784   -1.359439
     23          1           0        0.409641   -0.504893   -0.305959
     24          1           0       -1.141973   -0.389596    1.507007
     25          1           0       -1.538643    1.238103    2.108983
     26          1           0       -3.212784    1.421213    0.445900
     27          1           0       -1.520032   -1.620866   -0.260923
     28          1           0       -2.964077   -2.376979   -0.721222
 ---------------------------------------------------------------------

 SCF Done:  E(UB3LYP) =  -611.775678881     A.U. after   30 cycles

 The electronic state is 2-A.
 Alpha  occ. eigenvalues --  -19.03586 -19.02409 -18.98839 -14.24139 -14.22833
 Alpha  occ. eigenvalues --  -10.20405 -10.16294 -10.11986 -10.11307 -10.10491
 Alpha  occ. eigenvalues --  -10.07320 -10.07124  -0.96130  -0.94855  -0.93708
 Alpha  occ. eigenvalues --   -0.83205  -0.79386  -0.70454  -0.64372  -0.59857
 Alpha  occ. eigenvalues --   -0.56916  -0.53119  -0.51661  -0.47552  -0.45329
 Alpha  occ. eigenvalues --   -0.42833  -0.41545  -0.39541  -0.38980  -0.38357
 Alpha  occ. eigenvalues --   -0.36081  -0.35895  -0.34021  -0.33540  -0.32411
 Alpha  occ. eigenvalues --   -0.31686  -0.29330  -0.28997  -0.26669  -0.25310
 Alpha  occ. eigenvalues --   -0.24150  -0.23074  -0.21983  -0.19521  -0.18084
 Alpha  occ. eigenvalues --   -0.17449  -0.16918  -0.16029   0.04357
 Alpha virt. eigenvalues --    0.06696   0.06968   0.07731   0.08707   0.09491
 Alpha virt. eigenvalues --    0.09929   0.10482   0.10665   0.11122   0.12024
 Alpha virt. eigenvalues --    0.12901   0.13138   0.13380   0.13729   0.14654

  Beta  occ. eigenvalues --  -19.03578 -19.02397 -18.98832 -14.24128 -14.22773
  Beta  occ. eigenvalues --  -10.20398 -10.16263 -10.11956 -10.11283 -10.10438
  Beta  occ. eigenvalues --  -10.07314 -10.07118  -0.96112  -0.94838  -0.93691
  Beta  occ. eigenvalues --   -0.83173  -0.79309  -0.70428  -0.64328  -0.59800
  Beta  occ. eigenvalues --   -0.56838  -0.53038  -0.51589  -0.47507  -0.45267
  Beta  occ. eigenvalues --   -0.42779  -0.41494  -0.39479  -0.38932  -0.38302
  Beta  occ. eigenvalues --   -0.36041  -0.35859  -0.33978  -0.33509  -0.32384
  Beta  occ. eigenvalues --   -0.31655  -0.29296  -0.28955  -0.26640  -0.25273
  Beta  occ. eigenvalues --   -0.24131  -0.23033  -0.21917  -0.19476  -0.18045
  Beta  occ. eigenvalues --   -0.17417  -0.16898  -0.16001
  Beta virt. eigenvalues --    0.06702   0.07541   0.07810   0.08022   0.09217
  Beta virt. eigenvalues --    0.09984   0.10296   0.10721   0.11004   0.11774
  Beta virt. eigenvalues --    0.12309   0.13157   0.13404   0.13625   0.13961

 Mulliken charges and spin densities:
               1          2
     1  C    1.107431  -1.346110
     2  O   -0.152852   0.058338
     3  C   -0.364491   0.050381
     4  C    0.225013  -0.600882
     5  C   -0.196888  -0.364250
     6  C   -0.195627   0.022685
     7  O   -0.070541   0.038097
     8  C    0.298250  -0.618320
     9  N   -0.323122   0.085604
    10  C    0.453991  -0.300458
    11  O   -0.396546   0.010551
    12  N   -0.224667  -0.128866
    13  H   -0.332773   0.472447
    14  H   -0.460593   0.597075
    15  H   -0.430386   0.551262
    16  H    0.146830   0.011824
    17  H   -0.343500   0.478111
    18  H    0.058233   0.104506
    19  H    0.119816   0.036792
    20  H    0.120218   0.024706
    21  H    0.023785   0.152929
    22  H   -0.100839   0.316543
    23  H    0.594826  -0.426606
    24  H    0.018855   0.188445
    25  H   -0.427676   0.596624
    26  H    0.246419   0.066895
    27  H   -0.381884   0.622976
    28  H   -0.011280   0.298702
 Sum of Mulliken charges =  -1.00000   1.00000

 Dipole moment (field-independent basis, Debye):
    X=             -0.6303    Y=              5.6041    Z=             -1.4447  Tot=              5.8215
 Quadrupole moment (field-independent basis, Debye-Ang):
   XX=           -159.3074   YY=           -114.5117   ZZ=           -105.1047
   XY=              6.5212   XZ=             -8.3841   YZ=             -0.4320

 Summary of Natural Population Analysis:

                                       Natural Population
                Natural  -----------------------------------------------
    Atom  No    Charge         Core      Valence    Rydberg      Total
 -----------------------------------------------------------------------
      C    1   -0.09641      0.99962     2.08719    0.00960     3.09641
      O    2   -0.30306      0.99988     3.29282    0.01035     4.30306
      C    3   -0.01142      0.99959     1.99865    0.01318     3.01142
      C    4   -0.19704      0.99962     2.18927    0.00815     3.19704
      C    5   -0.19615      0.99962     2.18826    0.00828     3.19615
      C    6   -0.02021      0.99957     2.00710    0.01353     3.02021
      O    7   -0.30297      0.99988     3.29402    0.00907     4.30297
      C    8    0.07301      0.99960     1.91119    0.01620     2.92699
      N    9   -0.33891      0.99968     2.83046    0.00877     3.83891
      C   10    0.40369      0.99973     1.57429    0.02229     2.59631
      O   11   -0.33881      0.99987     3.33297    0.00597     4.33881
      N   12   -0.41827      0.99972     2.90971    0.00884     3.91827
      H   13    0.09011      0.00000     0.40842    0.00147     0.40989
      H   14    0.08225      0.00000     0.41491    0.00283     0.41775
      H   15    0.07712      0.00000     0.42066    0.00223     0.42288
      H   16    0.08120      0.00000     0.41659    0.00222     0.41880
      H   17    0.08082      0.00000     0.41764    0.00154     0.41918
      H   18    0.10284      0.00000     0.39582    0.00134     0.39716
      H   19    0.09619      0.00000     0.40267    0.00114     0.40381
      H   20    0.09617      0.00000     0.40270    0.00113     0.40383
      H   21    0.10562      0.00000     0.39300    0.00139     0.39438
      H   22    0.08478      0.00000     0.41345    0.00177     0.41522
      H   23    0.08213      0.00000     0.41487    0.00300     0.41787
      H   24    0.08746      0.00000     0.41034    0.00220     0.41254
      H   25    0.09181      0.00000     0.40669    0.00150     0.40819
      H   26    0.19646      0.00000     0.30140    0.00215     0.30354
      H   27    0.19517      0.00000     0.30067    0.00416     0.30483
      H   28    0.19646      0.00000     0.30135    0.00219     0.30354
 =======================================================================
   * Total *   -0.00000     11.99639    35.83713    0.16648    48.00000

 Normal termination of Gaussian 16 at Wed Dec  9 17:56:06 2020.
