 Gaussian 16, Revision A.03,

 -----------------------------------------------------------
 # opt freq B3LYP/6-31G(d) empiricaldispersion=gd3bj scf=xqc
 -----------------------------------------------------------

 -------------------------------
 CID_114761000_JID_5328_neutraal
 -------------------------------
 Symbolic Z-matrix:
 Charge =  0 Multiplicity = 1

 SCF Done:  E(RB3LYP) =  -707.251110901     A.U. after   14 cycles
 SCF Done:  E(RB3LYP) =  -707.259738730     A.U. after   12 cycles
 SCF Done:  E(RB3LYP) =  -707.260218690     A.U. after   12 cycles
 SCF Done:  E(RB3LYP) =  -707.261097685     A.U. after   11 cycles
 SCF Done:  E(RB3LYP) =  -707.261279723     A.U. after   11 cycles
 SCF Done:  E(RB3LYP) =  -707.261399744     A.U. after   11 cycles
 SCF Done:  E(RB3LYP) =  -707.261468460     A.U. after   10 cycles
 SCF Done:  E(RB3LYP) =  -707.261508749     A.U. after   10 cycles
 SCF Done:  E(RB3LYP) =  -707.261531433     A.U. after    9 cycles
 SCF Done:  E(RB3LYP) =  -707.261549284     A.U. after    9 cycles
 SCF Done:  E(RB3LYP) =  -707.261795476     A.U. after   10 cycles
 SCF Done:  E(RB3LYP) =  -707.261776042     A.U. after   10 cycles
 SCF Done:  E(RB3LYP) =  -707.261798088     A.U. after   10 cycles
 SCF Done:  E(RB3LYP) =  -707.261798101     A.U. after    7 cycles
 SCF Done:  E(RB3LYP) =  -707.261798181     A.U. after    8 cycles
 SCF Done:  E(RB3LYP) =  -707.261798191     A.U. after    6 cycles
 Optimization completed.
    -- Stationary point found.
 Normal termination of Gaussian 16 at Thu Dec 10 15:47:03 2020.

 --------------------------------------------------------------------
 #N Geom=AllCheck Guess=TCheck SCRF=Check GenChk RB3LYP/6-31G(d) Freq
 --------------------------------------------------------------------

 Structure from the checkpoint file:  "JID_5328.chk"
 -------------------------------
 CID_114761000_JID_5328_neutraal
 -------------------------------
 Charge =  0 Multiplicity = 1

 SCF Done:  E(RB3LYP) =  -707.261798191     A.U. after    1 cycles

  Exact polarizability: 149.186   0.341 127.056  -1.877   0.722 103.516
 Approx polarizability: 180.390   3.736 186.879  -3.005   6.645 155.792

                      1                      2                      3
                      A                      A                      A
 Frequencies --     18.8268                43.6340                62.7150
 Red. masses --      3.7144                 3.9421                 2.7203
 Frc consts  --      0.0008                 0.0044                 0.0063
 IR Inten    --      0.4791                 0.6774                 0.0060

                      4                      5                      6
                      A                      A                      A
 Frequencies --     71.1930                91.7524               124.2786
 Red. masses --      2.6998                 3.2311                 3.8495
 Frc consts  --      0.0081                 0.0160                 0.0350
 IR Inten    --      0.8765                 1.2684                 1.2662

                      7                      8                      9
                      A                      A                      A
 Frequencies --    170.0407               199.5843               226.0311
 Red. masses --      4.2146                 3.8727                 3.2649
 Frc consts  --      0.0718                 0.0909                 0.0983
 IR Inten    --      3.1771                 6.0808                 3.4048

                     10                     11                     12
                      A                      A                      A
 Frequencies --    246.1982               262.3826               282.2448
 Red. masses --      2.5927                 3.0823                 1.8295
 Frc consts  --      0.0926                 0.1250                 0.0859
 IR Inten    --      4.0572                 6.8423                 1.3503

                     13                     14                     15
                      A                      A                      A
 Frequencies --    303.9498               336.9135               355.1430
 Red. masses --      1.1520                 2.5688                 2.2999
 Frc consts  --      0.0627                 0.1718                 0.1709
 IR Inten    --     73.5311                19.9947                 6.7305

                     16                     17                     18
                      A                      A                      A
 Frequencies --    428.6820               459.5419               476.5349
 Red. masses --      4.2251                 3.9533                 2.8778
 Frc consts  --      0.4575                 0.4919                 0.3850
 IR Inten    --      9.6982                 3.0829                12.5331

                     19                     20                     21
                      A                      A                      A
 Frequencies --    573.5596               583.7759               595.3233
 Red. masses --      2.4872                 2.4737                 2.8778
 Frc consts  --      0.4821                 0.4967                 0.6009
 IR Inten    --      9.6870                25.6162                 6.4316

                     22                     23                     24
                      A                      A                      A
 Frequencies --    615.3218               673.1004               759.8829
 Red. masses --      3.4856                 4.2063                 3.8863
 Frc consts  --      0.7776                 1.1228                 1.3221
 IR Inten    --     47.1499                11.3063                 8.3222

                     25                     26                     27
                      A                      A                      A
 Frequencies --    784.3752               792.7785               832.2245
 Red. masses --      2.3015                 1.8863                 2.3000
 Frc consts  --      0.8343                 0.6985                 0.9386
 IR Inten    --     10.7728                 6.4642                15.8510

                     28                     29                     30
                      A                      A                      A
 Frequencies --    842.6430               874.3122               884.3639
 Red. masses --      1.6114                 1.8303                 1.9879
 Frc consts  --      0.6741                 0.8243                 0.9160
 IR Inten    --     91.4679                33.8629                11.9463

                     31                     32                     33
                      A                      A                      A
 Frequencies --    895.4338               932.0901               938.5330
 Red. masses --      1.9290                 2.3816                 1.7949
 Frc consts  --      0.9113                 1.2191                 0.9315
 IR Inten    --      5.0927                 4.1465                 2.4897

                     34                     35                     36
                      A                      A                      A
 Frequencies --    952.8560               960.0993               971.1986
 Red. masses --      2.2589                 1.8837                 2.0043
 Frc consts  --      1.2084                 1.0230                 1.1139
 IR Inten    --      0.8615                 6.9806                20.4456

                     37                     38                     39
                      A                      A                      A
 Frequencies --    989.7622              1015.4320              1033.3399
 Red. masses --      1.5963                 1.7415                 2.1837
 Frc consts  --      0.9213                 1.0580                 1.3738
 IR Inten    --      1.6941                 1.6692                 0.5048

                     40                     41                     42
                      A                      A                      A
 Frequencies --   1044.1941              1086.0128              1102.8332
 Red. masses --      1.5617                 2.6781                 2.1576
 Frc consts  --      1.0033                 1.8610                 1.5461
 IR Inten    --     10.1921                11.2374                 9.7429

                     43                     44                     45
                      A                      A                      A
 Frequencies --   1142.5709              1149.4923              1162.2322
 Red. masses --      1.9305                 1.7990                 2.1819
 Frc consts  --      1.4849                 1.4005                 1.7365
 IR Inten    --     16.4721                45.1759                47.7721

                     46                     47                     48
                      A                      A                      A
 Frequencies --   1169.3895              1175.7191              1187.1079
 Red. masses --      2.1757                 3.2381                 1.8742
 Frc consts  --      1.7529                 2.6372                 1.5561
 IR Inten    --     23.4802                 3.1534                13.9466

                     49                     50                     51
                      A                      A                      A
 Frequencies --   1201.3681              1211.1350              1226.6431
 Red. masses --      1.2677                 1.4903                 1.5435
 Frc consts  --      1.0780                 1.2879                 1.3683
 IR Inten    --     66.9918                 5.4080                58.2166

                     52                     53                     54
                      A                      A                      A
 Frequencies --   1237.9625              1260.5832              1269.0827
 Red. masses --      1.9590                 1.2844                 1.2514
 Frc consts  --      1.7689                 1.2025                 1.1874
 IR Inten    --     31.7166                17.0248                 8.2808

                     55                     56                     57
                      A                      A                      A
 Frequencies --   1288.4909              1293.6159              1306.8076
 Red. masses --      1.3318                 1.2421                 1.3415
 Frc consts  --      1.3028                 1.2247                 1.3498
 IR Inten    --      1.8197                31.1172                 9.3808

                     58                     59                     60
                      A                      A                      A
 Frequencies --   1328.5383              1336.8213              1366.1012
 Red. masses --      1.5507                 1.3620                 1.2974
 Frc consts  --      1.6126                 1.4340                 1.4266
 IR Inten    --     33.3106                 3.9710                 3.8977

                     61                     62                     63
                      A                      A                      A
 Frequencies --   1372.7285              1385.6772              1399.2962
 Red. masses --      1.3680                 1.4705                 1.4783
 Frc consts  --      1.5188                 1.6636                 1.7055
 IR Inten    --     59.4871                 5.9831                42.4594

                     64                     65                     66
                      A                      A                      A
 Frequencies --   1414.6792              1427.0526              1448.1068
 Red. masses --      1.5582                 1.7141                 3.8527
 Frc consts  --      1.8373                 2.0567                 4.7601
 IR Inten    --      6.7168                13.4789               473.7650

                     67                     68                     69
                      A                      A                      A
 Frequencies --   1455.8751              1484.8176              1519.2610
 Red. masses --      1.4481                 1.4284                 1.0906
 Frc consts  --      1.8084                 1.8555                 1.4831
 IR Inten    --     25.8912                 3.9032                 2.9363

                     70                     71                     72
                      A                      A                      A
 Frequencies --   1525.1807              1526.6412              1533.0812
 Red. masses --      1.0856                 1.1008                 1.0948
 Frc consts  --      1.4878                 1.5115                 1.5161
 IR Inten    --      4.2562                 2.7134                 0.7617

                     73                     74                     75
                      A                      A                      A
 Frequencies --   1536.8716              1550.7731              1557.1624
 Red. masses --      1.0959                 1.0885                 1.1005
 Frc consts  --      1.5251                 1.5424                 1.5722
 IR Inten    --      3.8648                 1.5764                 3.3226

                     76                     77                     78
                      A                      A                      A
 Frequencies --   1562.0061              1772.5052              2916.7314
 Red. masses --      1.1084                 7.8571                 1.0735
 Frc consts  --      1.5933                14.5441                 5.3809
 IR Inten    --      2.7346               411.5959                96.4326

                     79                     80                     81
                      A                      A                      A
 Frequencies --   2952.6455              3014.5766              3020.8630
 Red. masses --      1.0748                 1.0737                 1.0715
 Frc consts  --      5.5206                 5.7490                 5.7613
 IR Inten    --    111.1868                42.0007                53.7027

                     82                     83                     84
                      A                      A                      A
 Frequencies --   3057.3260              3060.4113              3064.5567
 Red. masses --      1.0722                 1.0627                 1.0606
 Frc consts  --      5.9046                 5.8644                 5.8688
 IR Inten    --     23.7183                22.6209                25.9771

                     85                     86                     87
                      A                      A                      A
 Frequencies --   3078.9476              3090.1665              3096.8489
 Red. masses --      1.0669                 1.0892                 1.0888
 Frc consts  --      5.9589                 6.1280                 6.1521
 IR Inten    --     29.1651                39.3049                23.8384

                     88                     89                     90
                      A                      A                      A
 Frequencies --   3104.8716              3110.9560              3117.6787
 Red. masses --      1.1005                 1.0925                 1.0994
 Frc consts  --      6.2506                 6.2295                 6.2962
 IR Inten    --     35.3292                16.5155                33.4138

                     91                     92                     93
                      A                      A                      A
 Frequencies --   3125.7604              3134.6941              3170.5547
 Red. masses --      1.1050                 1.0992                 1.0888
 Frc consts  --      6.3612                 6.3637                 6.4489
 IR Inten    --     48.6147                18.9265                 6.9121

                     94                     95                     96
                      A                      A                      A
 Frequencies --   3520.2472              3562.3172              3742.6603
 Red. masses --      1.0752                 1.0740                 1.0660
 Frc consts  --      7.8506                 8.0301                 8.7979
 IR Inten    --      0.6632                30.6953                 8.8725

 - Thermochemistry -
 -------------------
 Temperature   298.150 Kelvin.  Pressure   1.00000 Atm.
 Atom     1 has atomic number  6 and mass  12.00000

 Molecular mass:   213.14773 amu.
 Principal axes and moments of inertia in atomic units:
                           1         2         3
     Eigenvalues --  1721.042505378.580346459.71009
           X            0.99995  -0.00963  -0.00306
           Y            0.00959   0.99989  -0.01158
           Z            0.00317   0.01155   0.99993
 This molecule is an asymmetric top.
 Rotational symmetry number  1.
 Warning -- assumption of classical behavior for rotation
           may cause significant error
 Rotational temperatures (Kelvin)      0.05033     0.01610     0.01341
 Rotational constants (GHZ):           1.04863     0.33554     0.27938
 Zero-point vibrational energy     793251.4 (Joules/Mol)
                                  189.59164 (Kcal/Mol)
 Warning -- explicit consideration of  22 degrees of freedom as
           vibrations may cause significant error
 Vibrational temperatures:     27.09    62.78    90.23   102.43   132.01
          (Kelvin)            178.81   244.65   287.16   325.21   354.22
                              377.51   406.09   437.32   484.74   510.97
                              616.78   661.18   685.63   825.22   839.92
                              856.54   885.31   968.44  1093.30  1128.54
                             1140.63  1197.39  1212.38  1257.94  1272.40
                             1288.33  1341.07  1350.34  1370.95  1381.37
                             1397.34  1424.05  1460.98  1486.75  1502.36
                             1562.53  1586.73  1643.90  1653.86  1672.19
                             1682.49  1691.60  1707.98  1728.50  1742.55
                             1764.87  1781.15  1813.70  1825.93  1853.85
                             1861.22  1880.20  1911.47  1923.39  1965.51
                             1975.05  1993.68  2013.28  2035.41  2053.21
                             2083.50  2094.68  2136.32  2185.88  2194.39
                             2196.50  2205.76  2211.22  2231.22  2240.41
                             2247.38  2550.24  4196.53  4248.20  4337.30
                             4346.35  4398.81  4403.25  4409.21  4429.92
                             4446.06  4455.67  4467.22  4475.97  4485.64
                             4497.27  4510.13  4561.72  5064.85  5125.38
                             5384.85

 Zero-point correction=                           0.302134 (Hartree/Particle)
 Thermal correction to Energy=                    0.316890
 Thermal correction to Enthalpy=                  0.317834
 Thermal correction to Gibbs Free Energy=         0.258666
 Sum of electronic and zero-point Energies=           -706.959665
 Sum of electronic and thermal Energies=              -706.944908
 Sum of electronic and thermal Enthalpies=            -706.943964
 Sum of electronic and thermal Free Energies=         -707.003133

                     E (Thermal)             CV                S
                      KCal/Mol        Cal/Mol-Kelvin    Cal/Mol-Kelvin
 Total                  198.851             56.074            124.530
 Electronic               0.000              0.000              0.000
 Translational            0.889              2.981             41.974
 Rotational               0.889              2.981             32.458
 Vibrational            197.074             50.112             50.098
 Vibration     1          0.593              1.986              6.754
 Vibration     2          0.595              1.980              5.087
 Vibration     3          0.597              1.972              4.370
 Vibration     4          0.598              1.968              4.120
 Vibration     5          0.602              1.955              3.622
 Vibration     6          0.610              1.929              3.033
 Vibration     7          0.625              1.879              2.435
 Vibration     8          0.638              1.840              2.137
 Vibration     9          0.650              1.801              1.910
 Vibration    10          0.661              1.769              1.758
 Vibration    11          0.670              1.742              1.646
 Vibration    12          0.681              1.707              1.520
 Vibration    13          0.695              1.666              1.395
 Vibration    14          0.718              1.602              1.227
 Vibration    15          0.731              1.565              1.143
 Vibration    16          0.790              1.408              0.863
 Vibration    17          0.817              1.340              0.767
 Vibration    18          0.833              1.302              0.719
 Vibration    19          0.930              1.088              0.497
 Vibration    20          0.941              1.066              0.478
 Vibration    21          0.953              1.042              0.458
 Vibration    22          0.975              0.999              0.424

 Optimization completed.
    -- Stationary point found.
 Normal termination of Gaussian 16 at Thu Dec 10 15:58:55 2020.

 ----------------------------------------------------------------------
 # B3LYP/6-311++G(d,p) empiricaldispersion=gd3bj scf=xqc pop=npa geom=c
 heck
 ----------------------------------------------------------------------

 ---------------------------------------
 CID_114761000_JID_5328_Energie_neutraal
 ---------------------------------------
 Structure from the checkpoint file:  "JID_5328.chk"
 Charge =  0 Multiplicity = 1

 SCF Done:  E(RB3LYP) =  -707.478089936     A.U. after   14 cycles
 Normal termination of Gaussian 16 at Thu Dec 10 16:04:39 2020.

 ----------------------------------------------------------------------
 # B3LYP/6-311++G(d,p) empiricaldispersion=gd3bj scf=xqc pop=npa geom=c
 heck
 ----------------------------------------------------------------------

 -------------------------------------
 CID_114761000_JID_5328_Energie_kation
 -------------------------------------
 Structure from the checkpoint file:  "JID_5328.chk"
 Charge =  1 Multiplicity = 2

 SCF Done:  E(UB3LYP) =  -707.179496110     A.U. after   32 cycles
 Normal termination of Gaussian 16 at Thu Dec 10 16:23:00 2020.
 Gaussian 16:  ES64L-G16RevA.03 25-Dec-2016

 ----------------------------------------------------------------------
 # B3LYP/6-311++G(d,p) empiricaldispersion=gd3bj scf=xqc pop=npa geom=c
 heck
 ----------------------------------------------------------------------

 ------------------------------------
 CID_114761000_JID_5328_Energie_anion
 ------------------------------------
 Structure from the checkpoint file:  "JID_5328.chk"
 Charge = -1 Multiplicity = 2

                         Standard orientation:
 ---------------------------------------------------------------------
 Center     Atomic      Atomic             Coordinates (Angstroms)
 Number     Number       Type             X           Y           Z
 ---------------------------------------------------------------------
      1          6           0        4.015611   -1.167939   -0.397886
      2          6           0        2.988739   -1.867293    0.504468
      3          6           0        1.676977   -1.168211    0.122525
      4          7           0        2.096540    0.199700   -0.221273
      5          6           0        3.559260    0.294668   -0.362298
      6          6           0        1.428601    1.343006    0.156611
      7          8           0        2.013309    2.407804    0.341312
      8          7           0        0.048803    1.221528    0.350052
      9          6           0       -0.816632    0.581403   -0.637510
     10          6           0       -2.253330    0.518926   -0.120427
     11          6           0       -2.365973   -0.310990    1.193233
     12          6           0       -3.068412   -1.625016    0.785536
     13          7           0       -2.911119   -1.652906   -0.675046
     14          6           0       -3.134745   -0.277286   -1.104292
     15          8           0       -2.657564    1.879738    0.015787
     16          1           0        5.047401   -1.288475   -0.055857
     17          1           0        3.950032   -1.565011   -1.418244
     18          1           0        3.221773   -1.672617    1.558140
     19          1           0        2.943379   -2.950907    0.360498
     20          1           0        1.215421   -1.669884   -0.739573
     21          1           0        0.944371   -1.151109    0.933950
     22          1           0        3.980469    0.835006    0.493673
     23          1           0        3.823993    0.855194   -1.263856
     24          1           0       -0.316632    2.133261    0.607602
     25          1           0       -0.816463    1.132058   -1.590408
     26          1           0       -0.490291   -0.438599   -0.836430
     27          1           0       -2.945896    0.241043    1.940108
     28          1           0       -1.374998   -0.475425    1.621785
     29          1           0       -2.614805   -2.512903    1.237421
     30          1           0       -4.128273   -1.596533    1.097488
     31          1           0       -3.546501   -2.310253   -1.119915
     32          1           0       -4.183023    0.065355   -0.988089
     33          1           0       -2.846164   -0.129216   -2.150043
     34          1           0       -3.529899    1.892822    0.439063
 ---------------------------------------------------------------------

 SCF Done:  E(UB3LYP) =  -707.469689076     A.U. after   30 cycles

 The electronic state is 2-A.
 Alpha  occ. eigenvalues --  -19.03161 -18.98437 -14.23992 -14.22428 -14.19976
 Alpha  occ. eigenvalues --  -10.19205 -10.13576 -10.11438 -10.11048 -10.10494
 Alpha  occ. eigenvalues --  -10.09339 -10.09117 -10.08771 -10.08664 -10.06787
 Alpha  occ. eigenvalues --   -0.95021  -0.93725  -0.84945  -0.82323  -0.81318
 Alpha  occ. eigenvalues --   -0.70187  -0.67031  -0.64866  -0.63569  -0.58378
 Alpha  occ. eigenvalues --   -0.54898  -0.51044  -0.50110  -0.48677  -0.46768
 Alpha  occ. eigenvalues --   -0.43558  -0.42167  -0.41438  -0.39755  -0.37465
 Alpha  occ. eigenvalues --   -0.36867  -0.35621  -0.34285  -0.34281  -0.33198
 Alpha  occ. eigenvalues --   -0.32442  -0.31441  -0.30364  -0.29440  -0.28885
 Alpha  occ. eigenvalues --   -0.28085  -0.27287  -0.26809  -0.26663  -0.26223
 Alpha  occ. eigenvalues --   -0.25074  -0.24941  -0.22992  -0.18376  -0.17887
 Alpha  occ. eigenvalues --   -0.15096  -0.14880  -0.13332   0.03923
 Alpha virt. eigenvalues --    0.05501   0.07133   0.07359   0.07849   0.08543
 Alpha virt. eigenvalues --    0.08556   0.10178   0.10276   0.10324   0.10907
 Alpha virt. eigenvalues --    0.11276   0.11540   0.12063   0.12895   0.12936

  Beta  occ. eigenvalues --  -19.03132 -18.98437 -14.23992 -14.22426 -14.19946
  Beta  occ. eigenvalues --  -10.19204 -10.13578 -10.11423 -10.11043 -10.10488
  Beta  occ. eigenvalues --  -10.09309 -10.09082 -10.08752 -10.08642 -10.06768
  Beta  occ. eigenvalues --   -0.95017  -0.93675  -0.84938  -0.82288  -0.81307
  Beta  occ. eigenvalues --   -0.70164  -0.66993  -0.64838  -0.63514  -0.58337
  Beta  occ. eigenvalues --   -0.54871  -0.50988  -0.50019  -0.48616  -0.46739
  Beta  occ. eigenvalues --   -0.43488  -0.42129  -0.41421  -0.39732  -0.37436
  Beta  occ. eigenvalues --   -0.36815  -0.35591  -0.34264  -0.34239  -0.33175
  Beta  occ. eigenvalues --   -0.32398  -0.31413  -0.30345  -0.29417  -0.28856
  Beta  occ. eigenvalues --   -0.28043  -0.27268  -0.26777  -0.26614  -0.26192
  Beta  occ. eigenvalues --   -0.25043  -0.24908  -0.22957  -0.18359  -0.17867
  Beta  occ. eigenvalues --   -0.15092  -0.14874  -0.13253
  Beta virt. eigenvalues --    0.05933   0.06827   0.07639   0.07916   0.08491
  Beta virt. eigenvalues --    0.08810   0.08986   0.10473   0.10614   0.10775
  Beta virt. eigenvalues --    0.11249   0.11499   0.11741   0.12157   0.12976

 Mulliken charges and spin densities:
               1          2
     1  C   -0.184359  -0.170066
     2  C    0.049347  -0.562442
     3  C   -0.074984  -0.113738
     4  N   -0.005793   0.078985
     5  C    0.012004  -0.235851
     6  C    0.155217  -0.047323
     7  O   -0.368782   0.001479
     8  N   -0.091893   0.051707
     9  C    0.487214  -1.058207
    10  C   -0.829893   0.690009
    11  C   -0.686443   0.567390
    12  C    1.629717  -2.002489
    13  N   -0.318306   0.192145
    14  C    0.378665  -0.815029
    15  O   -0.193447  -0.018718
    16  H   -0.130403   0.289053
    17  H   -0.008774   0.156747
    18  H    0.025089   0.127114
    19  H   -0.369329   0.543017
    20  H    0.105638   0.061584
    21  H    0.270904  -0.131113
    22  H    0.138477   0.037999
    23  H    0.117217   0.062538
    24  H    0.269008   0.043142
    25  H    0.215926  -0.022816
    26  H    0.106314   0.144937
    27  H   -0.079084   0.252308
    28  H   -0.166584   0.304875
    29  H   -0.227804   0.383706
    30  H   -0.484988   0.623123
    31  H   -0.104186   0.369700
    32  H   -0.551615   0.682915
    33  H   -0.059778   0.224066
    34  H   -0.024292   0.289256
 Sum of Mulliken charges =  -1.00000   1.00000

 Dipole moment (field-independent basis, Debye):
    X=              5.0648    Y=              1.1880    Z=             -0.8633  Tot=              5.2734
 Quadrupole moment (field-independent basis, Debye-Ang):
   XX=           -181.6687   YY=           -145.0628   ZZ=           -119.2329
   XY=             -6.1381   XZ=              0.6655   YZ=             -1.6000

 Summary of Natural Population Analysis:

                                       Natural Population
                Natural  -----------------------------------------------
    Atom  No    Charge         Core      Valence    Rydberg      Total
 -----------------------------------------------------------------------
      C    1   -0.19765      0.99964     2.18943    0.00858     3.19765
      C    2   -0.19370      0.99964     2.18584    0.00823     3.19370
      C    3   -0.08632      0.99962     2.07590    0.01079     3.08632
      N    4   -0.26979      0.99964     2.76198    0.00817     3.76979
      C    5   -0.08043      0.99963     2.07175    0.00905     3.08043
      C    6    0.41428      0.99967     1.56337    0.02268     2.58572
      O    7   -0.34068      0.99988     3.33579    0.00501     4.34068
      N    8   -0.33798      0.99968     2.83007    0.00823     3.83798
      C    9   -0.09237      0.99953     2.08252    0.01032     3.09237
      C   10    0.12537      0.99949     1.85770    0.01743     2.87463
      C   11   -0.20626      0.99958     2.19701    0.00967     3.20626
      C   12   -0.08767      0.99964     2.07671    0.01133     3.08767
      N   13   -0.34287      0.99975     2.83090    0.01223     3.84287
      C   14   -0.09531      0.99957     2.08274    0.01300     3.09531
      O   15   -0.38000      0.99988     3.37357    0.00655     4.38000
      H   16    0.10250      0.00000     0.39662    0.00088     0.39750
      H   17    0.09705      0.00000     0.40182    0.00113     0.40295
      H   18    0.09641      0.00000     0.40247    0.00111     0.40359
      H   19    0.10523      0.00000     0.39341    0.00136     0.39477
      H   20    0.09284      0.00000     0.40554    0.00162     0.40716
      H   21    0.10552      0.00000     0.39303    0.00145     0.39448
      H   22    0.09786      0.00000     0.40077    0.00137     0.40214
      H   23    0.09789      0.00000     0.40094    0.00117     0.40211
      H   24    0.19660      0.00000     0.30060    0.00280     0.30340
      H   25    0.09039      0.00000     0.40829    0.00132     0.40961
      H   26    0.10737      0.00000     0.39015    0.00247     0.39263
      H   27    0.10346      0.00000     0.39504    0.00150     0.39654
      H   28    0.10700      0.00000     0.39139    0.00161     0.39300
      H   29    0.09424      0.00000     0.40434    0.00142     0.40576
      H   30    0.08298      0.00000     0.41351    0.00351     0.41702
      H   31    0.17967      0.00000     0.31658    0.00376     0.32033
      H   32    0.08428      0.00000     0.41292    0.00280     0.41572
      H   33    0.09663      0.00000     0.40214    0.00123     0.40337
      H   34    0.23346      0.00000     0.26302    0.00352     0.26654
 =======================================================================
   * Total *    0.00000     14.99484    42.80784    0.19732    58.00000

 Normal termination of Gaussian 16 at Thu Dec 10 16:39:53 2020.
