 Gaussian 16, Revision A.03,

 -----------------------------------------------------------
 # opt freq B3LYP/6-31G(d) empiricaldispersion=gd3bj scf=xqc
 -----------------------------------------------------------

 ------------------------------
 CID_62988266_JID_9896_neutraal
 ------------------------------
 Symbolic Z-matrix:
 Charge =  0 Multiplicity = 1

 SCF Done:  E(RB3LYP) =  -860.877029759     A.U. after   15 cycles
 SCF Done:  E(RB3LYP) =  -860.883865070     A.U. after   12 cycles
 SCF Done:  E(RB3LYP) =  -860.884189575     A.U. after   12 cycles
 SCF Done:  E(RB3LYP) =  -860.884052622     A.U. after   12 cycles
 SCF Done:  E(RB3LYP) =  -860.880408480     A.U. after   13 cycles
 SCF Done:  E(RB3LYP) =  -860.880382583     A.U. after   12 cycles
 SCF Done:  E(RB3LYP) =  -860.885024078     A.U. after   10 cycles
 SCF Done:  E(RB3LYP) =  -860.885694149     A.U. after   11 cycles
 SCF Done:  E(RB3LYP) =  -860.885565737     A.U. after   12 cycles
 SCF Done:  E(RB3LYP) =  -860.885813100     A.U. after   12 cycles
 SCF Done:  E(RB3LYP) =  -860.891234027     A.U. after    9 cycles
 SCF Done:  E(RB3LYP) =  -860.891234141     A.U. after    8 cycles
 SCF Done:  E(RB3LYP) =  -860.891234224     A.U. after    7 cycles
 SCF Done:  E(RB3LYP) =  -860.891234231     A.U. after    7 cycles
 SCF Done:  E(RB3LYP) =  -860.891234222     A.U. after    6 cycles
 Optimization completed.
    -- Stationary point found.
 Normal termination of Gaussian 16 at Mon Dec 14 17:50:10 2020.

 --------------------------------------------------------------------
 #N Geom=AllCheck Guess=TCheck SCRF=Check GenChk RB3LYP/6-31G(d) Freq
 --------------------------------------------------------------------

 Structure from the checkpoint file:  "JID_9896.chk"
 ------------------------------
 CID_62988266_JID_9896_neutraal
 ------------------------------
 Charge =  0 Multiplicity = 1

 SCF Done:  E(RB3LYP) =  -860.891234222     A.U. after    1 cycles

  Exact polarizability: 203.897  15.704 171.661 -18.386   0.824 133.616
 Approx polarizability: 269.366  33.771 277.652 -42.047  -0.829 203.890

                      1                      2                      3
                      A                      A                      A
 Frequencies --     12.0047                21.0022                34.4719
 Red. masses --      5.0517                 3.6867                 3.3688
 Frc consts  --      0.0004                 0.0010                 0.0024
 IR Inten    --      0.4087                 1.0308                 0.6284

                      4                      5                      6
                      A                      A                      A
 Frequencies --     52.5406                62.4829                69.0651
 Red. masses --      6.2359                 3.8163                 4.5571
 Frc consts  --      0.0101                 0.0088                 0.0128
 IR Inten    --      0.4020                 1.2815                 1.6294

                      7                      8                      9
                      A                      A                      A
 Frequencies --    101.9134               148.6452               153.5987
 Red. masses --      2.2850                 5.0959                 4.4166
 Frc consts  --      0.0140                 0.0663                 0.0614
 IR Inten    --      2.3758                 1.4228                 1.7189

                     10                     11                     12
                      A                      A                      A
 Frequencies --    220.3096               230.7591               259.0554
 Red. masses --      1.5259                 2.6472                 2.4602
 Frc consts  --      0.0436                 0.0831                 0.0973
 IR Inten    --      0.4654                 4.5773                 6.6635

                     13                     14                     15
                      A                      A                      A
 Frequencies --    300.6755               305.3116               308.4514
 Red. masses --      3.1186                 1.5411                 1.2665
 Frc consts  --      0.1661                 0.0846                 0.0710
 IR Inten    --      1.6679                 5.5662                14.6316

                     16                     17                     18
                      A                      A                      A
 Frequencies --    323.2163               340.6884               353.3989
 Red. masses --      2.4412                 3.9401                 4.9257
 Frc consts  --      0.1503                 0.2694                 0.3625
 IR Inten    --      0.3115                 1.2358                 5.3808

                     19                     20                     21
                      A                      A                      A
 Frequencies --    365.7167               384.5825               408.3321
 Red. masses --      4.8220                 2.9838                 2.4193
 Frc consts  --      0.3800                 0.2600                 0.2377
 IR Inten    --      2.0263                 0.1474                 0.7697

                     22                     23                     24
                      A                      A                      A
 Frequencies --    425.8428               436.0899               457.5926
 Red. masses --      3.1890                 3.6410                 3.0161
 Frc consts  --      0.3407                 0.4080                 0.3721
 IR Inten    --      0.3492                 2.4629                 2.1943

                     25                     26                     27
                      A                      A                      A
 Frequencies --    489.1242               538.0449               541.2706
 Red. masses --      2.4111                 2.0686                 1.3600
 Frc consts  --      0.3399                 0.3528                 0.2348
 IR Inten    --     13.2842                42.5618                72.3174

                     28                     29                     30
                      A                      A                      A
 Frequencies --    556.1315               586.0886               617.6593
 Red. masses --      1.9692                 2.5400                 2.0767
 Frc consts  --      0.3588                 0.5141                 0.4668
 IR Inten    --     44.3232               192.7410               136.4829

                     31                     32                     33
                      A                      A                      A
 Frequencies --    635.5583               662.9292               726.8227
 Red. masses --      2.8484                 6.4652                 3.9411
 Frc consts  --      0.6779                 1.6740                 1.2267
 IR Inten    --      8.5409                 0.8599                 6.2641

                     34                     35                     36
                      A                      A                      A
 Frequencies --    743.9755               771.9922               782.3963
 Red. masses --      3.4777                 3.4718                 3.6748
 Frc consts  --      1.1341                 1.2191                 1.3254
 IR Inten    --     16.7518                10.4696                 7.7808

                     37                     38                     39
                      A                      A                      A
 Frequencies --    823.0867               835.1272               842.1713
 Red. masses --      1.2619                 2.0586                 2.8929
 Frc consts  --      0.5037                 0.8459                 1.2089
 IR Inten    --      0.1139                26.9461                14.1326

                     40                     41                     42
                      A                      A                      A
 Frequencies --    850.5359               874.4528               914.9080
 Red. masses --      2.8856                 2.5229                 2.0223
 Frc consts  --      1.2299                 1.1366                 0.9974
 IR Inten    --     11.5865                 3.0323                 5.4987

                     43                     44                     45
                      A                      A                      A
 Frequencies --    917.9044               946.0834               951.6618
 Red. masses --      1.9134                 1.3238                 1.9953
 Frc consts  --      0.9498                 0.6981                 1.0647
 IR Inten    --      8.0712                 0.8142                23.0891

                     46                     47                     48
                      A                      A                      A
 Frequencies --    956.0584               997.0835              1015.0514
 Red. masses --      1.5971                 2.3615                 2.1119
 Frc consts  --      0.8601                 1.3832                 1.2820
 IR Inten    --      7.4668                 3.3418                 3.0621

                     49                     50                     51
                      A                      A                      A
 Frequencies --   1036.1891              1046.5529              1069.4700
 Red. masses --      2.5851                 2.3155                 2.2354
 Frc consts  --      1.6353                 1.4942                 1.5064
 IR Inten    --      1.9843                13.1267                 6.1591

                     52                     53                     54
                      A                      A                      A
 Frequencies --   1089.4452              1095.3206              1101.6334
 Red. masses --      2.3050                 1.4607                 1.7599
 Frc consts  --      1.6119                 1.0325                 1.2584
 IR Inten    --      4.7025                 1.7373                 2.4557

                     55                     56                     57
                      A                      A                      A
 Frequencies --   1121.0258              1146.9083              1159.3875
 Red. masses --      2.4217                 2.2375                 2.7755
 Frc consts  --      1.7931                 1.7341                 2.1981
 IR Inten    --     21.0647                19.3805               118.4823

                     58                     59                     60
                      A                      A                      A
 Frequencies --   1161.3822              1204.0168              1208.0672
 Red. masses --      1.1888                 1.5293                 1.6235
 Frc consts  --      0.9447                 1.3062                 1.3960
 IR Inten    --     10.4225                52.8567                16.2858

                     61                     62                     63
                      A                      A                      A
 Frequencies --   1225.0009              1247.9911              1251.2523
 Red. masses --      2.5885                 1.3794                 2.5721
 Frc consts  --      2.2886                 1.2658                 2.3726
 IR Inten    --     44.8536                23.6595                62.9215

                     64                     65                     66
                      A                      A                      A
 Frequencies --   1282.6772              1298.9377              1325.2060
 Red. masses --      1.4448                 1.8364                 1.1527
 Frc consts  --      1.4006                 1.8256                 1.1927
 IR Inten    --     44.0023               164.1386                40.7544

                     67                     68                     69
                      A                      A                      A
 Frequencies --   1332.1675              1335.7423              1338.2730
 Red. masses --      2.4704                 2.1926                 1.2776
 Frc consts  --      2.5830                 2.3049                 1.3482
 IR Inten    --     26.2086                 8.8670                 9.0810

                     70                     71                     72
                      A                      A                      A
 Frequencies --   1361.3845              1370.3797              1385.4160
 Red. masses --      1.2079                 2.6427                 1.3701
 Frc consts  --      1.3190                 2.9240                 1.5494
 IR Inten    --     25.9599                 3.2930                31.7486

                     73                     74                     75
                      A                      A                      A
 Frequencies --   1397.7936              1407.1523              1419.5957
 Red. masses --      1.3041                 1.3782                 1.3139
 Frc consts  --      1.5012                 1.6078                 1.5601
 IR Inten    --      2.0435                 4.6446                 5.5628

                     76                     77                     78
                      A                      A                      A
 Frequencies --   1429.8921              1434.2614              1448.4591
 Red. masses --      1.4247                 1.3011                 1.3298
 Frc consts  --      1.7162                 1.5770                 1.6438
 IR Inten    --     37.8136                30.0565                 7.3061

                     79                     80                     81
                      A                      A                      A
 Frequencies --   1454.3490              1461.8536              1490.0525
 Red. masses --      1.9327                 1.4995                 2.8223
 Frc consts  --      2.4085                 1.8880                 3.6919
 IR Inten    --     23.1963                23.8836                 5.4094

                     82                     83                     84
                      A                      A                      A
 Frequencies --   1498.1341              1509.7709              1522.6380
 Red. masses --      1.0926                 1.1035                 1.0756
 Frc consts  --      1.4448                 1.4820                 1.4692
 IR Inten    --      5.2401                 3.9503                 1.3077

                     85                     86                     87
                      A                      A                      A
 Frequencies --   1533.3444              1535.9513              1537.7818
 Red. masses --      1.0870                 1.0991                 1.0493
 Frc consts  --      1.5058                 1.5277                 1.4620
 IR Inten    --      1.4640                13.9358                 6.5657

                     88                     89                     90
                      A                      A                      A
 Frequencies --   1547.2732              1571.0876              1635.0615
 Red. masses --      1.0892                 2.8146                 6.2848
 Frc consts  --      1.5363                 4.0932                 9.8994
 IR Inten    --      2.3277               172.5230                 0.3541

                     91                     92                     93
                      A                      A                      A
 Frequencies --   1675.0984              1697.9166              1794.2080
 Red. masses --      3.0158                 1.4069                 8.4886
 Frc consts  --      4.9857                 2.3897                16.1003
 IR Inten    --      6.3088               119.3294               364.7043

                     94                     95                     96
                      A                      A                      A
 Frequencies --   2884.5426              2931.0891              2974.6289
 Red. masses --      1.0739                 1.0732                 1.0735
 Frc consts  --      5.2649                 5.4323                 5.5965
 IR Inten    --     52.0368                38.1552                74.8484

                     97                     98                     99
                      A                      A                      A
 Frequencies --   2988.1617              3028.2560              3046.9161
 Red. masses --      1.0808                 1.0667                 1.0663
 Frc consts  --      5.6857                 5.7634                 5.8327
 IR Inten    --     72.3227                38.5748                14.2105

                    100                    101                    102
                      A                      A                      A
 Frequencies --   3065.7110              3078.4192              3091.0880
 Red. masses --      1.0352                 1.0893                 1.0978
 Frc consts  --      5.7324                 6.0822                 6.1803
 IR Inten    --     11.9146                78.1364                35.8092

                    103                    104                    105
                      A                      A                      A
 Frequencies --   3099.1746              3116.2613              3118.0350
 Red. masses --      1.0994                 1.0875                 1.0874
 Frc consts  --      6.2216                 6.2224                 6.2290
 IR Inten    --     24.4944                31.7183                18.7144

                    106                    107                    108
                      A                      A                      A
 Frequencies --   3133.6466              3154.6317              3180.7855
 Red. masses --      1.0976                 1.1040                 1.0881
 Frc consts  --      6.3506                 6.4734                 6.4863
 IR Inten    --     34.3392                14.2277                17.7617

                    109                    110                    111
                      A                      A                      A
 Frequencies --   3182.0259              3203.9579              3210.9264
 Red. masses --      1.0886                 1.0939                 1.0936
 Frc consts  --      6.4943                 6.6163                 6.6430
 IR Inten    --     17.6539                12.1416                 6.1729

                    112                    113                    114
                      A                      A                      A
 Frequencies --   3557.1595              3563.6001              3656.5406
 Red. masses --      1.0478                 1.0749                 1.0986
 Frc consts  --      7.8114                 8.0426                 8.6542
 IR Inten    --     21.1578                23.7587                10.4956

 - Thermochemistry -
 -------------------
 Temperature   298.150 Kelvin.  Pressure   1.00000 Atm.
 Atom     1 has atomic number  6 and mass  12.00000

 Molecular mass:   263.16338 amu.
 Principal axes and moments of inertia in atomic units:
                           1         2         3
     Eigenvalues --  2937.759809168.65227**********
           X            0.99999  -0.00119   0.00412
           Y            0.00108   0.99961   0.02800
           Z           -0.00415  -0.02800   0.99960
 This molecule is an asymmetric top.
 Rotational symmetry number  1.
 Warning -- assumption of classical behavior for rotation
           may cause significant error
 Rotational temperatures (Kelvin)      0.02948     0.00945     0.00848
 Rotational constants (GHZ):           0.61433     0.19684     0.17675
 Zero-point vibrational energy     908042.9 (Joules/Mol)
                                  217.02747 (Kcal/Mol)
 Warning -- explicit consideration of  30 degrees of freedom as
           vibrations may cause significant error
 Vibrational temperatures:     17.27    30.22    49.60    75.59    89.90
          (Kelvin)             99.37   146.63   213.87   220.99   316.98
                              332.01   372.72   432.61   439.28   443.79
                              465.04   490.17   508.46   526.18   553.33
                              587.50   612.69   627.44   658.37   703.74
                              774.13   778.77   800.15   843.25   888.67
                              914.43   953.81  1045.74  1070.41  1110.72
                             1125.69  1184.24  1201.56  1211.70  1223.73
                             1258.14  1316.35  1320.66  1361.20  1369.23
                             1375.55  1434.58  1460.43  1490.84  1505.76
                             1538.73  1567.47  1575.92  1585.00  1612.91
                             1650.15  1668.10  1670.97  1732.31  1738.14
                             1762.50  1795.58  1800.27  1845.49  1868.88
                             1906.68  1916.69  1921.84  1925.48  1958.73
                             1971.67  1993.30  2011.11  2024.58  2042.48
                             2057.30  2063.58  2084.01  2092.48  2103.28
                             2143.85  2155.48  2172.22  2190.74  2206.14
                             2209.89  2212.53  2226.18  2260.44  2352.49
                             2410.09  2442.92  2581.47  4150.21  4217.18
                             4279.83  4299.30  4356.99  4383.83  4410.87
                             4429.16  4447.39  4459.02  4483.60  4486.16
                             4508.62  4538.81  4576.44  4578.23  4609.78
                             4619.81  5117.96  5127.23  5260.95

 Zero-point correction=                           0.345855 (Hartree/Particle)
 Thermal correction to Energy=                    0.364408
 Thermal correction to Enthalpy=                  0.365353
 Thermal correction to Gibbs Free Energy=         0.296419
 Sum of electronic and zero-point Energies=           -860.545379
 Sum of electronic and thermal Energies=              -860.526826
 Sum of electronic and thermal Enthalpies=            -860.525882
 Sum of electronic and thermal Free Energies=         -860.594815

                     E (Thermal)             CV                S
                      KCal/Mol        Cal/Mol-Kelvin    Cal/Mol-Kelvin
 Total                  228.670             71.261            145.083
 Electronic               0.000              0.000              0.000
 Translational            0.889              2.981             42.602
 Rotational               0.889              2.981             33.975
 Vibrational            226.892             65.299             68.506
 Vibration     1          0.593              1.987              7.648
 Vibration     2          0.593              1.986              6.537
 Vibration     3          0.594              1.983              5.554
 Vibration     4          0.596              1.977              4.719
 Vibration     5          0.597              1.972              4.377
 Vibration     6          0.598              1.969              4.180
 Vibration     7          0.604              1.948              3.417
 Vibration     8          0.618              1.904              2.689
 Vibration     9          0.619              1.899              2.627
 Vibration    10          0.647              1.810              1.957
 Vibration    11          0.652              1.794              1.873
 Vibration    12          0.668              1.747              1.668
 Vibration    13          0.693              1.672              1.413
 Vibration    14          0.696              1.664              1.388
 Vibration    15          0.698              1.658              1.371
 Vibration    16          0.708              1.629              1.294
 Vibration    17          0.720              1.594              1.209
 Vibration    18          0.730              1.568              1.151
 Vibration    19          0.739              1.543              1.098
 Vibration    20          0.754              1.503              1.021
 Vibration    21          0.773              1.452              0.933
 Vibration    22          0.788              1.414              0.872
 Vibration    23          0.797              1.392              0.839
 Vibration    24          0.816              1.344              0.773
 Vibration    25          0.845              1.274              0.686
 Vibration    26          0.893              1.166              0.570
 Vibration    27          0.896              1.159              0.563
 Vibration    28          0.912              1.126              0.532
 Vibration    29          0.943              1.061              0.474
 Vibration    30          0.977              0.995              0.420

                           ! Non-Optimized Parameters !
 Normal termination of Gaussian 16 at Mon Dec 14 18:09:13 2020.

 ----------------------------------------------------------------------
 # B3LYP/6-311++G(d,p) empiricaldispersion=gd3bj scf=xqc pop=npa geom=c
 heck
 ----------------------------------------------------------------------

 --------------------------------------
 CID_62988266_JID_9896_Energie_neutraal
 --------------------------------------
 Structure from the checkpoint file:  "JID_9896.chk"
 Charge =  0 Multiplicity = 1

 SCF Done:  E(RB3LYP) =  -861.141170733     A.U. after   15 cycles
 Normal termination of Gaussian 16 at Mon Dec 14 18:17:00 2020.

 ----------------------------------------------------------------------
 # B3LYP/6-311++G(d,p) empiricaldispersion=gd3bj scf=xqc pop=npa geom=c
 heck
 ----------------------------------------------------------------------

 ------------------------------------
 CID_62988266_JID_9896_Energie_kation
 ------------------------------------
 Structure from the checkpoint file:  "JID_9896.chk"
 Charge =  1 Multiplicity = 2

 SCF Done:  E(UB3LYP) =  -860.867850223     A.U. after   27 cycles
 Normal termination of Gaussian 16 at Mon Dec 14 18:36:23 2020.
 Gaussian 16:  ES64L-G16RevA.03 25-Dec-2016

 ----------------------------------------------------------------------
 # B3LYP/6-311++G(d,p) empiricaldispersion=gd3bj scf=xqc pop=npa geom=c
 heck
 ----------------------------------------------------------------------

 -----------------------------------
 CID_62988266_JID_9896_Energie_anion
 -----------------------------------
 Structure from the checkpoint file:  "JID_9896.chk"
 Charge = -1 Multiplicity = 2

                         Standard orientation:
 ---------------------------------------------------------------------
 Center     Atomic      Atomic             Coordinates (Angstroms)
 Number     Number       Type             X           Y           Z
 ---------------------------------------------------------------------
      1          6           0        0.416014    1.860523    1.885381
      2          6           0        0.499348    0.971421    0.633252
      3          6           0        0.039265    1.864052   -0.531215
      4          8           0        0.750391    2.734827   -1.009439
      5          7           0       -1.258402    1.698221   -0.961764
      6          6           0       -2.202765    0.696887   -0.585465
      7          6           0       -2.058945   -0.624844   -1.021812
      8          6           0       -2.980020   -1.598440   -0.655305
      9          6           0       -4.090014   -1.269352    0.142358
     10          6           0       -4.240923    0.062587    0.563787
     11          6           0       -3.303744    1.027089    0.209741
     12          7           0       -4.987800   -2.253329    0.553353
     13          7           0        1.855369    0.475830    0.368166
     14          6           0        2.390361   -0.271813    1.502060
     15          6           0        3.835953   -0.749745    1.327619
     16          6           0        4.028709   -1.896797    0.334435
     17          8           0        4.080420   -1.540729   -1.038087
     18          6           0        3.318311   -0.418103   -1.455918
     19          6           0        1.905350   -0.288031   -0.881999
     20          1           0        1.176707    2.644187    1.827467
     21          1           0        0.546995    1.289096    2.807450
     22          1           0       -0.570282    2.333789    1.932727
     23          1           0       -0.206888    0.134464    0.758915
     24          1           0       -1.535689    2.391876   -1.647957
     25          1           0       -1.211572   -0.884288   -1.648927
     26          1           0       -2.846593   -2.623827   -0.990982
     27          1           0       -5.090769    0.334995    1.184671
     28          1           0       -3.420908    2.051323    0.551833
     29          1           0       -5.034046   -3.070287   -0.042280
     30          1           0       -5.910044   -1.918766    0.801937
     31          1           0        2.361874    0.378466    2.378788
     32          1           0        1.758575   -1.155933    1.737751
     33          1           0        4.167901   -1.116637    2.307731
     34          1           0        4.486212    0.093918    1.069537
     35          1           0        3.229900   -2.640342    0.500327
     36          1           0        4.981203   -2.400905    0.533336
     37          1           0        3.252482   -0.527798   -2.543428
     38          1           0        3.846677    0.522989   -1.246198
     39          1           0        1.441688   -1.290031   -0.787094
     40          1           0        1.324535    0.263264   -1.625193
 ---------------------------------------------------------------------

 SCF Done:  E(UB3LYP) =  -861.134428524     A.U. after   33 cycles
 SCF Done:  E(UB3LYP) =  -861.134428525     a.u. after    1 cycles

 The electronic state is 2-A.
 Alpha  occ. eigenvalues --  -19.04134 -19.00596 -14.25815 -14.22784 -14.21910
 Alpha  occ. eigenvalues --  -10.19065 -10.13796 -10.13476 -10.12767 -10.12653
 Alpha  occ. eigenvalues --  -10.11939 -10.11567 -10.11466 -10.09546 -10.09105
 Alpha  occ. eigenvalues --  -10.09071 -10.08611 -10.08178 -10.08078  -0.95944
 Alpha  occ. eigenvalues --   -0.95445  -0.85111  -0.84761  -0.82496  -0.74620
 Alpha  occ. eigenvalues --   -0.71194  -0.69670  -0.66388  -0.63962  -0.63346
 Alpha  occ. eigenvalues --   -0.62098  -0.57039  -0.53421  -0.52968  -0.51000
 Alpha  occ. eigenvalues --   -0.49471  -0.47576  -0.45197  -0.43186  -0.42648
 Alpha  occ. eigenvalues --   -0.42151  -0.41727  -0.41264  -0.39309  -0.37625
 Alpha  occ. eigenvalues --   -0.36489  -0.35608  -0.35312  -0.34549  -0.34204
 Alpha  occ. eigenvalues --   -0.33689  -0.33259  -0.31600  -0.31260  -0.30852
 Alpha  occ. eigenvalues --   -0.30654  -0.29734  -0.29484  -0.28321  -0.27704
 Alpha  occ. eigenvalues --   -0.27140  -0.26268  -0.25481  -0.23011  -0.22764
 Alpha  occ. eigenvalues --   -0.18278  -0.17585  -0.17533  -0.17191  -0.14339
 Alpha  occ. eigenvalues --   -0.11792   0.03764
 Alpha virt. eigenvalues --    0.05084   0.06336   0.06702   0.06773   0.07080
 Alpha virt. eigenvalues --    0.07486   0.07840   0.08508   0.09028   0.09197
 Alpha virt. eigenvalues --    0.09401   0.10001   0.10253   0.10749   0.11377

  Beta  occ. eigenvalues --  -19.04134 -19.00595 -14.25812 -14.22780 -14.21825
  Beta  occ. eigenvalues --  -10.19064 -10.13788 -10.13474 -10.12765 -10.12645
  Beta  occ. eigenvalues --  -10.11936 -10.11559 -10.11463 -10.09536 -10.09100
  Beta  occ. eigenvalues --  -10.09058 -10.08602 -10.08155 -10.08043  -0.95942
  Beta  occ. eigenvalues --   -0.95442  -0.85102  -0.84750  -0.82404  -0.74572
  Beta  occ. eigenvalues --   -0.71178  -0.69662  -0.66348  -0.63902  -0.63326
  Beta  occ. eigenvalues --   -0.62082  -0.57021  -0.53365  -0.52920  -0.50970
  Beta  occ. eigenvalues --   -0.49449  -0.47557  -0.45159  -0.43177  -0.42598
  Beta  occ. eigenvalues --   -0.42065  -0.41708  -0.41223  -0.39299  -0.37611
  Beta  occ. eigenvalues --   -0.36476  -0.35560  -0.35270  -0.34522  -0.34187
  Beta  occ. eigenvalues --   -0.33652  -0.33234  -0.31580  -0.31237  -0.30832
  Beta  occ. eigenvalues --   -0.30626  -0.29712  -0.29448  -0.28301  -0.27687
  Beta  occ. eigenvalues --   -0.27123  -0.26236  -0.25468  -0.22962  -0.22748
  Beta  occ. eigenvalues --   -0.18263  -0.17581  -0.17529  -0.17140  -0.14309
  Beta  occ. eigenvalues --   -0.11718
  Beta virt. eigenvalues --    0.05452   0.06416   0.06595   0.06886   0.07095
  Beta virt. eigenvalues --    0.07603   0.07871   0.07971   0.08929   0.09119
  Beta virt. eigenvalues --    0.09324   0.09715   0.10142   0.10484   0.10854

 Mulliken charges and spin densities:
               1          2
     1  C   -0.354104  -0.372998
     2  C   -0.310101   0.340976
     3  C   -0.053056  -0.249603
     4  O   -0.302340   0.010583
     5  N   -0.094553  -0.000554
     6  C    0.663332  -1.294992
     7  C    0.120536   0.261893
     8  C   -0.749430   0.629744
     9  C    1.687099  -2.367882
    10  C   -0.103810   0.138309
    11  C   -0.183374   0.334979
    12  N   -0.218740  -0.057957
    13  N    0.387823   0.019627
    14  C   -0.022226  -0.163980
    15  C   -0.107054  -0.142699
    16  C   -0.137166  -0.245867
    17  O   -0.125644   0.010269
    18  C   -0.469465  -0.061752
    19  C   -0.296507   0.009986
    20  H    0.182619   0.007911
    21  H   -0.022265   0.190215
    22  H    0.104686   0.023024
    23  H    0.349632  -0.133963
    24  H    0.326022  -0.009531
    25  H    0.008961   0.145427
    26  H   -0.645695   0.840207
    27  H   -0.783918   0.974373
    28  H   -0.062107   0.237134
    29  H   -0.305513   0.556413
    30  H   -0.333052   0.590464
    31  H    0.049565   0.086019
    32  H   -0.005463   0.140904
    33  H   -0.155059   0.307646
    34  H    0.167378   0.003910
    35  H    0.060294   0.079492
    36  H    0.000974   0.168735
    37  H    0.146536   0.025224
    38  H    0.148504   0.010789
    39  H    0.196815  -0.006890
    40  H    0.239870  -0.035584
 Sum of Mulliken charges =  -1.00000   1.00000

 Dipole moment (field-independent basis, Debye):
    X=              9.7478    Y=              4.9454    Z=             -1.1027  Tot=             10.9860
 Quadrupole moment (field-independent basis, Debye-Ang):
   XX=           -247.6868   YY=           -171.3697   ZZ=           -146.5107
   XY=            -27.5467   XZ=             10.3382   YZ=              1.9517

 Summary of Natural Population Analysis:

                                       Natural Population
                Natural  -----------------------------------------------
    Atom  No    Charge         Core      Valence    Rydberg      Total
 -----------------------------------------------------------------------
      C    1   -0.28850      0.99964     2.28225    0.00661     3.28850
      C    2   -0.04547      0.99955     2.03427    0.01166     3.04547
      C    3    0.34562      0.99964     1.62980    0.02494     2.65438
      O    4   -0.32155      0.99987     3.31576    0.00592     4.32155
      N    5   -0.32023      0.99964     2.81021    0.01038     3.82023
      C    6    0.03434      0.99945     1.95466    0.01155     2.96566
      C    7   -0.09340      0.99952     2.08494    0.00894     3.09340
      C    8   -0.11928      0.99952     2.10926    0.01050     3.11928
      C    9    0.09224      0.99950     1.89637    0.01190     2.90776
      C   10   -0.11682      0.99952     2.10678    0.01052     3.11682
      C   11   -0.09363      0.99951     2.08459    0.00952     3.09363
      N   12   -0.38965      0.99971     2.87949    0.01045     3.88965
      N   13   -0.27534      0.99969     2.76377    0.01189     3.77534
      C   14   -0.08576      0.99961     2.07406    0.01209     3.08576
      C   15   -0.21392      0.99962     2.20621    0.00809     3.21392
      C   16   -0.01160      0.99957     1.99842    0.01361     3.01160
      O   17   -0.30332      0.99988     3.29456    0.00887     4.30332
      C   18   -0.01406      0.99957     2.00289    0.01160     3.01406
      C   19   -0.10743      0.99961     2.09746    0.01037     3.10743
      H   20    0.10712      0.00000     0.39184    0.00104     0.39288
      H   21    0.10109      0.00000     0.39814    0.00076     0.39891
      H   22    0.10520      0.00000     0.39394    0.00086     0.39480
      H   23    0.09757      0.00000     0.40021    0.00222     0.40243
      H   24    0.19456      0.00000     0.30303    0.00241     0.30544
      H   25    0.10261      0.00000     0.39582    0.00157     0.39739
      H   26    0.10446      0.00000     0.39422    0.00132     0.39554
      H   27    0.10520      0.00000     0.39317    0.00163     0.39480
      H   28    0.10221      0.00000     0.39674    0.00105     0.39779
      H   29    0.19108      0.00000     0.29998    0.00895     0.30892
      H   30    0.19263      0.00000     0.29602    0.01135     0.30737
      H   31    0.09911      0.00000     0.39942    0.00147     0.40089
      H   32    0.07933      0.00000     0.41920    0.00147     0.42067
      H   33    0.10615      0.00000     0.39276    0.00109     0.39385
      H   34    0.10219      0.00000     0.39654    0.00127     0.39781
      H   35    0.07836      0.00000     0.42027    0.00137     0.42164
      H   36    0.08949      0.00000     0.40937    0.00114     0.41051
      H   37    0.09115      0.00000     0.40782    0.00103     0.40885
      H   38    0.08551      0.00000     0.41300    0.00148     0.41449
      H   39    0.08660      0.00000     0.41195    0.00146     0.41340
      H   40    0.10614      0.00000     0.39246    0.00140     0.39386
 =======================================================================
   * Total *    0.00000     18.99262    51.75163    0.25575    71.00000

 Normal termination of Gaussian 16 at Mon Dec 14 18:59:30 2020.
