 Gaussian 16, Revision A.03,

 -----------------------------------------------------------
 # opt freq B3LYP/6-31G(d) empiricaldispersion=gd3bj scf=xqc
 -----------------------------------------------------------

 -------------------------------
 CID_84310201_JID_10551_neutraal
 -------------------------------
 Symbolic Z-matrix:
 Charge =  0 Multiplicity = 1

 SCF Done:  E(RB3LYP) =  -904.088433220     A.U. after   15 cycles
 SCF Done:  E(RB3LYP) =  -904.096972279     A.U. after   13 cycles
 SCF Done:  E(RB3LYP) =  -904.096798407     A.U. after   13 cycles
 SCF Done:  E(RB3LYP) =  -904.098293354     A.U. after   13 cycles
 SCF Done:  E(RB3LYP) =  -904.099375351     A.U. after   12 cycles
 SCF Done:  E(RB3LYP) =  -904.099481052     A.U. after   12 cycles
 SCF Done:  E(RB3LYP) =  -904.100220206     A.U. after   12 cycles
 SCF Done:  E(RB3LYP) =  -904.100406636     A.U. after   12 cycles
 SCF Done:  E(RB3LYP) =  -904.100742511     A.U. after   12 cycles
 SCF Done:  E(RB3LYP) =  -904.100955752     A.U. after   12 cycles
 SCF Done:  E(RB3LYP) =  -904.101199040     A.U. after    9 cycles
 SCF Done:  E(RB3LYP) =  -904.101199982     A.U. after    9 cycles
 SCF Done:  E(RB3LYP) =  -904.101200117     A.U. after    8 cycles
 SCF Done:  E(RB3LYP) =  -904.101200122     A.U. after    8 cycles
 SCF Done:  E(RB3LYP) =  -904.101200126     A.U. after    7 cycles
 Optimization completed.
    -- Stationary point found.
 Normal termination of Gaussian 16 at Sun Dec 13 21:30:53 2020.

 --------------------------------------------------------------------
 #N Geom=AllCheck Guess=TCheck SCRF=Check GenChk RB3LYP/6-31G(d) Freq
 --------------------------------------------------------------------

 Structure from the checkpoint file:  "JID_10551.chk"
 -------------------------------
 CID_84310201_JID_10551_neutraal
 -------------------------------
 Charge =  0 Multiplicity = 1

 SCF Done:  E(RB3LYP) =  -904.101200126     A.U. after    1 cycles

  Exact polarizability: 225.533   5.331 176.860  -7.821  10.613 131.188
 Approx polarizability: 291.270   2.588 289.876 -14.209  24.699 207.699

                      1                      2                      3
                      A                      A                      A
 Frequencies --     13.5027                26.7148                51.3189
 Red. masses --      4.1714                 3.7463                 3.8123
 Frc consts  --      0.0004                 0.0016                 0.0059
 IR Inten    --      0.3136                 0.8147                 0.7288

                      4                      5                      6
                      A                      A                      A
 Frequencies --     55.8245                68.0778                84.8081
 Red. masses --      3.7867                 5.7022                 2.9274
 Frc consts  --      0.0070                 0.0156                 0.0124
 IR Inten    --      0.2339                 2.8573                 0.1532

                      7                      8                      9
                      A                      A                      A
 Frequencies --     94.5150               132.3291               162.1332
 Red. masses --      2.5271                 2.3372                 2.1691
 Frc consts  --      0.0133                 0.0241                 0.0336
 IR Inten    --      0.9555                 0.2383                 0.3027

                     10                     11                     12
                      A                      A                      A
 Frequencies --    166.3708               174.9813               212.6811
 Red. masses --      3.3654                 3.5808                 2.2715
 Frc consts  --      0.0549                 0.0646                 0.0605
 IR Inten    --      2.9313                 2.9269                 1.3127

                     13                     14                     15
                      A                      A                      A
 Frequencies --    226.1281               232.9913               245.4721
 Red. masses --      2.3778                 2.0483                 2.1061
 Frc consts  --      0.0716                 0.0655                 0.0748
 IR Inten    --      0.7446                 2.3050                 6.7527

                     16                     17                     18
                      A                      A                      A
 Frequencies --    274.4164               300.9842               328.1319
 Red. masses --      2.5174                 2.9107                 2.2844
 Frc consts  --      0.1117                 0.1554                 0.1449
 IR Inten    --      0.9298                 0.9190                 2.3673

                     19                     20                     21
                      A                      A                      A
 Frequencies --    348.0254               382.9779               384.4804
 Red. masses --      3.9407                 3.0544                 2.5853
 Frc consts  --      0.2812                 0.2639                 0.2252
 IR Inten    --      2.3741                 1.8213                 1.2850

                     22                     23                     24
                      A                      A                      A
 Frequencies --    412.4492               455.9644               482.4027
 Red. masses --      2.2362                 4.6500                 2.7326
 Frc consts  --      0.2241                 0.5696                 0.3747
 IR Inten    --      7.6204                 3.5619                 3.3524

                     25                     26                     27
                      A                      A                      A
 Frequencies --    489.2409               514.1771               530.0904
 Red. masses --      2.5826                 3.3398                 4.9300
 Frc consts  --      0.3642                 0.5202                 0.8162
 IR Inten    --      2.1769                 3.7871                 0.6530

                     28                     29                     30
                      A                      A                      A
 Frequencies --    558.3047               577.2638               595.1130
 Red. masses --      5.8293                 5.5843                 3.2272
 Frc consts  --      1.0706                 1.0964                 0.6734
 IR Inten    --     11.5586                12.3928                 0.5779

                     31                     32                     33
                      A                      A                      A
 Frequencies --    619.2329               665.9207               712.3935
 Red. masses --      4.4316                 2.7185                 3.3466
 Frc consts  --      1.0012                 0.7103                 1.0007
 IR Inten    --      3.8534                 0.7930                 2.6896

                     34                     35                     36
                      A                      A                      A
 Frequencies --    741.6007               760.9496               786.7519
 Red. masses --      2.7876                 2.6773                 1.3794
 Frc consts  --      0.9033                 0.9134                 0.5030
 IR Inten    --      0.1341                 7.7845                39.1710

                     37                     38                     39
                      A                      A                      A
 Frequencies --    793.2250               800.9229               832.0595
 Red. masses --      1.5312                 2.5425                 2.8309
 Frc consts  --      0.5676                 0.9609                 1.1548
 IR Inten    --      0.5845                 6.9936                 6.8298

                     40                     41                     42
                      A                      A                      A
 Frequencies --    846.9551               858.3625               862.8872
 Red. masses --      2.1363                 1.5961                 2.9501
 Frc consts  --      0.9029                 0.6929                 1.2942
 IR Inten    --      8.4041                10.2839                 3.0319

                     43                     44                     45
                      A                      A                      A
 Frequencies --    878.3859               886.7892               915.8512
 Red. masses --      2.3024                 2.2505                 2.3475
 Frc consts  --      1.0467                 1.0427                 1.1601
 IR Inten    --      3.6021                 2.6663                13.3644

                     46                     47                     48
                      A                      A                      A
 Frequencies --    953.6708               959.8295               979.0872
 Red. masses --      1.4292                 3.0935                 2.2434
 Frc consts  --      0.7659                 1.6792                 1.2671
 IR Inten    --      5.3415                48.6385                 5.3245

                     49                     50                     51
                      A                      A                      A
 Frequencies --    996.8210               998.6305              1047.4527
 Red. masses --      2.3479                 1.2916                 1.8576
 Frc consts  --      1.3746                 0.7589                 1.2008
 IR Inten    --     16.2059                 0.1082                13.0748

                     52                     53                     54
                      A                      A                      A
 Frequencies --   1048.8872              1055.9229              1058.5763
 Red. masses --      2.5224                 1.5896                 1.9929
 Frc consts  --      1.6350                 1.0442                 1.3158
 IR Inten    --      1.5947                 3.0501                 3.9983

                     55                     56                     57
                      A                      A                      A
 Frequencies --   1071.2207              1074.1806              1095.5242
 Red. masses --      2.5242                 1.6934                 1.6567
 Frc consts  --      1.7066                 1.1512                 1.1715
 IR Inten    --      1.6584                19.0814                 0.2666

                     58                     59                     60
                      A                      A                      A
 Frequencies --   1102.2810              1122.3170              1145.7421
 Red. masses --      1.9831                 1.7775                 1.8764
 Frc consts  --      1.4196                 1.3191                 1.4513
 IR Inten    --      3.0452                55.0331                37.9958

                     61                     62                     63
                      A                      A                      A
 Frequencies --   1147.5566              1162.9425              1165.5777
 Red. masses --      1.1436                 2.1015                 1.7079
 Frc consts  --      0.8873                 1.6746                 1.3671
 IR Inten    --     13.6467                18.0159                31.3038

                     64                     65                     66
                      A                      A                      A
 Frequencies --   1190.3855              1207.6261              1229.8340
 Red. masses --      1.6164                 3.5962                 2.0010
 Frc consts  --      1.3495                 3.0900                 1.7832
 IR Inten    --      6.7119               123.2849                 1.5555

                     67                     68                     69
                      A                      A                      A
 Frequencies --   1265.3955              1276.1793              1283.9919
 Red. masses --      2.3861                 1.4664                 2.0459
 Frc consts  --      2.2510                 1.4072                 1.9873
 IR Inten    --    271.7429                15.8768               109.4537

                     70                     71                     72
                      A                      A                      A
 Frequencies --   1303.2474              1304.4844              1312.8198
 Red. masses --      1.2516                 1.2369                 1.2184
 Frc consts  --      1.2525                 1.2401                 1.2372
 IR Inten    --      2.9698                 4.3769                 0.6018

                     73                     74                     75
                      A                      A                      A
 Frequencies --   1364.4753              1371.1805              1376.8617
 Red. masses --      1.3856                 1.3040                 1.5181
 Frc consts  --      1.5199                 1.4445                 1.6957
 IR Inten    --      0.6191                 3.7832                 9.7557

                     76                     77                     78
                      A                      A                      A
 Frequencies --   1377.4351              1389.3169              1400.6487
 Red. masses --      1.4862                 1.6470                 1.4344
 Frc consts  --      1.6614                 1.8730                 1.6579
 IR Inten    --      7.7109                19.5134                 0.6051

                     79                     80                     81
                      A                      A                      A
 Frequencies --   1404.1295              1408.2247              1411.5003
 Red. masses --      1.3916                 1.4563                 1.4988
 Frc consts  --      1.6165                 1.7016                 1.7593
 IR Inten    --      1.4066                 0.8291                 1.0097

                     82                     83                     84
                      A                      A                      A
 Frequencies --   1422.1965              1436.5764              1440.9396
 Red. masses --      1.4027                 1.2357                 1.2311
 Frc consts  --      1.6716                 1.5026                 1.5061
 IR Inten    --      2.0350                 4.2625                 6.1630

                     85                     86                     87
                      A                      A                      A
 Frequencies --   1455.2303              1477.1530              1504.8639
 Red. masses --      2.0727                 2.3378                 1.0886
 Frc consts  --      2.5861                 3.0055                 1.4525
 IR Inten    --      1.1998               129.8865                 3.5081

                     88                     89                     90
                      A                      A                      A
 Frequencies --   1512.2865              1513.7302              1516.7047
 Red. masses --      1.0835                 1.0915                 1.0862
 Frc consts  --      1.4600                 1.4736                 1.4722
 IR Inten    --      1.8431                 1.2620                 3.8120

                     91                     92                     93
                      A                      A                      A
 Frequencies --   1518.0513              1522.7706              1528.4940
 Red. masses --      1.0669                 1.0802                 1.0447
 Frc consts  --      1.4486                 1.4758                 1.4380
 IR Inten    --      5.4173                21.6619                 3.5959

                     94                     95                     96
                      A                      A                      A
 Frequencies --   1533.5209              1537.8829              1542.2828
 Red. masses --      1.1276                 1.1214                 1.0545
 Frc consts  --      1.5623                 1.5626                 1.4778
 IR Inten    --      5.8218                 2.4954                 4.1695

                     97                     98                     99
                      A                      A                      A
 Frequencies --   1610.2408              1664.2567              1758.4278
 Red. masses --      6.3428                 5.7716                 9.3855
 Frc consts  --      9.6897                 9.4187                17.0984
 IR Inten    --    151.2748                53.9141               348.2084

                    100                    101                    102
                      A                      A                      A
 Frequencies --   1813.3888              3023.3179              3040.5622
 Red. masses --     12.3119                 1.0677                 1.0683
 Frc consts  --     23.8538                 5.7502                 5.8192
 IR Inten    --    178.4629                25.8008                13.8590

                    103                    104                    105
                      A                      A                      A
 Frequencies --   3040.8809              3044.0060              3047.8160
 Red. masses --      1.0779                 1.0627                 1.0654
 Frc consts  --      5.8724                 5.8014                 5.8309
 IR Inten    --     71.9180                 5.6050                41.0746

                    106                    107                    108
                      A                      A                      A
 Frequencies --   3049.5798              3057.9770              3068.3525
 Red. masses --      1.0623                 1.0368                 1.0600
 Frc consts  --      5.8208                 5.7124                 5.8801
 IR Inten    --     13.7622                26.9755                19.6082

                    109                    110                    111
                      A                      A                      A
 Frequencies --   3078.0934              3078.9456              3085.1930
 Red. masses --      1.0926                 1.0376                 1.1014
 Frc consts  --      6.0995                 5.7955                 6.1770
 IR Inten    --     53.2120                18.1125                48.1978

                    112                    113                    114
                      A                      A                      A
 Frequencies --   3088.5331              3096.3635              3105.2657
 Red. masses --      1.1001                 1.1038                 1.1033
 Frc consts  --      6.1830                 6.2351                 6.2680
 IR Inten    --     27.2823                73.2373                11.2969

                    115                    116                    117
                      A                      A                      A
 Frequencies --   3110.1561              3112.7920              3123.1533
 Red. masses --      1.0928                 1.0895                 1.1026
 Frc consts  --      6.2283                 6.2195                 6.3365
 IR Inten    --     41.2920                15.1092                28.1958

                    118                    119                    120
                      A                      A                      A
 Frequencies --   3143.8131              3146.3069              3155.7529
 Red. masses --      1.0999                 1.1015                 1.1019
 Frc consts  --      6.4048                 6.4243                 6.4654
 IR Inten    --      9.4636                28.6129                16.0960

                    121                    122                    123
                      A                      A                      A
 Frequencies --   3190.6347              3229.3819              3238.8085
 Red. masses --      1.0891                 1.0922                 1.0944
 Frc consts  --      6.5325                 6.7109                 6.7639
 IR Inten    --     19.1856                 8.2344                 4.3567

 - Thermochemistry -
 -------------------
 Temperature   298.150 Kelvin.  Pressure   1.00000 Atm.
 Atom     1 has atomic number  6 and mass  12.00000

 Molecular mass:   277.16779 amu.
 Principal axes and moments of inertia in atomic units:
                           1         2         3
     Eigenvalues --  2577.157158869.009249782.47689
           X            0.99999   0.00439   0.00003
           Y           -0.00439   0.99992  -0.01145
           Z           -0.00008   0.01145   0.99993
 This molecule is an asymmetric top.
 Rotational symmetry number  1.
 Warning -- assumption of classical behavior for rotation
           may cause significant error
 Rotational temperatures (Kelvin)      0.03361     0.00977     0.00885
 Rotational constants (GHZ):           0.70028     0.20349     0.18449
 Zero-point vibrational energy     982569.5 (Joules/Mol)
                                  234.83976 (Kcal/Mol)
 Warning -- explicit consideration of  31 degrees of freedom as
           vibrations may cause significant error
 Vibrational temperatures:     19.43    38.44    73.84    80.32    97.95
          (Kelvin)            122.02   135.99   190.39   233.27   239.37
                              251.76   306.00   325.35   335.22   353.18
                              394.82   433.05   472.11   500.73   551.02
                              553.18   593.42   656.03   694.07   703.91
                              739.79   762.68   803.28   830.55   856.23
                              890.94   958.11  1024.98  1067.00  1094.84
                             1131.96  1141.27  1152.35  1197.15  1218.58
                             1234.99  1241.50  1263.80  1275.89  1317.71
                             1372.12  1380.98  1408.69  1434.20  1436.81
                             1507.05  1509.11  1519.24  1523.06  1541.25
                             1545.51  1576.22  1585.94  1614.76  1648.47
                             1651.08  1673.21  1677.01  1712.70  1737.50
                             1769.46  1820.62  1836.14  1847.38  1875.08
                             1876.86  1888.85  1963.18  1972.82  1981.00
                             1981.82  1998.92  2015.22  2020.23  2026.12
                             2030.83  2046.22  2066.91  2073.19  2093.75
                             2125.29  2165.16  2175.84  2177.92  2182.20
                             2184.14  2190.93  2199.16  2206.39  2212.67
                             2219.00  2316.78  2394.49  2529.99  2609.06
                             4349.88  4374.69  4375.15  4379.65  4385.13
                             4387.67  4399.75  4414.67  4428.69  4429.92
                             4438.90  4443.71  4454.98  4467.78  4474.82
                             4478.61  4493.52  4523.25  4526.83  4540.42
                             4590.61  4646.36  4659.92

 Zero-point correction=                           0.374241 (Hartree/Particle)
 Thermal correction to Energy=                    0.393690
 Thermal correction to Enthalpy=                  0.394634
 Thermal correction to Gibbs Free Energy=         0.324643
 Sum of electronic and zero-point Energies=           -903.726959
 Sum of electronic and thermal Energies=              -903.707510
 Sum of electronic and thermal Enthalpies=            -903.706566
 Sum of electronic and thermal Free Energies=         -903.776557

                     E (Thermal)             CV                S
                      KCal/Mol        Cal/Mol-Kelvin    Cal/Mol-Kelvin
 Total                  247.044             74.556            147.308
 Electronic               0.000              0.000              0.000
 Translational            0.889              2.981             42.757
 Rotational               0.889              2.981             33.769
 Vibrational            245.267             68.595             70.783
 Vibration     1          0.593              1.987              7.414
 Vibration     2          0.593              1.984              6.060
 Vibration     3          0.596              1.977              4.766
 Vibration     4          0.596              1.975              4.600
 Vibration     5          0.598              1.969              4.208
 Vibration     6          0.601              1.960              3.776
 Vibration     7          0.603              1.953              3.564
 Vibration     8          0.612              1.921              2.912
 Vibration     9          0.622              1.889              2.525
 Vibration    10          0.624              1.884              2.476
 Vibration    11          0.627              1.873              2.381
 Vibration    12          0.644              1.822              2.021
 Vibration    13          0.650              1.801              1.909
 Vibration    14          0.654              1.790              1.856
 Vibration    15          0.660              1.770              1.763
 Vibration    16          0.677              1.721              1.568
 Vibration    17          0.693              1.672              1.411
 Vibration    18          0.711              1.619              1.269
 Vibration    19          0.726              1.579              1.175
 Vibration    20          0.752              1.506              1.027
 Vibration    21          0.753              1.503              1.021
 Vibration    22          0.776              1.443              0.918
 Vibration    23          0.814              1.348              0.778
 Vibration    24          0.839              1.289              0.704
 Vibration    25          0.845              1.274              0.686
 Vibration    26          0.869              1.219              0.624
 Vibration    27          0.885              1.183              0.587
 Vibration    28          0.914              1.122              0.527
 Vibration    29          0.934              1.080              0.490
 Vibration    30          0.953              1.042              0.458
 Vibration    31          0.979              0.991              0.418

 Optimization completed.
    -- Stationary point found.
 Normal termination of Gaussian 16 at Sun Dec 13 21:55:30 2020.

 ----------------------------------------------------------------------
 # B3LYP/6-311++G(d,p) empiricaldispersion=gd3bj scf=xqc pop=npa geom=c
 heck
 ----------------------------------------------------------------------

 ---------------------------------------
 CID_84310201_JID_10551_Energie_neutraal
 ---------------------------------------
 Structure from the checkpoint file:  "JID_10551.chk"
 Charge =  0 Multiplicity = 1

 SCF Done:  E(RB3LYP) =  -904.350533876     A.U. after   18 cycles
 Normal termination of Gaussian 16 at Sun Dec 13 22:07:06 2020.

 ----------------------------------------------------------------------
 # B3LYP/6-311++G(d,p) empiricaldispersion=gd3bj scf=xqc pop=npa geom=c
 heck
 ----------------------------------------------------------------------

 -------------------------------------
 CID_84310201_JID_10551_Energie_kation
 -------------------------------------
 Structure from the checkpoint file:  "JID_10551.chk"
 Charge =  1 Multiplicity = 2

 SCF Done:  E(UB3LYP) =  -904.063878171     A.U. after   24 cycles
 Normal termination of Gaussian 16 at Sun Dec 13 22:28:01 2020.
 Gaussian 16:  ES64L-G16RevA.03 25-Dec-2016

 ----------------------------------------------------------------------
 # B3LYP/6-311++G(d,p) empiricaldispersion=gd3bj scf=xqc pop=npa geom=c
 heck
 ----------------------------------------------------------------------

 ------------------------------------
 CID_84310201_JID_10551_Energie_anion
 ------------------------------------
 Structure from the checkpoint file:  "JID_10551.chk"
 Charge = -1 Multiplicity = 2

                         Standard orientation:
 ---------------------------------------------------------------------
 Center     Atomic      Atomic             Coordinates (Angstroms)
 Number     Number       Type             X           Y           Z
 ---------------------------------------------------------------------
      1          6           0       -0.260869   -2.754067    1.273294
      2          6           0        0.430396   -1.390756    1.362787
      3          6           0        0.879549   -0.858791   -0.015235
      4          6           0       -0.169945   -0.146376   -0.859076
      5          8           0        0.082881    0.572606   -1.801389
      6          8           0       -1.412561   -0.467029   -0.458454
      7          6           0       -2.527925    0.081776   -1.224783
      8          6           0       -3.711435   -0.843459   -0.953670
      9          6           0       -4.167164   -0.781079    0.511649
     10          6           0       -4.458537    0.662239    0.946233
     11          6           0       -3.249877    1.575262    0.696232
     12          6           0       -2.803956    1.516567   -0.770578
     13          7           0        2.128231   -0.084521    0.039075
     14          6           0        2.196181    1.208268    0.511884
     15          6           0        3.408168    1.846830    0.567708
     16          6           0        4.581585    1.185339    0.128959
     17          6           0        4.523448   -0.094242   -0.337255
     18          6           0        3.279426   -0.818611   -0.391546
     19          8           0        3.161296   -1.988706   -0.762786
     20          6           0        0.942494    1.920679    0.940227
     21          1           0       -1.166008   -2.698904    0.662761
     22          1           0       -0.543618   -3.109117    2.270154
     23          1           0        0.411276   -3.496468    0.828530
     24          1           0       -0.228806   -0.674049    1.862547
     25          1           0        1.331988   -1.483107    1.977544
     26          1           0        1.173486   -1.733554   -0.609948
     27          1           0       -2.237887    0.065434   -2.278146
     28          1           0       -4.533399   -0.530571   -1.611685
     29          1           0       -3.444805   -1.867883   -1.237388
     30          1           0       -3.379752   -1.201470    1.149858
     31          1           0       -5.055321   -1.408863    0.649590
     32          1           0       -4.742455    0.688614    2.005208
     33          1           0       -5.320749    1.044187    0.379823
     34          1           0       -2.417711    1.259876    1.339467
     35          1           0       -3.486512    2.609823    0.971436
     36          1           0       -1.915461    2.130495   -0.946253
     37          1           0       -3.598022    1.918198   -1.415069
     38          1           0        3.450366    2.862162    0.942729
     39          1           0        5.534289    1.707120    0.170600
     40          1           0        5.399458   -0.634895   -0.675056
     41          1           0        0.309601    1.310068    1.588941
     42          1           0        1.212510    2.825094    1.489674
     43          1           0        0.347762    2.217010    0.071213
 ---------------------------------------------------------------------

 SCF Done:  E(UB3LYP) =  -904.347526085     A.U. after   33 cycles
 SCF Done:  E(UB3LYP) =  -904.347526085     a.u. after    1 cycles

 The electronic state is 2-A.
 Alpha  occ. eigenvalues --  -19.07469 -19.01615 -18.96339 -14.24746 -10.20868
 Alpha  occ. eigenvalues --  -10.14714 -10.14143 -10.11912 -10.10582 -10.08246
 Alpha  occ. eigenvalues --  -10.08010 -10.07944 -10.07432 -10.07381 -10.07363
 Alpha  occ. eigenvalues --  -10.07207 -10.06852 -10.06128 -10.05398 -10.04295
 Alpha  occ. eigenvalues --   -1.01644  -0.93018  -0.91884  -0.84383  -0.74810
 Alpha  occ. eigenvalues --   -0.72204  -0.68214  -0.66828  -0.66231  -0.65795
 Alpha  occ. eigenvalues --   -0.61319  -0.58767  -0.55107  -0.52820  -0.52300
 Alpha  occ. eigenvalues --   -0.50960  -0.50642  -0.48488  -0.43540  -0.42836
 Alpha  occ. eigenvalues --   -0.41268  -0.39909  -0.38565  -0.38297  -0.37459
 Alpha  occ. eigenvalues --   -0.35669  -0.35466  -0.34834  -0.34135  -0.33561
 Alpha  occ. eigenvalues --   -0.32984  -0.31994  -0.31249  -0.30802  -0.30423
 Alpha  occ. eigenvalues --   -0.30016  -0.29533  -0.29196  -0.28741  -0.28216
 Alpha  occ. eigenvalues --   -0.27463  -0.26436  -0.26078  -0.25387  -0.24888
 Alpha  occ. eigenvalues --   -0.24495  -0.23304  -0.22888  -0.21848  -0.21698
 Alpha  occ. eigenvalues --   -0.20554  -0.18641  -0.17955  -0.14318  -0.10183
 Alpha  occ. eigenvalues --    0.03922
 Alpha virt. eigenvalues --    0.05261   0.06784   0.06983   0.07533   0.08095
 Alpha virt. eigenvalues --    0.08776   0.09051   0.09279   0.09478   0.10200
 Alpha virt. eigenvalues --    0.10376   0.10840   0.11559   0.11665   0.11934

  Beta  occ. eigenvalues --  -19.07462 -19.01614 -18.96307 -14.24571 -10.20853
  Beta  occ. eigenvalues --  -10.14695 -10.14139 -10.11921 -10.10300 -10.08234
  Beta  occ. eigenvalues --  -10.07987 -10.07938 -10.07417 -10.07380 -10.07364
  Beta  occ. eigenvalues --  -10.07182 -10.06847 -10.05909 -10.05489 -10.04176
  Beta  occ. eigenvalues --   -1.01629  -0.92997  -0.91768  -0.84100  -0.74777
  Beta  occ. eigenvalues --   -0.72027  -0.68040  -0.66530  -0.66192  -0.65766
  Beta  occ. eigenvalues --   -0.61242  -0.58632  -0.55030  -0.52779  -0.52180
  Beta  occ. eigenvalues --   -0.50861  -0.50484  -0.48268  -0.43505  -0.42718
  Beta  occ. eigenvalues --   -0.41201  -0.39842  -0.38531  -0.38236  -0.37350
  Beta  occ. eigenvalues --   -0.35609  -0.35327  -0.34649  -0.34049  -0.33373
  Beta  occ. eigenvalues --   -0.32874  -0.31937  -0.31159  -0.30758  -0.30348
  Beta  occ. eigenvalues --   -0.29838  -0.29478  -0.29132  -0.28695  -0.28097
  Beta  occ. eigenvalues --   -0.27405  -0.26350  -0.26039  -0.25360  -0.24825
  Beta  occ. eigenvalues --   -0.24388  -0.23267  -0.22852  -0.21716  -0.21220
  Beta  occ. eigenvalues --   -0.20536  -0.18553  -0.16905  -0.14240  -0.09487
  Beta virt. eigenvalues --    0.06020   0.07069   0.07229   0.07701   0.08157
  Beta virt. eigenvalues --    0.08325   0.08872   0.09135   0.09466   0.09700
  Beta virt. eigenvalues --    0.10288   0.10484   0.10922   0.11672   0.11806

 Mulliken charges and spin densities:
               1          2
     1  C   -0.478041  -0.188767
     2  C    0.441838  -0.073357
     3  C   -1.777126   0.296038
     4  C    0.201462  -0.308401
     5  O   -0.164764   0.006090
     6  O    0.303737   0.011502
     7  C   -0.164861   0.183862
     8  C    0.146154  -0.626016
     9  C   -0.332973   0.194129
    10  C    1.118258  -1.739102
    11  C   -0.335650   0.253581
    12  C   -0.147442  -0.085080
    13  N    0.645983   0.050911
    14  C   -0.000249   0.352502
    15  C   -0.272297   0.020584
    16  C   -0.495351   0.149627
    17  C   -0.169048   0.117757
    18  C   -0.029721   0.007207
    19  O   -0.343194   0.010419
    20  C   -0.189428  -0.395560
    21  H    0.228868  -0.065824
    22  H    0.057727   0.077771
    23  H    0.123432   0.029564
    24  H    0.110223   0.092499
    25  H    0.194114  -0.017811
    26  H    0.269408  -0.006301
    27  H    0.232502  -0.004967
    28  H   -0.166212   0.311955
    29  H    0.090152   0.081426
    30  H    0.153259  -0.013730
    31  H   -0.320044   0.508114
    32  H   -0.481565   0.655352
    33  H   -0.039686   0.172463
    34  H    0.159148  -0.048942
    35  H   -0.174414   0.356684
    36  H    0.205908  -0.003626
    37  H   -0.190230   0.356377
    38  H    0.109335   0.029464
    39  H    0.128583  -0.013317
    40  H    0.149760  -0.006195
    41  H   -0.088714   0.216039
    42  H    0.079520   0.101363
    43  H    0.211638  -0.046282
 Sum of Mulliken charges =  -1.00000   1.00000

 Dipole moment (field-independent basis, Debye):
    X=              1.3275    Y=              0.4034    Z=              0.3497  Tot=              1.4308
 Quadrupole moment (field-independent basis, Debye-Ang):
   XX=           -221.8144   YY=           -152.8286   ZZ=           -152.0425
   XY=             12.5258   XZ=             13.7620   YZ=             -3.0787

 Summary of Natural Population Analysis:

                                       Natural Population
                Natural  -----------------------------------------------
    Atom  No    Charge         Core      Valence    Rydberg      Total
 -----------------------------------------------------------------------
      C    1   -0.28594      0.99966     2.28204    0.00424     3.28594
      C    2   -0.19271      0.99962     2.18349    0.00960     3.19271
      C    3   -0.06646      0.99951     2.05306    0.01389     3.06646
      C    4    0.41583      0.99964     1.55973    0.02479     2.58417
      O    5   -0.30776      0.99987     3.30300    0.00489     4.30776
      O    6   -0.29247      0.99985     3.28265    0.00997     4.29247
      C    7    0.06325      0.99952     1.92407    0.01315     2.93675
      C    8   -0.19691      0.99960     2.18802    0.00929     3.19691
      C    9   -0.19274      0.99963     2.18427    0.00884     3.19274
      C   10   -0.18894      0.99963     2.18088    0.00843     3.18894
      C   11   -0.19273      0.99963     2.18403    0.00907     3.19273
      C   12   -0.20239      0.99960     2.19434    0.00845     3.20239
      N   13   -0.20198      0.99960     2.69237    0.01001     3.70198
      C   14    0.17478      0.99952     1.81437    0.01133     2.82522
      C   15   -0.17308      0.99951     2.16543    0.00813     3.17308
      C   16   -0.03599      0.99957     2.02732    0.00910     3.03599
      C   17   -0.14024      0.99952     2.13122    0.00949     3.14024
      C   18    0.32033      0.99961     1.66016    0.01991     2.67967
      O   19   -0.34487      0.99988     3.33923    0.00577     4.34487
      C   20   -0.30978      0.99963     2.30462    0.00552     3.30978
      H   21    0.10211      0.00000     0.39682    0.00107     0.39789
      H   22    0.09647      0.00000     0.40278    0.00075     0.40353
      H   23    0.09875      0.00000     0.40034    0.00090     0.40125
      H   24    0.09899      0.00000     0.39965    0.00136     0.40101
      H   25    0.10338      0.00000     0.39573    0.00090     0.39662
      H   26    0.14107      0.00000     0.35692    0.00201     0.35893
      H   27    0.09921      0.00000     0.39918    0.00161     0.40079
      H   28    0.10040      0.00000     0.39850    0.00110     0.39960
      H   29    0.10207      0.00000     0.39698    0.00094     0.39793
      H   30    0.09843      0.00000     0.40009    0.00148     0.40157
      H   31    0.09987      0.00000     0.39903    0.00109     0.40013
      H   32    0.10069      0.00000     0.39796    0.00135     0.39931
      H   33    0.09270      0.00000     0.40564    0.00166     0.40730
      H   34    0.09718      0.00000     0.40104    0.00177     0.40282
      H   35    0.09990      0.00000     0.39907    0.00103     0.40010
      H   36    0.10706      0.00000     0.39190    0.00105     0.39294
      H   37    0.09974      0.00000     0.39919    0.00107     0.40026
      H   38    0.09839      0.00000     0.40056    0.00105     0.40161
      H   39    0.09068      0.00000     0.40834    0.00098     0.40932
      H   40    0.09957      0.00000     0.39946    0.00097     0.40043
      H   41    0.10568      0.00000     0.39298    0.00135     0.39432
      H   42    0.10551      0.00000     0.39377    0.00072     0.39449
      H   43    0.11292      0.00000     0.38591    0.00117     0.38708
 =======================================================================
   * Total *   -0.00000     19.99261    54.77615    0.23124    75.00000

 Normal termination of Gaussian 16 at Sun Dec 13 22:58:00 2020.
