 Gaussian 16, Revision A.03,

 -----------------------------------------------------------
 # opt freq B3LYP/6-31G(d) empiricaldispersion=gd3bj scf=xqc
 -----------------------------------------------------------

 -------------------------------
 CID_152797212_JID_3819_neutraal
 -------------------------------
 Symbolic Z-matrix:
 Charge =  0 Multiplicity = 1

 SCF Done:  E(RB3LYP) =  -522.101419996     A.U. after   15 cycles
 SCF Done:  E(RB3LYP) =  -522.147595877     A.U. after   14 cycles
 SCF Done:  E(RB3LYP) =  -522.188104446     A.U. after   14 cycles
 SCF Done:  E(RB3LYP) =  -522.202459388     A.U. after   13 cycles
 SCF Done:  E(RB3LYP) =  -522.213324804     A.U. after   15 cycles
 SCF Done:  E(RB3LYP) =  -522.216686377     A.U. after   13 cycles
 SCF Done:  E(RB3LYP) =  -522.217692542     A.U. after   12 cycles
 SCF Done:  E(RB3LYP) =  -522.217798601     A.U. after   11 cycles
 SCF Done:  E(RB3LYP) =  -522.217830273     A.U. after    9 cycles
 SCF Done:  E(RB3LYP) =  -522.217834072     A.U. after    8 cycles
 SCF Done:  E(RB3LYP) =  -522.217834617     A.U. after    7 cycles
 SCF Done:  E(RB3LYP) =  -522.217834994     A.U. after    8 cycles
 SCF Done:  E(RB3LYP) =  -522.217835220     A.U. after    8 cycles
 SCF Done:  E(RB3LYP) =  -522.217835376     A.U. after    8 cycles
 SCF Done:  E(RB3LYP) =  -522.217835448     A.U. after    7 cycles
 Optimization completed.
    -- Stationary point found.
 Normal termination of Gaussian 16 at Sun Dec 13 12:24:18 2020.

 --------------------------------------------------------------------
 #N Geom=AllCheck Guess=TCheck SCRF=Check GenChk RB3LYP/6-31G(d) Freq
 --------------------------------------------------------------------

 Structure from the checkpoint file:  "JID_3819.chk"
 -------------------------------
 CID_152797212_JID_3819_neutraal
 -------------------------------
 Charge =  0 Multiplicity = 1

 SCF Done:  E(RB3LYP) =  -522.217835448     A.U. after    1 cycles

  Exact polarizability: 160.533 -15.681 118.987  -3.233   0.257  94.548
 Approx polarizability: 224.120 -36.288 167.375  -7.540   1.254 154.952

                      1                      2                      3
                      A                      A                      A
 Frequencies --     69.9805                95.5427               101.2318
 Red. masses --      2.8181                 2.8806                 2.6499
 Frc consts  --      0.0081                 0.0155                 0.0160
 IR Inten    --      1.1316                 0.3982                 1.8604

                      4                      5                      6
                      A                      A                      A
 Frequencies --    139.6961               181.1468               224.7834
 Red. masses --      3.4334                 2.3770                 2.3971
 Frc consts  --      0.0395                 0.0460                 0.0714
 IR Inten    --      0.4002                 0.0949                 3.6795

                      7                      8                      9
                      A                      A                      A
 Frequencies --    229.3130               250.3057               269.4192
 Red. masses --      1.7350                 1.3898                 2.9830
 Frc consts  --      0.0538                 0.0513                 0.1276
 IR Inten    --      2.3992                 0.4766                 2.6242

                     10                     11                     12
                      A                      A                      A
 Frequencies --    341.6361               353.0125               367.0143
 Red. masses --      2.8620                 3.5461                 3.0408
 Frc consts  --      0.1968                 0.2604                 0.2413
 IR Inten    --      1.1925                 2.7771                 1.9261

                     13                     14                     15
                      A                      A                      A
 Frequencies --    382.0394               431.2462               443.0932
 Red. masses --      3.1422                 2.5421                 4.6787
 Frc consts  --      0.2702                 0.2785                 0.5412
 IR Inten    --      8.2290                 2.7186                 6.5375

                     16                     17                     18
                      A                      A                      A
 Frequencies --    469.9436               527.8567               565.7999
 Red. masses --      4.2231                 3.3282                 2.9841
 Frc consts  --      0.5495                 0.5464                 0.5628
 IR Inten    --      2.0077                 2.5203                27.7996

                     19                     20                     21
                      A                      A                      A
 Frequencies --    577.4910               629.5546               764.1099
 Red. masses --      2.9297                 3.2032                 2.7603
 Frc consts  --      0.5757                 0.7480                 0.9495
 IR Inten    --     17.7024                11.1531                12.2167

                     22                     23                     24
                      A                      A                      A
 Frequencies --    775.6905               803.1831               842.9701
 Red. masses --      1.9967                 1.8518                 2.0493
 Frc consts  --      0.7079                 0.7038                 0.8580
 IR Inten    --     28.7114                13.5192                 0.4363

                     25                     26                     27
                      A                      A                      A
 Frequencies --    878.2706               900.9151               911.9129
 Red. masses --      2.0509                 2.3408                 1.8548
 Frc consts  --      0.9321                 1.1194                 0.9088
 IR Inten    --      0.4450                 0.8818                 5.7070

                     28                     29                     30
                      A                      A                      A
 Frequencies --    916.7988               966.6173               969.8446
 Red. masses --      1.9614                 1.9835                 1.5452
 Frc consts  --      0.9713                 1.0919                 0.8563
 IR Inten    --      6.4703                 1.2839                 3.4933

                     31                     32                     33
                      A                      A                      A
 Frequencies --   1016.5407              1047.9232              1061.0534
 Red. masses --      1.1480                 2.8835                 3.0748
 Frc consts  --      0.6989                 1.8657                 2.0396
 IR Inten    --     22.2621                10.3708                 4.8204

                     34                     35                     36
                      A                      A                      A
 Frequencies --   1070.8235              1092.0255              1099.1725
 Red. masses --      2.0562                 2.3339                 2.8903
 Frc consts  --      1.3891                 1.6398                 2.0574
 IR Inten    --      4.4774                 0.6626                 1.4691

                     37                     38                     39
                      A                      A                      A
 Frequencies --   1122.8881              1146.5009              1151.0875
 Red. masses --      2.0700                 2.3547                 2.1590
 Frc consts  --      1.5378                 1.8236                 1.6855
 IR Inten    --      7.7790                 3.6004                 3.6328

                     40                     41                     42
                      A                      A                      A
 Frequencies --   1160.5479              1173.0225              1192.3009
 Red. masses --      3.0847                 1.6933                 1.2171
 Frc consts  --      2.4479                 1.3728                 1.0194
 IR Inten    --      0.2757                 3.8105                 1.1370

                     43                     44                     45
                      A                      A                      A
 Frequencies --   1222.2327              1224.1337              1244.1903
 Red. masses --      1.2123                 1.3303                 1.3740
 Frc consts  --      1.0670                 1.1745                 1.2532
 IR Inten    --     10.4015                 8.9890                 2.4653

                     46                     47                     48
                      A                      A                      A
 Frequencies --   1271.4114              1298.4103              1312.6373
 Red. masses --      1.2496                 1.3034                 1.2365
 Frc consts  --      1.1901                 1.2947                 1.2553
 IR Inten    --      6.8902                 5.4331                 4.1412

                     49                     50                     51
                      A                      A                      A
 Frequencies --   1322.6206              1337.9923              1355.3730
 Red. masses --      1.1730                 1.2534                 1.2654
 Frc consts  --      1.2090                 1.3220                 1.3696
 IR Inten    --      0.8268                 9.7410                14.1084

                     52                     53                     54
                      A                      A                      A
 Frequencies --   1369.7197              1374.4701              1382.2206
 Red. masses --      1.4487                 1.3476                 1.3189
 Frc consts  --      1.6013                 1.5000                 1.4846
 IR Inten    --      1.3062                 3.7522                 6.5741

                     55                     56                     57
                      A                      A                      A
 Frequencies --   1399.5050              1403.0526              1425.2952
 Red. masses --      1.4464                 1.3015                 1.4536
 Frc consts  --      1.6691                 1.5096                 1.7398
 IR Inten    --      2.7695                 5.2892                 2.9105

                     58                     59                     60
                      A                      A                      A
 Frequencies --   1436.3185              1455.1587              1506.0464
 Red. masses --      1.3650                 1.3918                 1.0897
 Frc consts  --      1.6591                 1.7364                 1.4562
 IR Inten    --     11.4497                10.2955                 0.2739

                     61                     62                     63
                      A                      A                      A
 Frequencies --   1507.3486              1521.7153              1522.3405
 Red. masses --      1.0893                 1.0639                 1.1123
 Frc consts  --      1.4583                 1.4515                 1.5188
 IR Inten    --      4.1497                 2.9448                 1.7386

                     64                     65                     66
                      A                      A                      A
 Frequencies --   1528.1895              1557.9291              1743.7940
 Red. masses --      1.0505                 1.0867                 6.0462
 Frc consts  --      1.4454                 1.5540                10.8324
 IR Inten    --      2.7406                 2.7456                 2.1116

                     67                     68                     69
                      A                      A                      A
 Frequencies --   2342.0263              2914.3791              3006.4994
 Red. masses --     11.7575                 1.0812                 1.0572
 Frc consts  --     37.9969                 5.4109                 5.6305
 IR Inten    --      2.4840                67.2925                66.7897

                     70                     71                     72
                      A                      A                      A
 Frequencies --   3021.2421              3021.7648              3036.3086
 Red. masses --      1.0634                 1.0934                 1.0886
 Frc consts  --      5.7187                 5.8826                 5.9130
 IR Inten    --     44.6375                21.0430                 3.4539

                     73                     74                     75
                      A                      A                      A
 Frequencies --   3040.9634              3044.6575              3047.2471
 Red. masses --      1.0612                 1.0883                 1.0397
 Frc consts  --      5.7821                 5.9441                 5.6881
 IR Inten    --     30.7817                30.5537                25.1448

                     76                     77                     78
                      A                      A                      A
 Frequencies --   3055.9528              3059.0269              3075.9605
 Red. masses --      1.0609                 1.0975                 1.0997
 Frc consts  --      5.8371                 6.0506                 6.1306
 IR Inten    --     50.1455                63.4464                30.5603

                     79                     80                     81
                      A                      A                      A
 Frequencies --   3103.0834              3111.7878              3118.3230
 Red. masses --      1.1046                 1.1020                 1.0881
 Frc consts  --      6.2665                 6.2869                 6.2337
 IR Inten    --     20.0149                31.2234                20.4551

                     82                     83                     84
                      A                      A                      A
 Frequencies --   3126.9712              3141.7396              3536.6888
 Red. masses --      1.1028                 1.0890                 1.0756
 Frc consts  --      6.3532                 6.3334                 7.9266
 IR Inten    --     29.4146                33.6997                 1.1328

 - Thermochemistry -
 -------------------
 Temperature   298.150 Kelvin.  Pressure   1.00000 Atm.
 Atom     1 has atomic number  6 and mass  12.00000

 Molecular mass:   175.13610 amu.
 Principal axes and moments of inertia in atomic units:
                           1         2         3
     Eigenvalues --  1269.117993151.410024214.42171
           X            0.99995  -0.01026  -0.00019
           Y            0.01026   0.99994   0.00256
           Z            0.00016  -0.00256   1.00000
 This molecule is an asymmetric top.
 Rotational symmetry number  1.
 Warning -- assumption of classical behavior for rotation
           may cause significant error
 Rotational temperatures (Kelvin)      0.06825     0.02748     0.02055
 Rotational constants (GHZ):           1.42204     0.57268     0.42823
 Zero-point vibrational energy     701257.1 (Joules/Mol)
                                  167.60447 (Kcal/Mol)
 Warning -- explicit consideration of  19 degrees of freedom as
           vibrations may cause significant error
 Vibrational temperatures:    100.69   137.46   145.65   200.99   260.63
          (Kelvin)            323.41   329.93   360.13   387.63   491.54
                              507.91   528.05   549.67   620.47   637.51
                              676.14   759.47   814.06   830.88   905.79
                             1099.38  1116.05  1155.60  1212.85  1263.64
                             1296.22  1312.04  1319.07  1390.75  1395.39
                             1462.58  1507.73  1526.62  1540.68  1571.18
                             1581.46  1615.59  1649.56  1656.16  1669.77
                             1687.72  1715.46  1758.52  1761.26  1790.11
                             1829.28  1868.12  1888.59  1902.96  1925.07
                             1950.08  1970.72  1977.56  1988.71  2013.58
                             2018.68  2050.68  2066.54  2093.65  2166.86
                             2168.74  2189.41  2190.31  2198.72  2241.51
                             2508.93  3369.65  4193.14  4325.68  4346.89
                             4347.65  4368.57  4375.27  4380.58  4384.31
                             4396.83  4401.26  4425.62  4464.64  4477.17
                             4486.57  4499.01  4520.26  5088.51

 Zero-point correction=                           0.267095 (Hartree/Particle)
 Thermal correction to Energy=                    0.279436
 Thermal correction to Enthalpy=                  0.280380
 Thermal correction to Gibbs Free Energy=         0.229219
 Sum of electronic and zero-point Energies=           -521.950741
 Sum of electronic and thermal Energies=              -521.938400
 Sum of electronic and thermal Enthalpies=            -521.937456
 Sum of electronic and thermal Free Energies=         -521.988617

                     E (Thermal)             CV                S
                      KCal/Mol        Cal/Mol-Kelvin    Cal/Mol-Kelvin
 Total                  175.349             48.768            107.678
 Electronic               0.000              0.000              0.000
 Translational            0.889              2.981             41.388
 Rotational               0.889              2.981             31.200
 Vibrational            173.571             42.807             35.090
 Vibration     1          0.598              1.968              4.154
 Vibration     2          0.603              1.952              3.543
 Vibration     3          0.604              1.948              3.430
 Vibration     4          0.615              1.914              2.808
 Vibration     5          0.630              1.865              2.317
 Vibration     6          0.649              1.803              1.920
 Vibration     7          0.652              1.796              1.884
 Vibration     8          0.663              1.762              1.728
 Vibration     9          0.674              1.729              1.600
 Vibration    10          0.721              1.592              1.204
 Vibration    11          0.729              1.569              1.153
 Vibration    12          0.740              1.540              1.092
 Vibration    13          0.752              1.508              1.031
 Vibration    14          0.792              1.402              0.855
 Vibration    15          0.803              1.376              0.817
 Vibration    16          0.827              1.317              0.738
 Vibration    17          0.883              1.188              0.592
 Vibration    18          0.922              1.105              0.512
 Vibration    19          0.934              1.080              0.490

 Optimization completed.
    -- Stationary point found.
 Normal termination of Gaussian 16 at Sun Dec 13 12:32:10 2020.

 ----------------------------------------------------------------------
 # B3LYP/6-311++G(d,p) empiricaldispersion=gd3bj scf=xqc pop=npa geom=c
 heck
 ----------------------------------------------------------------------

 ---------------------------------------
 CID_152797212_JID_3819_Energie_neutraal
 ---------------------------------------
 Structure from the checkpoint file:  "JID_3819.chk"
 Charge =  0 Multiplicity = 1

 SCF Done:  E(RB3LYP) =  -522.362855692     A.U. after   15 cycles
 Normal termination of Gaussian 16 at Sun Dec 13 12:35:16 2020.

 ----------------------------------------------------------------------
 # B3LYP/6-311++G(d,p) empiricaldispersion=gd3bj scf=xqc pop=npa geom=c
 heck
 ----------------------------------------------------------------------

 -------------------------------------
 CID_152797212_JID_3819_Energie_kation
 -------------------------------------
 Structure from the checkpoint file:  "JID_3819.chk"
 Charge =  1 Multiplicity = 2

 SCF Done:  E(UB3LYP) =  -522.072734064     A.U. after   25 cycles
 Normal termination of Gaussian 16 at Sun Dec 13 12:42:04 2020.
 Gaussian 16:  ES64L-G16RevA.03 25-Dec-2016

 ----------------------------------------------------------------------
 # B3LYP/6-311++G(d,p) empiricaldispersion=gd3bj scf=xqc pop=npa geom=c
 heck
 ----------------------------------------------------------------------

 ------------------------------------
 CID_152797212_JID_3819_Energie_anion
 ------------------------------------
 Structure from the checkpoint file:  "JID_3819.chk"
 Charge = -1 Multiplicity = 2

                         Standard orientation:
 ---------------------------------------------------------------------
 Center     Atomic      Atomic             Coordinates (Angstroms)
 Number     Number       Type             X           Y           Z
 ---------------------------------------------------------------------
      1          6           0       -2.582331   -2.133788   -0.369033
      2          6           0       -2.149464   -0.835066    0.298295
      3          6           0       -0.774263   -0.324921   -0.154836
      4          6           0        0.432821   -1.012455    0.397398
      5          6           0        1.488574   -1.409875   -0.317702
      6          6           0        2.866871   -1.433534    0.270099
      7          6           0        3.591122   -0.059895   -0.050784
      8          6           0        2.627419    1.044543   -0.047749
      9          6           0        1.576253    1.639694   -0.143190
     10          6           0        0.200973    2.123738   -0.294001
     11          6           0       -0.823323    1.151788    0.336988
     12          6           0       -2.295797    1.554893    0.105152
     13          7           0       -3.028252    0.285991   -0.064794
     14          1           0       -3.571245   -2.451417   -0.018058
     15          1           0       -1.868576   -2.934807   -0.145327
     16          1           0       -2.635756   -1.997658   -1.454344
     17          1           0       -2.103350   -0.998331    1.393377
     18          1           0       -0.746845   -0.338048   -1.253270
     19          1           0        0.535549   -0.960762    1.483894
     20          1           0        1.420910   -1.413399   -1.406642
     21          1           0        2.802938   -1.544588    1.358087
     22          1           0        3.498219   -2.243104   -0.114454
     23          1           0        4.409139    0.089114    0.664277
     24          1           0        4.055550   -0.126897   -1.043373
     25          1           0        0.071976    3.117707    0.156366
     26          1           0       -0.030197    2.241166   -1.362641
     27          1           0       -0.628647    1.128944    1.417345
     28          1           0       -2.393221    2.168441   -0.802593
     29          1           0       -2.671829    2.160887    0.942074
     30          1           0       -3.899979    0.270076    0.455022
 ---------------------------------------------------------------------

 SCF Done:  E(UB3LYP) =  -522.346499994     A.U. after   33 cycles
 SCF Done:  E(UB3LYP) =  -522.346499993     a.u. after    1 cycles

 The electronic state is 2-A.
 Alpha  occ. eigenvalues --  -14.18955 -10.09716 -10.09553 -10.09506 -10.08851
 Alpha  occ. eigenvalues --  -10.08263 -10.08027 -10.07590 -10.06538 -10.06453
 Alpha  occ. eigenvalues --  -10.06173 -10.05827 -10.05802  -0.81700  -0.73022
 Alpha  occ. eigenvalues --   -0.70060  -0.68362  -0.65164  -0.61507  -0.60261
 Alpha  occ. eigenvalues --   -0.55887  -0.53039  -0.47555  -0.47027  -0.45899
 Alpha  occ. eigenvalues --   -0.40829  -0.39083  -0.37151  -0.36231  -0.35841
 Alpha  occ. eigenvalues --   -0.34716  -0.32655  -0.32144  -0.31136  -0.30667
 Alpha  occ. eigenvalues --   -0.30120  -0.27547  -0.26889  -0.26540  -0.25669
 Alpha  occ. eigenvalues --   -0.24945  -0.23765  -0.23326  -0.22688  -0.16456
 Alpha  occ. eigenvalues --   -0.15623  -0.13281  -0.12048   0.04598
 Alpha virt. eigenvalues --    0.06023   0.07438   0.07688   0.08685   0.08810
 Alpha virt. eigenvalues --    0.09289   0.09725   0.10293   0.10475   0.11404
 Alpha virt. eigenvalues --    0.11517   0.12147   0.12299   0.12927   0.13136

  Beta  occ. eigenvalues --  -14.18928 -10.09706 -10.09522 -10.09490 -10.08824
  Beta  occ. eigenvalues --  -10.08255 -10.08009 -10.07590 -10.06520 -10.06433
  Beta  occ. eigenvalues --  -10.06172 -10.05826 -10.05788  -0.81663  -0.72987
  Beta  occ. eigenvalues --   -0.70028  -0.68327  -0.65132  -0.61463  -0.60232
  Beta  occ. eigenvalues --   -0.55835  -0.52984  -0.47520  -0.46968  -0.45839
  Beta  occ. eigenvalues --   -0.40776  -0.39038  -0.37103  -0.36198  -0.35810
  Beta  occ. eigenvalues --   -0.34670  -0.32616  -0.32113  -0.31099  -0.30627
  Beta  occ. eigenvalues --   -0.30067  -0.27515  -0.26857  -0.26506  -0.25636
  Beta  occ. eigenvalues --   -0.24913  -0.23735  -0.23276  -0.22649  -0.16418
  Beta  occ. eigenvalues --   -0.15611  -0.13214  -0.11998
  Beta virt. eigenvalues --    0.06832   0.07385   0.07870   0.07954   0.09101
  Beta virt. eigenvalues --    0.09369   0.09690   0.10074   0.10581   0.10764
  Beta virt. eigenvalues --    0.11692   0.11945   0.12344   0.12600   0.13162

 Mulliken charges and spin densities:
               1          2
     1  C    0.320406  -0.972955
     2  C   -1.179453   1.057307
     3  C    1.868629  -2.102211
     4  C    0.675107  -0.921295
     5  C   -0.902032   1.043102
     6  C   -0.102878  -0.243650
     7  C    1.361783  -2.343877
     8  C   -0.484931   0.704913
     9  C    0.608571   0.431822
    10  C   -0.829513  -0.728770
    11  C   -1.489040   2.190785
    12  C    1.450796  -2.191746
    13  N   -0.259876   0.188438
    14  H   -0.132187   0.267885
    15  H    0.165931  -0.026461
    16  H    0.073495   0.072681
    17  H   -0.592252   0.766027
    18  H    0.135717   0.055360
    19  H    0.044518   0.103754
    20  H   -0.086462   0.221732
    21  H   -0.090898   0.251720
    22  H   -0.411627   0.574226
    23  H   -0.358672   0.530641
    24  H   -0.065709   0.226927
    25  H   -0.067887   0.248635
    26  H    0.106033   0.050924
    27  H    0.030731   0.184088
    28  H    0.068564   0.088377
    29  H   -0.800648   0.965567
    30  H   -0.056216   0.306053
 Sum of Mulliken charges =  -1.00000   1.00000

 Dipole moment (field-independent basis, Debye):
    X=              0.5790    Y=             -0.8774    Z=             -3.6042  Tot=              3.7544
 Quadrupole moment (field-independent basis, Debye-Ang):
   XX=           -167.6250   YY=           -121.5169   ZZ=           -111.5858
   XY=              8.2946   XZ=              6.6329   YZ=             -3.5467

 Summary of Natural Population Analysis:

                                       Natural Population
                Natural  -----------------------------------------------
    Atom  No    Charge         Core      Valence    Rydberg      Total
 -----------------------------------------------------------------------
      C    1   -0.28478      0.99964     2.27877    0.00636     3.28478
      C    2   -0.00446      0.99958     1.99200    0.01289     3.00446
      C    3   -0.12731      0.99954     2.11520    0.01257     3.12731
      C    4   -0.07577      0.99947     2.06525    0.01105     3.07577
      C    5   -0.09028      0.99949     2.08149    0.00930     3.09028
      C    6   -0.19558      0.99961     2.18600    0.00996     3.19558
      C    7   -0.21898      0.99957     2.21030    0.00911     3.21898
      C    8   -0.01099      0.99920     2.00434    0.00745     3.01099
      C    9   -0.00265      0.99922     1.99659    0.00684     3.00265
      C   10   -0.22169      0.99955     2.21357    0.00857     3.22169
      C   11   -0.09659      0.99957     2.08628    0.01074     3.09659
      C   12   -0.07971      0.99960     2.06889    0.01122     3.07971
      N   13   -0.34727      0.99973     2.83521    0.01234     3.84727
      H   14    0.09883      0.00000     0.40029    0.00087     0.40117
      H   15    0.10074      0.00000     0.39843    0.00083     0.39926
      H   16    0.09811      0.00000     0.40082    0.00108     0.40189
      H   17    0.08128      0.00000     0.41602    0.00271     0.41872
      H   18    0.09886      0.00000     0.39937    0.00177     0.40114
      H   19    0.09242      0.00000     0.40593    0.00165     0.40758
      H   20    0.08953      0.00000     0.40884    0.00163     0.41047
      H   21    0.09946      0.00000     0.39914    0.00140     0.40054
      H   22    0.10109      0.00000     0.39752    0.00139     0.39891
      H   23    0.11174      0.00000     0.38631    0.00195     0.38826
      H   24    0.10719      0.00000     0.39135    0.00146     0.39281
      H   25    0.11221      0.00000     0.38657    0.00123     0.38779
      H   26    0.10730      0.00000     0.39146    0.00124     0.39270
      H   27    0.09861      0.00000     0.39906    0.00233     0.40139
      H   28    0.08387      0.00000     0.41441    0.00172     0.41613
      H   29    0.09343      0.00000     0.40334    0.00323     0.40657
      H   30    0.18139      0.00000     0.31495    0.00366     0.31861
 =======================================================================
   * Total *   -0.00000     12.99378    34.84768    0.15854    48.00000

 Normal termination of Gaussian 16 at Sun Dec 13 12:51:03 2020.
