 Gaussian 16, Revision A.03,

 -----------------------------------------------------------
 # opt freq B3LYP/6-31G(d) empiricaldispersion=gd3bj scf=xqc
 -----------------------------------------------------------

 ------------------------------
 CID_89526330_JID_3214_neutraal
 ------------------------------
 Symbolic Z-matrix:
 Charge =  0 Multiplicity = 1

 SCF Done:  E(RB3LYP) =  -633.664729344     A.U. after   15 cycles
 SCF Done:  E(RB3LYP) =  -633.666195244     A.U. after   13 cycles
 SCF Done:  E(RB3LYP) =  -633.663633004     A.U. after   13 cycles
 SCF Done:  E(RB3LYP) =  -633.670460575     A.U. after   12 cycles
 SCF Done:  E(RB3LYP) =  -633.671211196     A.U. after   13 cycles
 SCF Done:  E(RB3LYP) =  -633.673535880     A.U. after   12 cycles
 SCF Done:  E(RB3LYP) =  -633.671946936     A.U. after   13 cycles
 SCF Done:  E(RB3LYP) =  -633.674559703     A.U. after   12 cycles
 SCF Done:  E(RB3LYP) =  -633.674600622     A.U. after   11 cycles
 SCF Done:  E(RB3LYP) =  -633.674744984     A.U. after   12 cycles
 SCF Done:  E(RB3LYP) =  -633.674829027     A.U. after   10 cycles
 SCF Done:  E(RB3LYP) =  -633.674829628     A.U. after    7 cycles
 SCF Done:  E(RB3LYP) =  -633.674829904     A.U. after    7 cycles
 SCF Done:  E(RB3LYP) =  -633.674829939     A.U. after    7 cycles
 SCF Done:  E(RB3LYP) =  -633.674829972     A.U. after    7 cycles
 SCF Done:  E(RB3LYP) =  -633.674829996     A.U. after    6 cycles
 Optimization completed.
    -- Stationary point found.
 Normal termination of Gaussian 16 at Wed Dec  9 22:36:10 2020.

 --------------------------------------------------------------------
 #N Geom=AllCheck Guess=TCheck SCRF=Check GenChk RB3LYP/6-31G(d) Freq
 --------------------------------------------------------------------

 Structure from the checkpoint file:  "JID_3214.chk"
 ------------------------------
 CID_89526330_JID_3214_neutraal
 ------------------------------
 Charge =  0 Multiplicity = 1

 SCF Done:  E(RB3LYP) =  -633.674829996     A.U. after    1 cycles

  Exact polarizability: 108.531   1.097 113.795  -0.322   2.840  97.631
 Approx polarizability: 138.825  -1.623 158.177  -2.316   8.932 156.573

                      1                      2                      3
                      A                      A                      A
 Frequencies --     33.0804                49.8679                50.2585
 Red. masses --      3.6947                 4.5372                 4.5818
 Frc consts  --      0.0024                 0.0066                 0.0068
 IR Inten    --      0.5312                 2.0940                 1.2840

                      4                      5                      6
                      A                      A                      A
 Frequencies --     72.7790               112.1906               133.0043
 Red. masses --      3.1647                 3.3982                 1.1292
 Frc consts  --      0.0099                 0.0252                 0.0118
 IR Inten    --      0.3718                 1.6258                 0.3035

                      7                      8                      9
                      A                      A                      A
 Frequencies --    153.7984               192.8628               198.5892
 Red. masses --      1.9727                 3.2244                 2.8383
 Frc consts  --      0.0275                 0.0707                 0.0660
 IR Inten    --      0.3656                 4.3858                 2.3084

                     10                     11                     12
                      A                      A                      A
 Frequencies --    211.4030               238.0327               243.0414
 Red. masses --      3.0310                 1.5646                 1.0529
 Frc consts  --      0.0798                 0.0522                 0.0366
 IR Inten    --      2.1935                 3.2572                16.9923

                     13                     14                     15
                      A                      A                      A
 Frequencies --    258.8750               263.0560               328.1787
 Red. masses --      1.3001                 1.9984                 3.2782
 Frc consts  --      0.0513                 0.0815                 0.2080
 IR Inten    --     25.8405                13.9584                 5.7388

                     16                     17                     18
                      A                      A                      A
 Frequencies --    349.8785               363.1510               377.1367
 Red. masses --      3.4174                 2.2264                 3.7310
 Frc consts  --      0.2465                 0.1730                 0.3127
 IR Inten    --      3.7481                 3.2898                18.9831

                     19                     20                     21
                      A                      A                      A
 Frequencies --    390.3010               434.4867               473.9763
 Red. masses --      3.9092                 2.0864                 4.1515
 Frc consts  --      0.3509                 0.2321                 0.5495
 IR Inten    --      7.1107                 0.9947                 3.7047

                     22                     23                     24
                      A                      A                      A
 Frequencies --    533.2213               595.3556               721.9854
 Red. masses --      4.1325                 3.4419                 2.2991
 Frc consts  --      0.6923                 0.7188                 0.7061
 IR Inten    --      9.3950                 5.1304                 3.6925

                     25                     26                     27
                      A                      A                      A
 Frequencies --    737.7513               774.5657               796.5317
 Red. masses --      5.5984                 1.4164                 3.4282
 Frc consts  --      1.7953                 0.5007                 1.2815
 IR Inten    --      0.5361                 1.8194                19.2974

                     28                     29                     30
                      A                      A                      A
 Frequencies --    832.7386               869.5439               900.8386
 Red. masses --      2.7601                 2.9019                 1.7572
 Frc consts  --      1.1277                 1.2928                 0.8402
 IR Inten    --      0.3345                19.7881                10.7734

                     31                     32                     33
                      A                      A                      A
 Frequencies --    953.8256               965.9801               978.9704
 Red. masses --      2.2083                 2.0609                 1.7564
 Frc consts  --      1.1837                 1.1331                 0.9918
 IR Inten    --      6.3521                59.6729                 6.5807

                     34                     35                     36
                      A                      A                      A
 Frequencies --    999.6823              1014.2278              1054.6624
 Red. masses --      1.6057                 3.8233                 2.3718
 Frc consts  --      0.9454                 2.3172                 1.5543
 IR Inten    --     87.6483                16.8107                97.7785

                     37                     38                     39
                      A                      A                      A
 Frequencies --   1078.5836              1081.6928              1125.2450
 Red. masses --      1.5854                 1.9922                 1.7126
 Frc consts  --      1.0867                 1.3734                 1.2776
 IR Inten    --     35.4254                 5.9823                14.2697

                     40                     41                     42
                      A                      A                      A
 Frequencies --   1143.2183              1180.3757              1187.9294
 Red. masses --      2.0057                 2.2301                 1.3080
 Frc consts  --      1.5444                 1.8307                 1.0875
 IR Inten    --     28.5894                10.1942                 1.9637

                     43                     44                     45
                      A                      A                      A
 Frequencies --   1214.8093              1226.3384              1236.0096
 Red. masses --      1.6750                 1.4042                 2.8012
 Frc consts  --      1.4564                 1.2442                 2.5213
 IR Inten    --     29.4799                 6.0800               143.8807

                     46                     47                     48
                      A                      A                      A
 Frequencies --   1268.1883              1288.2576              1329.4313
 Red. masses --      1.3571                 3.3735                 1.2018
 Frc consts  --      1.2859                 3.2987                 1.2514
 IR Inten    --      8.5793               145.4079                 3.5457

                     49                     50                     51
                      A                      A                      A
 Frequencies --   1379.4760              1383.6554              1402.0911
 Red. masses --      1.4987                 1.7178                 1.4221
 Frc consts  --      1.6804                 1.9376                 1.6472
 IR Inten    --     16.6538                16.2024                 9.0499

                     52                     53                     54
                      A                      A                      A
 Frequencies --   1406.3917              1434.3497              1442.5166
 Red. masses --      1.3989                 1.2230                 1.2597
 Frc consts  --      1.6302                 1.4825                 1.5444
 IR Inten    --      6.1071                 6.4309                 3.6524

                     55                     56                     57
                      A                      A                      A
 Frequencies --   1491.6293              1505.7439              1511.2764
 Red. masses --      1.2010                 1.0808                 1.0482
 Frc consts  --      1.5744                 1.4438                 1.4105
 IR Inten    --      6.7955                 6.0389                 2.7669

                     58                     59                     60
                      A                      A                      A
 Frequencies --   1516.1547              1519.3784              1522.5988
 Red. masses --      1.0863                 1.0663                 1.0489
 Frc consts  --      1.4712                 1.4504                 1.4327
 IR Inten    --      5.8902                13.0489                 2.9478

                     61                     62                     63
                      A                      A                      A
 Frequencies --   1523.5191              1524.2762              1534.2501
 Red. masses --      1.0571                 1.0544                 1.0543
 Frc consts  --      1.4457                 1.4434                 1.4622
 IR Inten    --      9.8325                 4.8941                13.6777

                     64                     65                     66
                      A                      A                      A
 Frequencies --   1540.4875              1699.9634              1799.1731
 Red. masses --      1.0703                 1.1255                 9.0518
 Frc consts  --      1.4965                 1.9163                17.2637
 IR Inten    --      2.8761                62.6529                83.8425

                     67                     68                     69
                      A                      A                      A
 Frequencies --   1818.0587              3042.7625              3047.0529
 Red. masses --     10.0964                 1.0674                 1.0592
 Frc consts  --     19.6623                 5.8228                 5.7944
 IR Inten    --    173.6727                16.1045                12.0080

                     70                     71                     72
                      A                      A                      A
 Frequencies --   3048.7812              3053.8358              3069.6134
 Red. masses --      1.0419                 1.0671                 1.0365
 Frc consts  --      5.7057                 5.8631                 5.7540
 IR Inten    --     26.4973                25.3528                16.1318

                     73                     74                     75
                      A                      A                      A
 Frequencies --   3081.0616              3085.8604              3102.3606
 Red. masses --      1.0977                 1.0301                 1.0971
 Frc consts  --      6.1397                 5.7794                 6.2216
 IR Inten    --     17.9026                28.2510                 6.0277

                     76                     77                     78
                      A                      A                      A
 Frequencies --   3114.3659              3118.5329              3126.4039
 Red. masses --      1.1013                 1.0968                 1.0978
 Frc consts  --      6.2933                 6.2846                 6.3222
 IR Inten    --     54.0286                24.7299                54.1869

                     79                     80                     81
                      A                      A                      A
 Frequencies --   3141.6857              3163.1658              3165.4817
 Red. masses --      1.1006                 1.1038                 1.1072
 Frc consts  --      6.4003                 6.5069                 6.5368
 IR Inten    --     19.2428                11.0889                15.1054

                     82                     83                     84
                      A                      A                      A
 Frequencies --   3192.3690              3461.6193              3539.8955
 Red. masses --      1.1082                 1.0500                 1.0902
 Frc consts  --      6.6540                 7.4130                 8.0486
 IR Inten    --     12.5611                 2.7118                 8.0304

 - Thermochemistry -
 -------------------
 Temperature   298.150 Kelvin.  Pressure   1.00000 Atm.
 Atom     1 has atomic number  6 and mass  12.00000

 Molecular mass:   187.12084 amu.
 Principal axes and moments of inertia in atomic units:
                           1         2         3
     Eigenvalues --  2082.448182430.351203526.54175
           X            0.99683   0.07874  -0.01101
           Y           -0.07878   0.99689  -0.00332
           Z            0.01072   0.00417   0.99993
 This molecule is an asymmetric top.
 Rotational symmetry number  1.
 Warning -- assumption of classical behavior for rotation
           may cause significant error
 Rotational temperatures (Kelvin)      0.04159     0.03564     0.02456
 Rotational constants (GHZ):           0.86664     0.74258     0.51176
 Zero-point vibrational energy     685028.0 (Joules/Mol)
                                  163.72563 (Kcal/Mol)
 Warning -- explicit consideration of  23 degrees of freedom as
           vibrations may cause significant error
 Vibrational temperatures:     47.60    71.75    72.31   104.71   161.42
          (Kelvin)            191.36   221.28   277.49   285.73   304.16
                              342.48   349.68   372.46   378.48   472.18
                              503.40   522.49   542.62   561.56   625.13
                              681.95   767.19   856.58  1038.78  1061.46
                             1114.43  1146.03  1198.13  1251.08  1296.11
                             1372.34  1389.83  1408.52  1438.32  1459.25
                             1517.42  1551.84  1556.31  1618.98  1644.84
                             1698.30  1709.17  1747.84  1764.43  1778.34
                             1824.64  1853.52  1912.76  1984.76  1990.77
                             2017.30  2023.48  2063.71  2075.46  2146.12
                             2166.43  2174.39  2181.41  2186.05  2190.68
                             2192.00  2193.09  2207.44  2216.42  2445.87
                             2588.61  2615.78  4377.86  4384.03  4386.52
                             4393.79  4416.49  4432.96  4439.86  4463.60
                             4480.88  4486.87  4498.20  4520.19  4551.09
                             4554.42  4593.11  4980.50  5093.12

 Zero-point correction=                           0.260913 (Hartree/Particle)
 Thermal correction to Energy=                    0.276433
 Thermal correction to Enthalpy=                  0.277377
 Thermal correction to Gibbs Free Energy=         0.217878
 Sum of electronic and zero-point Energies=           -633.413917
 Sum of electronic and thermal Energies=              -633.398397
 Sum of electronic and thermal Enthalpies=            -633.397453
 Sum of electronic and thermal Free Energies=         -633.456952

                     E (Thermal)             CV                S
                      KCal/Mol        Cal/Mol-Kelvin    Cal/Mol-Kelvin
 Total                  173.464             55.661            125.226
 Electronic               0.000              0.000              0.000
 Translational            0.889              2.981             41.586
 Rotational               0.889              2.981             31.257
 Vibrational            171.687             49.699             52.383
 Vibration     1          0.594              1.983              5.636
 Vibration     2          0.595              1.978              4.823
 Vibration     3          0.595              1.977              4.807
 Vibration     4          0.599              1.967              4.077
 Vibration     5          0.607              1.939              3.231
 Vibration     6          0.613              1.920              2.902
 Vibration     7          0.619              1.898              2.625
 Vibration     8          0.635              1.850              2.200
 Vibration     9          0.637              1.842              2.146
 Vibration    10          0.643              1.823              2.032
 Vibration    11          0.656              1.782              1.818
 Vibration    12          0.659              1.774              1.781
 Vibration    13          0.668              1.748              1.669
 Vibration    14          0.670              1.741              1.641
 Vibration    15          0.711              1.619              1.269
 Vibration    16          0.727              1.575              1.167
 Vibration    17          0.737              1.548              1.109
 Vibration    18          0.748              1.519              1.051
 Vibration    19          0.758              1.491              0.999
 Vibration    20          0.795              1.395              0.844
 Vibration    21          0.831              1.308              0.726
 Vibration    22          0.888              1.177              0.580
 Vibration    23          0.953              1.042              0.458

 Optimization completed.
    -- Stationary point found.
 Normal termination of Gaussian 16 at Wed Dec  9 22:45:30 2020.

 ----------------------------------------------------------------------
 # B3LYP/6-311++G(d,p) empiricaldispersion=gd3bj scf=xqc pop=npa geom=c
 heck
 ----------------------------------------------------------------------

 --------------------------------------
 CID_89526330_JID_3214_Energie_neutraal
 --------------------------------------
 Structure from the checkpoint file:  "JID_3214.chk"
 Charge =  0 Multiplicity = 1

 SCF Done:  E(RB3LYP) =  -633.868149149     A.U. after   14 cycles
 Normal termination of Gaussian 16 at Wed Dec  9 22:49:51 2020.

 ----------------------------------------------------------------------
 # B3LYP/6-311++G(d,p) empiricaldispersion=gd3bj scf=xqc pop=npa geom=c
 heck
 ----------------------------------------------------------------------

 ------------------------------------
 CID_89526330_JID_3214_Energie_kation
 ------------------------------------
 Structure from the checkpoint file:  "JID_3214.chk"
 Charge =  1 Multiplicity = 2

 SCF Done:  E(UB3LYP) =  -633.542036816     A.U. after   23 cycles
 Normal termination of Gaussian 16 at Wed Dec  9 22:59:28 2020.
 Gaussian 16:  ES64L-G16RevA.03 25-Dec-2016

 ----------------------------------------------------------------------
 # B3LYP/6-311++G(d,p) empiricaldispersion=gd3bj scf=xqc pop=npa geom=c
 heck
 ----------------------------------------------------------------------

 -----------------------------------
 CID_89526330_JID_3214_Energie_anion
 -----------------------------------
 Structure from the checkpoint file:  "JID_3214.chk"
 Charge = -1 Multiplicity = 2

                         Standard orientation:
 ---------------------------------------------------------------------
 Center     Atomic      Atomic             Coordinates (Angstroms)
 Number     Number       Type             X           Y           Z
 ---------------------------------------------------------------------
      1          6           0        2.756293    1.415783   -0.141521
      2          6           0        2.669801   -0.036903   -0.617272
      3          6           0        2.429208   -1.042465    0.518964
      4          6           0        1.015442   -0.960238    1.119535
      5          6           0       -0.033994   -1.460715    0.137460
      6          8           0        0.120992   -2.495818   -0.479404
      7          6           0       -1.370485   -0.668924   -0.032912
      8          6           0       -2.162768   -0.813440    1.278575
      9          6           0       -1.018919    0.781683   -0.377041
     10          8           0       -0.642296    1.124186   -1.479061
     11          8           0       -1.146040    1.627302    0.660200
     12          6           0       -0.867194    3.009261    0.364701
     13          7           0       -2.164510   -1.179887   -1.145614
     14          1           0        3.598333    1.554917    0.547634
     15          1           0        1.847130    1.723832    0.385531
     16          1           0        2.893198    2.100441   -0.985263
     17          1           0        1.872542   -0.130288   -1.365766
     18          1           0        3.603328   -0.301718   -1.129238
     19          1           0        2.573233   -2.062330    0.148034
     20          1           0        3.165371   -0.879736    1.316606
     21          1           0        0.952198   -1.612422    2.001544
     22          1           0        0.775452    0.050323    1.462156
     23          1           0       -1.601240   -0.454756    2.144503
     24          1           0       -3.095676   -0.250786    1.202658
     25          1           0       -2.409067   -1.869591    1.430205
     26          1           0       -1.554167    3.373570   -0.402620
     27          1           0       -1.017610    3.541284    1.303655
     28          1           0        0.159055    3.125676    0.010889
     29          1           0       -1.735444   -0.846007   -2.008630
     30          1           0       -2.040624   -2.192803   -1.159410
 ---------------------------------------------------------------------

 SCF Done:  E(UB3LYP) =  -633.859888384     A.U. after   31 cycles

 The electronic state is 2-A.
 Alpha  occ. eigenvalues --  -19.06657 -19.00264 -18.97528 -14.18107 -10.18857
 Alpha  occ. eigenvalues --  -10.12092 -10.11007 -10.10734 -10.05695 -10.05156
 Alpha  occ. eigenvalues --  -10.05138 -10.04941 -10.04860  -1.00576  -0.91739
 Alpha  occ. eigenvalues --   -0.91285  -0.78303  -0.68807  -0.66022  -0.62276
 Alpha  occ. eigenvalues --   -0.61133  -0.55278  -0.52875  -0.47836  -0.45624
 Alpha  occ. eigenvalues --   -0.43024  -0.39733  -0.38560  -0.37550  -0.36485
 Alpha  occ. eigenvalues --   -0.35331  -0.34774  -0.33056  -0.31892  -0.30704
 Alpha  occ. eigenvalues --   -0.30069  -0.28664  -0.28136  -0.27813  -0.27476
 Alpha  occ. eigenvalues --   -0.26534  -0.26004  -0.25288  -0.23829  -0.22122
 Alpha  occ. eigenvalues --   -0.21379  -0.21063  -0.20434  -0.17561  -0.15019
 Alpha  occ. eigenvalues --   -0.11979   0.04827
 Alpha virt. eigenvalues --    0.06643   0.07851   0.08442   0.09279   0.10117
 Alpha virt. eigenvalues --    0.10370   0.10810   0.11016   0.11638   0.11850
 Alpha virt. eigenvalues --    0.12935   0.13243   0.13560   0.14440   0.14584

  Beta  occ. eigenvalues --  -19.06637 -19.00180 -18.97262 -14.18107 -10.18781
  Beta  occ. eigenvalues --  -10.12052 -10.10765 -10.10663 -10.05661 -10.05176
  Beta  occ. eigenvalues --  -10.05132 -10.04904 -10.04840  -1.00489  -0.91532
  Beta  occ. eigenvalues --   -0.90841  -0.78260  -0.68712  -0.65907  -0.62135
  Beta  occ. eigenvalues --   -0.61059  -0.55072  -0.52792  -0.47579  -0.45559
  Beta  occ. eigenvalues --   -0.42820  -0.39594  -0.38301  -0.37441  -0.36367
  Beta  occ. eigenvalues --   -0.35165  -0.34711  -0.32913  -0.31746  -0.30393
  Beta  occ. eigenvalues --   -0.29918  -0.28495  -0.28036  -0.27673  -0.27355
  Beta  occ. eigenvalues --   -0.26449  -0.25852  -0.25148  -0.23016  -0.22042
  Beta  occ. eigenvalues --   -0.21321  -0.20623  -0.20195  -0.17471  -0.14924
  Beta  occ. eigenvalues --   -0.11788
  Beta virt. eigenvalues --    0.07328   0.08237   0.08625   0.09227   0.09890
  Beta virt. eigenvalues --    0.10445   0.10718   0.11125   0.11239   0.11851
  Beta virt. eigenvalues --    0.12736   0.13165   0.13450   0.13953   0.14578

 Mulliken charges and spin densities:
               1          2
     1  C    0.322091  -0.880941
     2  C   -0.814614   0.667298
     3  C    0.780850  -1.243631
     4  C   -0.081499   0.237932
     5  C   -0.079016  -0.142378
     6  O   -0.316644   0.106857
     7  C    0.082577   0.189578
     8  C   -0.456269  -0.017190
     9  C   -0.361052  -0.189680
    10  O   -0.233996   0.048206
    11  O   -0.035977   0.061782
    12  C    0.728611  -0.888800
    13  N   -0.281937  -0.016634
    14  H   -0.142624   0.270859
    15  H   -0.256594   0.362279
    16  H    0.019444   0.103858
    17  H    0.150686   0.016590
    18  H    0.058878   0.093139
    19  H    0.180434  -0.013146
    20  H   -0.359674   0.515711
    21  H   -0.377382   0.607589
    22  H    0.245001  -0.127439
    23  H    0.043974   0.113060
    24  H    0.166698  -0.001445
    25  H    0.151506  -0.001589
    26  H   -0.032759   0.193971
    27  H   -0.556089   0.720148
    28  H   -0.012408   0.190340
    29  H    0.227113   0.017218
    30  H    0.240672   0.006459
 Sum of Mulliken charges =  -1.00000   1.00000

 Dipole moment (field-independent basis, Debye):
    X=             -2.3591    Y=             -0.9357    Z=             -2.0910  Tot=              3.2883
 Quadrupole moment (field-independent basis, Debye-Ang):
   XX=           -119.3166   YY=           -128.7792   ZZ=           -110.6320
   XY=              3.4126   XZ=             -8.4837   YZ=             -3.6533

 Summary of Natural Population Analysis:

                                       Natural Population
                Natural  -----------------------------------------------
    Atom  No    Charge         Core      Valence    Rydberg      Total
 -----------------------------------------------------------------------
      C    1   -0.28445      0.99966     2.27945    0.00534     3.28445
      C    2   -0.19341      0.99964     2.18591    0.00786     3.19341
      C    3   -0.18511      0.99962     2.17545    0.01004     3.18511
      C    4   -0.24438      0.99958     2.23497    0.00983     3.24438
      C    5    0.33964      0.99963     1.63623    0.02451     2.66036
      O    6   -0.28027      0.99987     3.27353    0.00687     4.28027
      C    7   -0.02285      0.99951     2.00947    0.01386     3.02285
      C    8   -0.27924      0.99963     2.27197    0.00764     3.27924
      C    9    0.42266      0.99962     1.55032    0.02740     2.57734
      O   10   -0.30672      0.99987     3.30150    0.00535     4.30672
      O   11   -0.27661      0.99986     3.26808    0.00867     4.27661
      C   12   -0.10544      0.99959     2.09646    0.00939     3.10544
      N   13   -0.42399      0.99976     2.91502    0.00921     3.92399
      H   14    0.09346      0.00000     0.40549    0.00105     0.40654
      H   15    0.09465      0.00000     0.40402    0.00133     0.40535
      H   16    0.09637      0.00000     0.40287    0.00076     0.40363
      H   17    0.10216      0.00000     0.39653    0.00131     0.39784
      H   18    0.09062      0.00000     0.40850    0.00088     0.40938
      H   19    0.10353      0.00000     0.39528    0.00118     0.39647
      H   20    0.09429      0.00000     0.40422    0.00149     0.40571
      H   21    0.11675      0.00000     0.38048    0.00278     0.38325
      H   22    0.10019      0.00000     0.39780    0.00201     0.39981
      H   23    0.10465      0.00000     0.39428    0.00107     0.39535
      H   24    0.10336      0.00000     0.39559    0.00105     0.39664
      H   25    0.09788      0.00000     0.40133    0.00079     0.40212
      H   26    0.08920      0.00000     0.40971    0.00108     0.41080
      H   27    0.09378      0.00000     0.40446    0.00176     0.40622
      H   28    0.09459      0.00000     0.40408    0.00132     0.40541
      H   29    0.18341      0.00000     0.31488    0.00171     0.31659
      H   30    0.18127      0.00000     0.31693    0.00180     0.31873
 =======================================================================
   * Total *   -0.00000     12.99584    37.83481    0.16936    51.00000

 Normal termination of Gaussian 16 at Wed Dec  9 23:12:14 2020.
