 Gaussian 16, Revision A.03,

 -----------------------------------------------------------
 # opt freq B3LYP/6-31G(d) empiricaldispersion=gd3bj scf=xqc
 -----------------------------------------------------------

 ------------------------------
 CID_55272482_JID_4681_neutraal
 ------------------------------
 Symbolic Z-matrix:
 Charge =  0 Multiplicity = 1

 SCF Done:  E(RB3LYP) =  -612.367590937     A.U. after   14 cycles
 SCF Done:  E(RB3LYP) =  -612.372301932     A.U. after   12 cycles
 SCF Done:  E(RB3LYP) =  -612.373343516     A.U. after   12 cycles
 SCF Done:  E(RB3LYP) =  -612.373491358     A.U. after   12 cycles
 SCF Done:  E(RB3LYP) =  -612.373713806     A.U. after   11 cycles
 SCF Done:  E(RB3LYP) =  -612.373729154     A.U. after   10 cycles
 SCF Done:  E(RB3LYP) =  -612.373735506     A.U. after    8 cycles
 SCF Done:  E(RB3LYP) =  -612.373736746     A.U. after    8 cycles
 SCF Done:  E(RB3LYP) =  -612.373737756     A.U. after    8 cycles
 SCF Done:  E(RB3LYP) =  -612.373738315     A.U. after    8 cycles
 SCF Done:  E(RB3LYP) =  -612.373738588     A.U. after    8 cycles
 Optimization completed.
    -- Stationary point found.
 Normal termination of Gaussian 16 at Thu Dec 10 10:19:49 2020.

 --------------------------------------------------------------------
 #N Geom=AllCheck Guess=TCheck SCRF=Check GenChk RB3LYP/6-31G(d) Freq
 --------------------------------------------------------------------

 Structure from the checkpoint file:  "JID_4681.chk"
 ------------------------------
 CID_55272482_JID_4681_neutraal
 ------------------------------
 Charge =  0 Multiplicity = 1

 SCF Done:  E(RB3LYP) =  -612.373738588     A.U. after    1 cycles

  Exact polarizability: 194.460   4.543 126.329   4.354 -10.646  72.590
 Approx polarizability: 277.331   8.463 221.926   6.912 -23.150 107.815

                      1                      2                      3
                      A                      A                      A
 Frequencies --     43.5983                82.0344               130.3232
 Red. masses --      4.2645                 4.0684                 3.8595
 Frc consts  --      0.0048                 0.0161                 0.0386
 IR Inten    --      0.9879                 1.4052                 1.7274

                      4                      5                      6
                      A                      A                      A
 Frequencies --    167.9816               198.3808               214.1427
 Red. masses --      3.6727                 4.3589                 1.1017
 Frc consts  --      0.0611                 0.1011                 0.0298
 IR Inten    --      6.8347                 1.4354                37.9816

                      7                      8                      9
                      A                      A                      A
 Frequencies --    244.0628               255.4093               284.7585
 Red. masses --      1.2961                 4.5273                 3.1059
 Frc consts  --      0.0455                 0.1740                 0.1484
 IR Inten    --      2.5731                 2.7515                 2.0064

                     10                     11                     12
                      A                      A                      A
 Frequencies --    300.5418               352.9578               363.2827
 Red. masses --      2.2635                 4.0105                 2.9114
 Frc consts  --      0.1205                 0.2944                 0.2264
 IR Inten    --      2.7592                 8.6355                 1.1806

                     13                     14                     15
                      A                      A                      A
 Frequencies --    418.5909               450.6162               470.0891
 Red. masses --      3.2398                 3.4085                 2.2664
 Frc consts  --      0.3345                 0.4078                 0.2951
 IR Inten    --      6.3269                 3.5166                29.5490

                     16                     17                     18
                      A                      A                      A
 Frequencies --    513.5071               537.5415               569.9397
 Red. masses --      1.6271                 2.6882                 2.3214
 Frc consts  --      0.2528                 0.4576                 0.4443
 IR Inten    --    122.1774                22.4680                46.3084

                     19                     20                     21
                      A                      A                      A
 Frequencies --    593.2415               606.2553               628.7369
 Red. masses --      4.1225                 1.6854                 4.5180
 Frc consts  --      0.8548                 0.3650                 1.0523
 IR Inten    --     10.3519                66.0554                13.3655

                     22                     23                     24
                      A                      A                      A
 Frequencies --    638.0605               713.0957               754.0608
 Red. masses --      3.7551                 3.7398                 1.2873
 Frc consts  --      0.9007                 1.1205                 0.4313
 IR Inten    --      1.5763                20.4091                35.4419

                     25                     26                     27
                      A                      A                      A
 Frequencies --    769.6899               803.9559               817.5873
 Red. masses --      3.0529                 1.7203                 2.3843
 Frc consts  --      1.0656                 0.6551                 0.9390
 IR Inten    --      2.8823                19.3166                 7.6808

                     28                     29                     30
                      A                      A                      A
 Frequencies --    859.2629               864.1667               906.3602
 Red. masses --      1.5504                 2.1966                 4.9792
 Frc consts  --      0.6744                 0.9665                 2.4099
 IR Inten    --      0.9783                54.0437                 1.0693

                     31                     32                     33
                      A                      A                      A
 Frequencies --    921.0527               930.0635               949.0928
 Red. masses --      1.3402                 1.4706                 2.1317
 Frc consts  --      0.6699                 0.7495                 1.1314
 IR Inten    --      1.7981                24.1208                38.2000

                     34                     35                     36
                      A                      A                      A
 Frequencies --    965.2044               987.8078              1014.7726
 Red. masses --      1.2270                 2.5616                 1.6379
 Frc consts  --      0.6735                 1.4727                 0.9938
 IR Inten    --      0.0163                13.0059                16.4504

                     37                     38                     39
                      A                      A                      A
 Frequencies --   1045.3768              1071.9058              1099.6345
 Red. masses --      2.1635                 1.6389                 4.3833
 Frc consts  --      1.3930                 1.1095                 3.1228
 IR Inten    --      1.5165                19.0374                91.5958

                     40                     41                     42
                      A                      A                      A
 Frequencies --   1135.8997              1147.9399              1181.1581
 Red. masses --      1.5823                 1.5671                 1.5434
 Frc consts  --      1.2029                 1.2167                 1.2687
 IR Inten    --      5.2624                 1.5773                13.6297

                     43                     44                     45
                      A                      A                      A
 Frequencies --   1186.3557              1217.2456              1229.2027
 Red. masses --      1.2350                 2.0066                 1.5752
 Frc consts  --      1.0241                 1.7517                 1.4023
 IR Inten    --      2.3463                 1.9176                39.0039

                     46                     47                     48
                      A                      A                      A
 Frequencies --   1262.3731              1264.6065              1320.6317
 Red. masses --      1.7145                 1.8958                 3.4576
 Frc consts  --      1.6098                 1.7863                 3.5529
 IR Inten    --     21.0269                11.6643                25.9402

                     49                     50                     51
                      A                      A                      A
 Frequencies --   1356.2280              1377.2797              1404.2480
 Red. masses --      2.2181                 1.9086                 1.9175
 Frc consts  --      2.4038                 2.1331                 2.2278
 IR Inten    --     37.8411                26.9273                12.3908

                     52                     53                     54
                      A                      A                      A
 Frequencies --   1408.4747              1433.7487              1442.9821
 Red. masses --      1.8200                 1.3523                 1.2477
 Frc consts  --      2.1273                 1.6379                 1.5307
 IR Inten    --     14.1572                26.2011                44.4435

                     55                     56                     57
                      A                      A                      A
 Frequencies --   1459.3240              1496.5342              1514.5805
 Red. masses --      3.2808                 2.9680                 1.0719
 Frc consts  --      4.1165                 3.9165                 1.4487
 IR Inten    --     14.9044                23.5287                 3.4199

                     58                     59                     60
                      A                      A                      A
 Frequencies --   1523.0604              1527.9894              1540.4942
 Red. masses --      1.0740                 1.0942                 2.9457
 Frc consts  --      1.4678                 1.5052                 4.1187
 IR Inten    --      4.6707                 1.8510                 4.9390

                     61                     62                     63
                      A                      A                      A
 Frequencies --   1585.5905              1635.5261              1677.4180
 Red. masses --      4.5058                 5.5907                 6.0706
 Frc consts  --      6.6743                 8.8112                10.0638
 IR Inten    --      4.7070                 4.2340                 3.4314

                     64                     65                     66
                      A                      A                      A
 Frequencies --   1693.0076              2976.6250              3046.6337
 Red. masses --      1.1128                 1.0703                 1.0440
 Frc consts  --      1.8793                 5.5874                 5.7094
 IR Inten    --     31.6770                68.6580                35.1922

                     67                     68                     69
                      A                      A                      A
 Frequencies --   3090.5535              3123.9387              3162.2947
 Red. masses --      1.0934                 1.0940                 1.1017
 Frc consts  --      6.1529                 6.2903                 6.4913
 IR Inten    --     54.6062                30.8717                 8.1409

                     70                     71                     72
                      A                      A                      A
 Frequencies --   3180.3570              3187.6602              3197.6112
 Red. masses --      1.0849                 1.0883                 1.0936
 Frc consts  --      6.4655                 6.5155                 6.5882
 IR Inten    --      1.4351                 2.7295                40.2102

                     73                     74                     75
                      A                      A                      A
 Frequencies --   3209.1031              3258.1119              3461.6369
 Red. masses --      1.0970                 1.0949                 1.0521
 Frc consts  --      6.6561                 6.8482                 7.4279
 IR Inten    --     32.5292                 4.3468                 0.6410

                     76                     77                     78
                      A                      A                      A
 Frequencies --   3558.8353              3633.9267              3692.3823
 Red. masses --      1.0902                 1.0789                 1.0652
 Frc consts  --      8.1351                 8.3941                 8.5566
 IR Inten    --      0.6478               101.2792                71.3307

 - Thermochemistry -
 -------------------
 Temperature   298.150 Kelvin.  Pressure   1.00000 Atm.
 Atom     1 has atomic number  6 and mass  12.00000

 Molecular mass:   190.11061 amu.
 Principal axes and moments of inertia in atomic units:
                           1         2         3
     Eigenvalues --  1140.055444385.512894991.24607
           X            0.99996   0.00800   0.00475
           Y           -0.00788   0.99970  -0.02317
           Z           -0.00494   0.02313   0.99972
 This molecule is an asymmetric top.
 Rotational symmetry number  1.
 Warning -- assumption of classical behavior for rotation
           may cause significant error
 Rotational temperatures (Kelvin)      0.07597     0.01975     0.01735
 Rotational constants (GHZ):           1.58303     0.41152     0.36158
 Zero-point vibrational energy     624084.1 (Joules/Mol)
                                  149.15968 (Kcal/Mol)
 Warning -- explicit consideration of  20 degrees of freedom as
           vibrations may cause significant error
 Vibrational temperatures:     62.73   118.03   187.51   241.69   285.43
          (Kelvin)            308.10   351.15   367.48   409.70   432.41
                              507.83   522.68   602.26   648.34   676.35
                              738.82   773.40   820.02   853.54   872.27
                              904.61   918.03  1025.99  1084.93  1107.41
                             1156.71  1176.33  1236.29  1243.34  1304.05
                             1325.19  1338.15  1365.53  1388.71  1421.24
                             1460.03  1504.06  1542.23  1582.13  1634.31
                             1651.63  1699.42  1706.90  1751.34  1768.55
                             1816.27  1819.49  1900.09  1951.31  1981.60
                             2020.40  2026.48  2062.84  2076.13  2099.64
                             2153.18  2179.14  2191.34  2198.44  2216.43
                             2281.31  2353.16  2413.43  2435.86  4282.70
                             4383.43  4446.62  4494.65  4549.84  4575.82
                             4586.33  4600.65  4617.18  4687.70  4980.52
                             5120.37  5228.41  5312.51

 Zero-point correction=                           0.237701 (Hartree/Particle)
 Thermal correction to Energy=                    0.250265
 Thermal correction to Enthalpy=                  0.251210
 Thermal correction to Gibbs Free Energy=         0.199309
 Sum of electronic and zero-point Energies=           -612.136038
 Sum of electronic and thermal Energies=              -612.123473
 Sum of electronic and thermal Enthalpies=            -612.122529
 Sum of electronic and thermal Free Energies=         -612.174430

                     E (Thermal)             CV                S
                      KCal/Mol        Cal/Mol-Kelvin    Cal/Mol-Kelvin
 Total                  157.044             50.541            109.235
 Electronic               0.000              0.000              0.000
 Translational            0.889              2.981             41.633
 Rotational               0.889              2.981             31.590
 Vibrational            155.266             44.580             36.011
 Vibration     1          0.595              1.980              5.088
 Vibration     2          0.600              1.961              3.842
 Vibration     3          0.612              1.923              2.941
 Vibration     4          0.625              1.882              2.458
 Vibration     5          0.637              1.842              2.148
 Vibration     6          0.644              1.819              2.008
 Vibration     7          0.659              1.773              1.773
 Vibration     8          0.666              1.754              1.693
 Vibration     9          0.683              1.702              1.505
 Vibration    10          0.693              1.673              1.414
 Vibration    11          0.729              1.569              1.153
 Vibration    12          0.737              1.548              1.108
 Vibration    13          0.781              1.430              0.897
 Vibration    14          0.809              1.360              0.794
 Vibration    15          0.827              1.316              0.737
 Vibration    16          0.869              1.220              0.625
 Vibration    17          0.893              1.167              0.571
 Vibration    18          0.926              1.096              0.504
 Vibration    19          0.951              1.046              0.461
 Vibration    20          0.965              1.019              0.439

 Optimization completed.
    -- Stationary point found.
 Normal termination of Gaussian 16 at Thu Dec 10 10:27:14 2020.

 ----------------------------------------------------------------------
 # B3LYP/6-311++G(d,p) empiricaldispersion=gd3bj scf=xqc pop=npa geom=c
 heck
 ----------------------------------------------------------------------

 --------------------------------------
 CID_55272482_JID_4681_Energie_neutraal
 --------------------------------------
 Structure from the checkpoint file:  "JID_4681.chk"
 Charge =  0 Multiplicity = 1

 SCF Done:  E(RB3LYP) =  -612.555800751     A.U. after   14 cycles
 Normal termination of Gaussian 16 at Thu Dec 10 10:30:07 2020.

 ----------------------------------------------------------------------
 # B3LYP/6-311++G(d,p) empiricaldispersion=gd3bj scf=xqc pop=npa geom=c
 heck
 ----------------------------------------------------------------------

 ------------------------------------
 CID_55272482_JID_4681_Energie_kation
 ------------------------------------
 Structure from the checkpoint file:  "JID_4681.chk"
 Charge =  1 Multiplicity = 2

 SCF Done:  E(UB3LYP) =  -612.280700567     A.U. after   22 cycles
 Normal termination of Gaussian 16 at Thu Dec 10 10:36:01 2020.
 Gaussian 16:  ES64L-G16RevA.03 25-Dec-2016

 ----------------------------------------------------------------------
 # B3LYP/6-311++G(d,p) empiricaldispersion=gd3bj scf=xqc pop=npa geom=c
 heck
 ----------------------------------------------------------------------

 -----------------------------------
 CID_55272482_JID_4681_Energie_anion
 -----------------------------------
 Structure from the checkpoint file:  "JID_4681.chk"
 Charge = -1 Multiplicity = 2

                         Standard orientation:
 ---------------------------------------------------------------------
 Center     Atomic      Atomic             Coordinates (Angstroms)
 Number     Number       Type             X           Y           Z
 ---------------------------------------------------------------------
      1          6           0        2.755802    0.026018    1.534960
      2          6           0        2.177148    0.387750    0.161707
      3          6           0        2.873180   -0.449941   -0.945397
      4          8           0        2.657908   -1.841948   -0.847948
      5          6           0        0.686610    0.117267    0.143510
      6          6           0       -0.036684   -1.041865    0.344575
      7          6           0       -1.428064   -0.710047    0.193591
      8          6           0       -2.627793   -1.435129    0.282373
      9          6           0       -3.832581   -0.772587    0.084987
     10          6           0       -3.868196    0.606939   -0.202439
     11          6           0       -2.698489    1.352028   -0.300910
     12          6           0       -1.488592    0.682047   -0.102389
     13          7           0       -0.188455    1.144040   -0.142819
     14          7           0        2.393534    1.828306   -0.094204
     15          1           0        2.611774   -1.038249    1.732478
     16          1           0        2.265449    0.603960    2.323568
     17          1           0        3.833899    0.231867    1.559433
     18          1           0        2.544998   -0.064029   -1.926085
     19          1           0        3.955627   -0.297553   -0.869044
     20          1           0        1.706204   -1.980590   -0.994295
     21          1           0        0.363997   -2.001131    0.641470
     22          1           0       -2.611597   -2.498654    0.505351
     23          1           0       -4.766001   -1.324134    0.153143
     24          1           0       -4.826307    1.096795   -0.350536
     25          1           0       -2.724451    2.415152   -0.523726
     26          1           0        0.131616    2.102103   -0.173903
     27          1           0        3.288694    2.113192    0.296608
     28          1           0        2.453246    1.995553   -1.099137
 ---------------------------------------------------------------------

 SCF Done:  E(UB3LYP) =  -612.545001342     A.U. after   33 cycles
 SCF Done:  E(UB3LYP) =  -612.545001342     a.u. after    1 cycles

 The electronic state is 2-A.
 Alpha  occ. eigenvalues --  -19.02886 -14.25326 -14.19722 -10.12321 -10.11794
 Alpha  occ. eigenvalues --  -10.11461 -10.11056 -10.08167 -10.08100 -10.08002
 Alpha  occ. eigenvalues --  -10.07864 -10.07719 -10.06661 -10.06479  -0.93374
 Alpha  occ. eigenvalues --   -0.88652  -0.79968  -0.74931  -0.69228  -0.66136
 Alpha  occ. eigenvalues --   -0.64505  -0.61836  -0.58724  -0.54401  -0.50972
 Alpha  occ. eigenvalues --   -0.49490  -0.47023  -0.43943  -0.41773  -0.39804
 Alpha  occ. eigenvalues --   -0.39146  -0.37171  -0.36101  -0.35044  -0.34242
 Alpha  occ. eigenvalues --   -0.33709  -0.32479  -0.31958  -0.30881  -0.28237
 Alpha  occ. eigenvalues --   -0.27485  -0.27150  -0.26641  -0.25250  -0.24230
 Alpha  occ. eigenvalues --   -0.24225  -0.19428  -0.19002  -0.15306  -0.13352
 Alpha  occ. eigenvalues --   -0.11573   0.04391
 Alpha virt. eigenvalues --    0.06290   0.07045   0.07257   0.08082   0.08478
 Alpha virt. eigenvalues --    0.08989   0.10023   0.10273   0.10475   0.10879
 Alpha virt. eigenvalues --    0.11397   0.11781   0.13304   0.13453   0.14037

  Beta  occ. eigenvalues --  -19.02879 -14.25302 -14.19648 -10.12317 -10.11760
  Beta  occ. eigenvalues --  -10.11459 -10.11056 -10.08152 -10.08097 -10.07999
  Beta  occ. eigenvalues --  -10.07859 -10.07716 -10.06659 -10.06448  -0.93359
  Beta  occ. eigenvalues --   -0.88630  -0.79883  -0.74913  -0.69203  -0.66067
  Beta  occ. eigenvalues --   -0.64484  -0.61809  -0.58655  -0.54364  -0.50933
  Beta  occ. eigenvalues --   -0.49472  -0.46979  -0.43909  -0.41724  -0.39757
  Beta  occ. eigenvalues --   -0.39099  -0.37125  -0.36042  -0.35025  -0.34218
  Beta  occ. eigenvalues --   -0.33673  -0.32455  -0.31941  -0.30839  -0.28199
  Beta  occ. eigenvalues --   -0.27452  -0.27116  -0.26609  -0.25229  -0.24215
  Beta  occ. eigenvalues --   -0.24200  -0.19395  -0.18994  -0.15249  -0.13342
  Beta  occ. eigenvalues --   -0.11564
  Beta virt. eigenvalues --    0.06294   0.07064   0.07402   0.07639   0.08746
  Beta virt. eigenvalues --    0.09171   0.09362   0.10279   0.10542   0.11072
  Beta virt. eigenvalues --    0.11310   0.11617   0.12185   0.13730   0.13946

 Mulliken charges and spin densities:
               1          2
     1  C    1.024044  -1.550104
     2  C   -1.586230   1.320248
     3  C    0.828595  -1.175695
     4  O   -0.240380   0.010195
     5  C    0.808724  -0.961357
     6  C    0.449223  -0.171340
     7  C    1.403745  -0.152048
     8  C   -1.479659   0.990184
     9  C    0.018221  -0.242966
    10  C    0.635647  -0.847487
    11  C   -1.448639   0.631072
    12  C    1.021917  -1.696469
    13  N    0.014311  -0.008441
    14  N   -0.490788   0.195311
    15  H    0.057510   0.106955
    16  H   -0.028272   0.195533
    17  H   -0.361593   0.522651
    18  H   -0.158707   0.323508
    19  H   -0.328234   0.530264
    20  H    0.163324   0.062412
    21  H    0.146614   0.037539
    22  H   -0.021754   0.147609
    23  H    0.020435   0.109668
    24  H    0.004344   0.146870
    25  H   -0.696191   0.848311
    26  H    0.087361   0.258096
    27  H   -0.421589   0.695899
    28  H   -0.421980   0.673581
 Sum of Mulliken charges =  -1.00000   1.00000

 Dipole moment (field-independent basis, Debye):
    X=             -6.1353    Y=             -6.0638    Z=              1.6483  Tot=              8.7823
 Quadrupole moment (field-independent basis, Debye-Ang):
   XX=           -163.0868   YY=           -128.5776   ZZ=           -115.6280
   XY=             -8.7388   XZ=              2.3660   YZ=              2.8775

 Summary of Natural Population Analysis:

                                       Natural Population
                Natural  -----------------------------------------------
    Atom  No    Charge         Core      Valence    Rydberg      Total
 -----------------------------------------------------------------------
      C    1   -0.28208      0.99962     2.27565    0.00681     3.28208
      C    2    0.02380      0.99953     1.96121    0.01547     2.97620
      C    3   -0.00678      0.99954     1.99256    0.01468     3.00678
      O    4   -0.37131      0.99990     3.36469    0.00673     4.37131
      C    5    0.10316      0.99950     1.88091    0.01643     2.89684
      C    6   -0.16684      0.99946     2.15919    0.00818     3.16684
      C    7   -0.04265      0.99950     2.03414    0.00901     3.04265
      C    8   -0.09939      0.99953     2.09129    0.00857     3.09939
      C    9   -0.11832      0.99958     2.10856    0.01018     3.11832
      C   10   -0.11168      0.99958     2.10232    0.00977     3.11168
      C   11   -0.11203      0.99952     2.10283    0.00968     3.11203
      C   12    0.07737      0.99948     1.91133    0.01181     2.92263
      N   13   -0.27152      0.99961     2.76236    0.00956     3.77152
      N   14   -0.43223      0.99976     2.91975    0.01273     3.93223
      H   15    0.10670      0.00000     0.39224    0.00106     0.39330
      H   16    0.10446      0.00000     0.39457    0.00098     0.39554
      H   17    0.10171      0.00000     0.39710    0.00119     0.39829
      H   18    0.07959      0.00000     0.41880    0.00162     0.42041
      H   19    0.09153      0.00000     0.40686    0.00162     0.40847
      H   20    0.23147      0.00000     0.26532    0.00321     0.26853
      H   21    0.10788      0.00000     0.39116    0.00097     0.39212
      H   22    0.09744      0.00000     0.40138    0.00119     0.40256
      H   23    0.09691      0.00000     0.40232    0.00077     0.40309
      H   24    0.09841      0.00000     0.40080    0.00080     0.40159
      H   25    0.10552      0.00000     0.39313    0.00135     0.39448
      H   26    0.21705      0.00000     0.27933    0.00363     0.28295
      H   27    0.18776      0.00000     0.30291    0.00934     0.31224
      H   28    0.18410      0.00000     0.30513    0.01078     0.31590
 =======================================================================
   * Total *   -0.00000     13.99411    36.81780    0.18809    51.00000

 Normal termination of Gaussian 16 at Thu Dec 10 10:44:42 2020.
