 Gaussian 16, Revision A.03,

 -----------------------------------------------------------
 # opt freq B3LYP/6-31G(d) empiricaldispersion=gd3bj scf=xqc
 -----------------------------------------------------------

 -------------------------------
 CID_152050203_JID_2688_neutraal
 -------------------------------
 Symbolic Z-matrix:
 Charge =  0 Multiplicity = 1

 SCF Done:  E(RB3LYP) =  -949.603254816     A.U. after   15 cycles
 SCF Done:  E(RB3LYP) =  -949.610767059     A.U. after   14 cycles
 SCF Done:  E(RB3LYP) =  -949.609309971     A.U. after   13 cycles
 SCF Done:  E(RB3LYP) =  -949.611973974     A.U. after   13 cycles
 SCF Done:  E(RB3LYP) =  -949.612532681     A.U. after   13 cycles
 SCF Done:  E(RB3LYP) =  -949.612801422     A.U. after   12 cycles
 SCF Done:  E(RB3LYP) =  -949.612841660     A.U. after   11 cycles
 SCF Done:  E(RB3LYP) =  -949.612839326     A.U. after   12 cycles
 SCF Done:  E(RB3LYP) =  -949.612865241     A.U. after   10 cycles
 SCF Done:  E(RB3LYP) =  -949.612869451     A.U. after   10 cycles
 SCF Done:  E(RB3LYP) =  -949.612870344     A.U. after    8 cycles
 SCF Done:  E(RB3LYP) =  -949.612870475     A.U. after    7 cycles
 Optimization completed.
    -- Stationary point found.
 Normal termination of Gaussian 16 at Wed Dec  9 17:53:06 2020.

 --------------------------------------------------------------------
 #N Geom=AllCheck Guess=TCheck SCRF=Check GenChk RB3LYP/6-31G(d) Freq
 --------------------------------------------------------------------

 Structure from the checkpoint file:  "JID_2688.chk"
 -------------------------------
 CID_152050203_JID_2688_neutraal
 -------------------------------
 Charge =  0 Multiplicity = 1

 SCF Done:  E(RB3LYP) =  -949.612870475     A.U. after    1 cycles

  Exact polarizability: 132.116  -3.301 147.925  -0.243   1.541  47.838
 Approx polarizability: 188.071 -12.774 283.968  -0.917   0.106  74.794

                      1                      2                      3
                      A                      A                      A
 Frequencies --     39.0545                65.7221               120.3725
 Red. masses --      7.9378                 5.4517                 2.5602
 Frc consts  --      0.0071                 0.0139                 0.0219
 IR Inten    --      0.3909                 6.3283                 0.9225

                      4                      5                      6
                      A                      A                      A
 Frequencies --    148.4353               173.6468               193.6665
 Red. masses --      1.2881                 4.8491                 5.3551
 Frc consts  --      0.0167                 0.0861                 0.1183
 IR Inten    --      0.1677                 1.2593                 3.7637

                      7                      8                      9
                      A                      A                      A
 Frequencies --    242.4743               282.9882               355.7462
 Red. masses --      7.6749                 6.0567                 7.8781
 Frc consts  --      0.2659                 0.2858                 0.5874
 IR Inten    --      0.5287                 0.3878                 1.6003

                     10                     11                     12
                      A                      A                      A
 Frequencies --    362.4915               408.3215               467.0217
 Red. masses --      6.3728                 6.7013                 4.4823
 Frc consts  --      0.4934                 0.6583                 0.5760
 IR Inten    --     12.3513                 7.4851                15.7988

                     13                     14                     15
                      A                      A                      A
 Frequencies --    479.0842               542.4740               571.9556
 Red. masses --      7.7287                 7.1054                 5.9880
 Frc consts  --      1.0451                 1.2320                 1.1541
 IR Inten    --      8.5892                 9.9179                 5.1312

                     16                     17                     18
                      A                      A                      A
 Frequencies --    619.9247               698.6020               725.5697
 Red. masses --      4.2361                 5.6603                 1.2317
 Frc consts  --      0.9592                 1.6276                 0.3821
 IR Inten    --      1.9446                 0.4443                99.3017

                     19                     20                     21
                      A                      A                      A
 Frequencies --    740.5858               759.4658               780.5251
 Red. masses --      1.2801                 6.2725                 2.8925
 Frc consts  --      0.4137                 2.1316                 1.0383
 IR Inten    --     81.1028                 3.1456                15.1109

                     22                     23                     24
                      A                      A                      A
 Frequencies --    800.8044               827.8563               953.8926
 Red. masses --      1.8662                 5.3136                 1.2643
 Frc consts  --      0.7051                 2.1456                 0.6778
 IR Inten    --     23.7365                23.3910                 0.6783

                     25                     26                     27
                      A                      A                      A
 Frequencies --    963.6804              1000.9267              1082.9277
 Red. masses --      6.5891                 6.3141                 6.5685
 Frc consts  --      3.6053                 3.7271                 4.5385
 IR Inten    --     19.2889                55.4966               150.0860

                     28                     29                     30
                      A                      A                      A
 Frequencies --   1128.6053              1151.9676              1186.4187
 Red. masses --      2.3809                 2.7496                 1.2704
 Frc consts  --      1.7868                 2.1498                 1.0536
 IR Inten    --    141.0573               170.8264                 1.8301

                     31                     32                     33
                      A                      A                      A
 Frequencies --   1203.5269              1227.0710              1262.4989
 Red. masses --      1.9791                 1.7455                 1.6864
 Frc consts  --      1.6890                 1.5485                 1.5837
 IR Inten    --     85.7836                28.7310               148.7350

                     34                     35                     36
                      A                      A                      A
 Frequencies --   1309.7535              1361.1908              1407.2949
 Red. masses --      8.1208                 2.3325                 2.0128
 Frc consts  --      8.2078                 2.5463                 2.3487
 IR Inten    --     23.5817               115.3100                 8.2996

                     37                     38                     39
                      A                      A                      A
 Frequencies --   1486.6085              1507.3046              1509.0612
 Red. masses --      1.1964                 1.9480                 1.2673
 Frc consts  --      1.5578                 2.6076                 1.7004
 IR Inten    --      1.1440               151.1125                85.5131

                     40                     41                     42
                      A                      A                      A
 Frequencies --   1526.1109              1540.0742              1627.0950
 Red. masses --      1.1266                 1.7527                 3.0994
 Frc consts  --      1.5460                 2.4493                 4.8346
 IR Inten    --     77.5193                82.8368               391.0168

                     43                     44                     45
                      A                      A                      A
 Frequencies --   1679.2986              1840.0268              3085.4986
 Red. masses --      4.7548                11.7221                 1.0285
 Frc consts  --      7.9001                23.3832                 5.7691
 IR Inten    --    257.9540               185.8669                36.6168

                     46                     47                     48
                      A                      A                      A
 Frequencies --   3167.8372              3188.8150              3236.3195
 Red. masses --      1.1078                 1.1087                 1.0916
 Frc consts  --      6.5500                 6.6421                 6.7361
 IR Inten    --     14.7666                12.5286                 3.2225

                     49                     50                     51
                      A                      A                      A
 Frequencies --   3263.5146              3454.3686              3572.7581
 Red. masses --      1.0964                 1.0648                 1.0785
 Frc consts  --      6.8801                 7.4860                 8.1108
 IR Inten    --      0.6940               441.4630                57.1419

 - Thermochemistry -
 -------------------
 Temperature   298.150 Kelvin.  Pressure   1.00000 Atm.
 Atom     1 has atomic number  6 and mass  12.00000

 Molecular mass:   185.01466 amu.
 Principal axes and moments of inertia in atomic units:
                           1         2         3
     Eigenvalues --  1634.113722360.568713936.32006
           X            0.99905   0.04359   0.00266
           Y           -0.04359   0.99905   0.00073
           Z           -0.00263  -0.00084   1.00000
 This molecule is an asymmetric top.
 Rotational symmetry number  1.
 Warning -- assumption of classical behavior for rotation
           may cause significant error
 Rotational temperatures (Kelvin)      0.05300     0.03669     0.02200
 Rotational constants (GHZ):           1.10442     0.76454     0.45848
 Zero-point vibrational energy     366842.3 (Joules/Mol)
                                   87.67740 (Kcal/Mol)
 Warning -- explicit consideration of  16 degrees of freedom as
           vibrations may cause significant error
 Vibrational temperatures:     56.19    94.56   173.19   213.57   249.84
          (Kelvin)            278.64   348.87   407.16   511.84   521.54
                              587.48   671.94   689.30   780.50   822.92
                              891.93  1005.13  1043.93  1065.54  1092.70
                             1123.00  1152.18  1191.10  1372.44  1386.52
                             1440.11  1558.09  1623.81  1657.42  1706.99
                             1731.61  1765.48  1816.45  1884.44  1958.45
                             2024.78  2138.90  2168.68  2171.20  2195.73
                             2215.82  2341.03  2416.14  2647.39  4439.34
                             4557.81  4587.99  4656.34  4695.47  4970.07
                             5140.40

 Zero-point correction=                           0.139723 (Hartree/Particle)
 Thermal correction to Energy=                    0.150633
 Thermal correction to Enthalpy=                  0.151577
 Thermal correction to Gibbs Free Energy=         0.101922
 Sum of electronic and zero-point Energies=           -949.473148
 Sum of electronic and thermal Energies=              -949.462237
 Sum of electronic and thermal Enthalpies=            -949.461293
 Sum of electronic and thermal Free Energies=         -949.510949

                     E (Thermal)             CV                S
                      KCal/Mol        Cal/Mol-Kelvin    Cal/Mol-Kelvin
 Total                   94.524             40.023            104.509
 Electronic               0.000              0.000              0.000
 Translational            0.889              2.981             41.552
 Rotational               0.889              2.981             31.096
 Vibrational             92.746             34.061             31.860
 Vibration     1          0.594              1.981              5.306
 Vibration     2          0.597              1.971              4.278
 Vibration     3          0.609              1.932              3.094
 Vibration     4          0.618              1.904              2.692
 Vibration     5          0.627              1.875              2.396
 Vibration     6          0.635              1.849              2.192
 Vibration     7          0.659              1.775              1.785
 Vibration     8          0.682              1.705              1.516
 Vibration     9          0.731              1.563              1.141
 Vibration    10          0.736              1.550              1.111
 Vibration    11          0.773              1.452              0.933
 Vibration    12          0.824              1.323              0.746
 Vibration    13          0.836              1.296              0.713
 Vibration    14          0.898              1.156              0.560
 Vibration    15          0.928              1.092              0.500
 Vibration    16          0.980              0.990              0.417

 Optimization completed.
    -- Stationary point found.
 Normal termination of Gaussian 16 at Wed Dec  9 17:57:31 2020.

 ----------------------------------------------------------------------
 # B3LYP/6-311++G(d,p) empiricaldispersion=gd3bj scf=xqc pop=npa geom=c
 heck
 ----------------------------------------------------------------------

 ---------------------------------------
 CID_152050203_JID_2688_Energie_neutraal
 ---------------------------------------
 Structure from the checkpoint file:  "JID_2688.chk"
 Charge =  0 Multiplicity = 1

 SCF Done:  E(RB3LYP) =  -949.804642543     A.U. after   17 cycles
 Normal termination of Gaussian 16 at Wed Dec  9 17:59:45 2020.

 ----------------------------------------------------------------------
 # B3LYP/6-311++G(d,p) empiricaldispersion=gd3bj scf=xqc pop=npa geom=c
 heck
 ----------------------------------------------------------------------

 -------------------------------------
 CID_152050203_JID_2688_Energie_kation
 -------------------------------------
 Structure from the checkpoint file:  "JID_2688.chk"
 Charge =  1 Multiplicity = 2

 SCF Done:  E(UB3LYP) =  -949.523001988     A.U. after   33 cycles
 SCF Done:  E(UB3LYP) =  -949.523001988     a.u. after    1 cycles
 Normal termination of Gaussian 16 at Wed Dec  9 18:04:38 2020.
 Gaussian 16:  ES64L-G16RevA.03 25-Dec-2016

 ----------------------------------------------------------------------
 # B3LYP/6-311++G(d,p) empiricaldispersion=gd3bj scf=xqc pop=npa geom=c
 heck
 ----------------------------------------------------------------------

 ------------------------------------
 CID_152050203_JID_2688_Energie_anion
 ------------------------------------
 Structure from the checkpoint file:  "JID_2688.chk"
 Charge = -1 Multiplicity = 2

                         Standard orientation:
 ---------------------------------------------------------------------
 Center     Atomic      Atomic             Coordinates (Angstroms)
 Number     Number       Type             X           Y           Z
 ---------------------------------------------------------------------
      1          6           0       -3.628582   -0.175903   -0.128970
      2          8           0       -2.299018    0.357533   -0.269628
      3          6           0       -1.278483   -0.500144    0.124842
      4          8           0       -1.531480   -1.612115    0.510952
      5          6           0        0.051859    0.144683    0.016674
      6          6           0        0.191663    1.547021    0.018117
      7          6           0        1.475259    2.158423    0.046076
      8          6           0        2.572712    1.354428    0.046109
      9          7           0        2.437622    0.009932    0.009717
     10          6           0        1.232261   -0.694482   -0.026427
     11         16           0        1.350532   -2.358489   -0.151977
     12          8           0       -0.824521    2.413185    0.015390
     13          1           0       -4.296344    0.612036   -0.477477
     14          1           0       -3.830941   -0.426388    0.914904
     15          1           0       -3.734904   -1.073738   -0.740389
     16          1           0        1.549488    3.237112    0.064010
     17          1           0        3.587889    1.733733    0.068544
     18          1           0        3.254368   -0.591021   -0.020286
     19          1           0       -1.661413    1.901575   -0.077936
 ---------------------------------------------------------------------

 SCF Done:  E(UB3LYP) =  -949.820554512     A.U. after   29 cycles

 The electronic state is 2-A.
 Alpha  occ. eigenvalues --  -88.63310 -19.03427 -19.00227 -18.94511 -14.21473
 Alpha  occ. eigenvalues --  -10.13570 -10.11416 -10.10659 -10.08313 -10.05377
 Alpha  occ. eigenvalues --  -10.02837 -10.02085  -7.72110  -5.68507  -5.67956
 Alpha  occ. eigenvalues --   -5.67635  -0.96584  -0.92405  -0.87025  -0.83241
 Alpha  occ. eigenvalues --   -0.65962  -0.65048  -0.61021  -0.54786  -0.51696
 Alpha  occ. eigenvalues --   -0.47857  -0.44095  -0.41819  -0.40366  -0.36649
 Alpha  occ. eigenvalues --   -0.35972  -0.35378  -0.32374  -0.30136  -0.29491
 Alpha  occ. eigenvalues --   -0.28151  -0.26635  -0.26209  -0.25590  -0.25005
 Alpha  occ. eigenvalues --   -0.22150  -0.19805  -0.17899  -0.15365  -0.13323
 Alpha  occ. eigenvalues --   -0.11998  -0.05726  -0.05180   0.04650
 Alpha virt. eigenvalues --    0.08098   0.08972   0.10976   0.11255   0.11716
 Alpha virt. eigenvalues --    0.12236   0.12731   0.13939   0.15729   0.15937
 Alpha virt. eigenvalues --    0.16280   0.16558   0.17154   0.18365   0.18918

  Beta  occ. eigenvalues --  -88.63315 -19.03365 -19.00072 -18.94209 -14.21330
  Beta  occ. eigenvalues --  -10.13390 -10.11418 -10.10686 -10.07827 -10.04782
  Beta  occ. eigenvalues --  -10.02735 -10.02189  -7.72115  -5.68510  -5.67969
  Beta  occ. eigenvalues --   -5.67639  -0.96347  -0.92010  -0.86585  -0.82803
  Beta  occ. eigenvalues --   -0.65482  -0.64529  -0.60890  -0.54651  -0.50826
  Beta  occ. eigenvalues --   -0.47640  -0.43845  -0.41688  -0.40113  -0.36322
  Beta  occ. eigenvalues --   -0.35694  -0.35119  -0.32056  -0.29893  -0.28301
  Beta  occ. eigenvalues --   -0.27979  -0.26409  -0.25435  -0.25032  -0.23756
  Beta  occ. eigenvalues --   -0.22021  -0.19624  -0.17047  -0.14259  -0.12884
  Beta  occ. eigenvalues --   -0.10517  -0.05431  -0.04983
  Beta virt. eigenvalues --    0.08066   0.08949   0.10912   0.11144   0.11680
  Beta virt. eigenvalues --    0.12204   0.12345   0.12715   0.13917   0.15713
  Beta virt. eigenvalues --    0.16272   0.16334   0.17161   0.18086   0.18411

 Mulliken charges and spin densities:
               1          2
     1  C   -0.253385   0.002677
     2  O   -0.224122   0.005430
     3  C   -0.869497   0.099531
     4  O   -0.232682   0.096904
     5  C    1.551237   0.150227
     6  C   -0.057479   0.241442
     7  C   -0.015074  -0.071445
     8  C   -0.426741   0.470490
     9  N    0.059948   0.024454
    10  C   -0.765491  -0.027053
    11  S   -0.732646  -0.004240
    12  O   -0.304894   0.041098
    13  H    0.102355   0.002772
    14  H    0.170407   0.005261
    15  H    0.165139   0.001421
    16  H    0.138210   0.006488
    17  H    0.104351  -0.041160
    18  H    0.238044  -0.001782
    19  H    0.352319  -0.002515
 Sum of Mulliken charges =  -1.00000   1.00000

 Dipole moment (field-independent basis, Debye):
    X=             -2.4782    Y=              4.0811    Z=             -0.3569  Tot=              4.7880
 Quadrupole moment (field-independent basis, Debye-Ang):
   XX=            -82.0114   YY=           -111.3161   ZZ=            -85.9843
   XY=              2.8569   XZ=              1.7813   YZ=              0.9531

 Summary of Natural Population Analysis:

                                       Natural Population
                Natural  -----------------------------------------------
    Atom  No    Charge         Core      Valence    Rydberg      Total
 -----------------------------------------------------------------------
      C    1   -0.10361      0.99962     2.09534    0.00865     3.10361
      O    2   -0.31008      0.99986     3.30133    0.00888     4.31008
      C    3    0.42117      0.99964     1.55574    0.02345     2.57883
      O    4   -0.27072      0.99987     3.26416    0.00669     4.27072
      C    5   -0.14621      0.99937     2.13398    0.01285     3.14621
      C    6    0.28644      0.99943     1.70145    0.01269     2.71356
      C    7   -0.19353      0.99955     2.18402    0.00996     3.19353
      C    8    0.14539      0.99959     1.84353    0.01149     2.85461
      N    9   -0.26079      0.99964     2.74863    0.01251     3.76079
      C   10    0.04468      0.99959     1.93969    0.01605     2.95532
      S   11   -0.16223      4.99958     3.14660    0.01605     8.16223
      O   12   -0.33533      0.99987     3.32796    0.00750     4.33533
      H   13    0.08190      0.00000     0.41723    0.00087     0.41810
      H   14    0.08846      0.00000     0.41024    0.00130     0.41154
      H   15    0.09136      0.00000     0.40744    0.00120     0.40864
      H   16    0.10056      0.00000     0.39838    0.00106     0.39944
      H   17    0.08164      0.00000     0.41746    0.00091     0.41836
      H   18    0.19515      0.00000     0.30244    0.00240     0.30485
      H   19    0.24574      0.00000     0.25154    0.00273     0.25426
 =======================================================================
   * Total *    0.00000     15.99560    31.84718    0.15723    48.00000

 Normal termination of Gaussian 16 at Wed Dec  9 18:08:22 2020.
