 Gaussian 16, Revision A.03,

 -----------------------------------------------------------
 # opt freq B3LYP/6-31G(d) empiricaldispersion=gd3bj scf=xqc
 -----------------------------------------------------------

 -------------------------------
 CID_153946205_JID_2637_neutraal
 -------------------------------
 Symbolic Z-matrix:
 Charge =  0 Multiplicity = 1

 SCF Done:  E(RB3LYP) =  -521.213811254     A.U. after   13 cycles
 SCF Done:  E(RB3LYP) =  -521.222196641     A.U. after   11 cycles
 SCF Done:  E(RB3LYP) =  -521.223126292     A.U. after   10 cycles
 SCF Done:  E(RB3LYP) =  -521.223134968     A.U. after   10 cycles
 SCF Done:  E(RB3LYP) =  -521.223424034     A.U. after   10 cycles
 SCF Done:  E(RB3LYP) =  -521.223446870     A.U. after    9 cycles
 SCF Done:  E(RB3LYP) =  -521.223455275     A.U. after    9 cycles
 SCF Done:  E(RB3LYP) =  -521.223459092     A.U. after    8 cycles
 SCF Done:  E(RB3LYP) =  -521.223460579     A.U. after    8 cycles
 SCF Done:  E(RB3LYP) =  -521.223461481     A.U. after    7 cycles
 SCF Done:  E(RB3LYP) =  -521.223461876     A.U. after    7 cycles
 SCF Done:  E(RB3LYP) =  -521.223461916     A.U. after    6 cycles
 Optimization completed.
    -- Stationary point found.
 Normal termination of Gaussian 16 at Wed Dec  9 17:47:19 2020.

 --------------------------------------------------------------------
 #N Geom=AllCheck Guess=TCheck SCRF=Check GenChk RB3LYP/6-31G(d) Freq
 --------------------------------------------------------------------

 Structure from the checkpoint file:  "JID_2637.chk"
 -------------------------------
 CID_153946205_JID_2637_neutraal
 -------------------------------
 Charge =  0 Multiplicity = 1

 SCF Done:  E(RB3LYP) =  -521.223461916     A.U. after    1 cycles

  Exact polarizability: 119.956  -4.382  98.517   1.214  -2.718  97.449
 Approx polarizability: 151.847  -4.820 145.217   2.178  -2.515 148.437

                      1                      2                      3
                      A                      A                      A
 Frequencies --     35.6326                61.0136                73.5192
 Red. masses --      3.3832                 3.5520                 2.5646
 Frc consts  --      0.0025                 0.0078                 0.0082
 IR Inten    --      0.2702                 0.5433                 0.4515

                      4                      5                      6
                      A                      A                      A
 Frequencies --    121.6105               163.6544               193.8414
 Red. masses --      3.2877                 3.1559                 2.2717
 Frc consts  --      0.0286                 0.0498                 0.0503
 IR Inten    --      0.8925                 2.2410                 3.9888

                      7                      8                      9
                      A                      A                      A
 Frequencies --    225.2179               268.3980               335.3159
 Red. masses --      2.6722                 3.1712                 2.3801
 Frc consts  --      0.0799                 0.1346                 0.1577
 IR Inten    --      1.0035                 8.0204                 1.3272

                     10                     11                     12
                      A                      A                      A
 Frequencies --    361.6816               371.3230               442.3517
 Red. masses --      2.1215                 2.3196                 1.9512
 Frc consts  --      0.1635                 0.1884                 0.2249
 IR Inten    --      5.8068                 0.2900                 0.3443

                     13                     14                     15
                      A                      A                      A
 Frequencies --    492.6041               528.7514               614.4979
 Red. masses --      2.7770                 3.6808                 3.6917
 Frc consts  --      0.3970                 0.6063                 0.8213
 IR Inten    --      6.9524                 3.9912                 5.9087

                     16                     17                     18
                      A                      A                      A
 Frequencies --    665.6732               770.6220               780.7442
 Red. masses --      2.4819                 3.5650                 1.1938
 Frc consts  --      0.6480                 1.2474                 0.4287
 IR Inten    --      7.3901                 2.9694                 2.7074

                     19                     20                     21
                      A                      A                      A
 Frequencies --    816.7882               819.9902               847.5646
 Red. masses --      1.8336                 1.5332                 1.9017
 Frc consts  --      0.7207                 0.6074                 0.8049
 IR Inten    --      7.2646                10.6351                 8.8699

                     22                     23                     24
                      A                      A                      A
 Frequencies --    849.0111               894.7902               909.4167
 Red. masses --      2.0194                 1.4323                 2.3230
 Frc consts  --      0.8576                 0.6757                 1.1319
 IR Inten    --    101.4510                 6.9145                 3.0610

                     25                     26                     27
                      A                      A                      A
 Frequencies --    914.5004               930.5458               948.6969
 Red. masses --      1.9345                 2.2848                 2.1135
 Frc consts  --      0.9532                 1.1657                 1.1207
 IR Inten    --      6.8761                 1.5892                 2.6561

                     28                     29                     30
                      A                      A                      A
 Frequencies --    951.5822               978.5015               984.4305
 Red. masses --      2.9995                 2.1626                 1.7188
 Frc consts  --      1.6002                 1.2200                 0.9814
 IR Inten    --      0.8540                16.4675                11.7369

                     31                     32                     33
                      A                      A                      A
 Frequencies --   1018.2453              1045.0980              1059.0414
 Red. masses --      2.0743                 1.7298                 1.3379
 Frc consts  --      1.2671                 1.1132                 0.8841
 IR Inten    --     43.1379                12.7487                14.9641

                     34                     35                     36
                      A                      A                      A
 Frequencies --   1068.8036              1070.7168              1082.3353
 Red. masses --      1.5187                 3.2168                 1.4697
 Frc consts  --      1.0221                 2.1728                 1.0144
 IR Inten    --     17.1621                 7.9403                 5.4325

                     37                     38                     39
                      A                      A                      A
 Frequencies --   1087.3970              1100.2573              1125.7043
 Red. masses --      1.4192                 2.2643                 1.8240
 Frc consts  --      0.9887                 1.6150                 1.3618
 IR Inten    --      2.5911                10.6869                42.7107

                     40                     41                     42
                      A                      A                      A
 Frequencies --   1133.2193              1148.2708              1201.9656
 Red. masses --      3.4601                 1.1238                 1.7469
 Frc consts  --      2.6180                 0.8730                 1.4870
 IR Inten    --     95.2783                 0.5714                18.2598

                     43                     44                     45
                      A                      A                      A
 Frequencies --   1211.7520              1212.2020              1234.8319
 Red. masses --      1.4276                 1.4801                 1.9458
 Frc consts  --      1.2350                 1.2814                 1.7481
 IR Inten    --      2.7347                 1.7945                 0.4633

                     46                     47                     48
                      A                      A                      A
 Frequencies --   1263.2357              1291.7781              1311.6261
 Red. masses --      1.7752                 1.6947                 1.2497
 Frc consts  --      1.6691                 1.6662                 1.2667
 IR Inten    --      4.2956                 4.9737                 5.4837

                     49                     50                     51
                      A                      A                      A
 Frequencies --   1327.0785              1333.1953              1350.8604
 Red. masses --      1.3059                 1.2667                 1.3170
 Frc consts  --      1.3550                 1.3265                 1.4159
 IR Inten    --      0.9538                 0.9679                 0.6155

                     52                     53                     54
                      A                      A                      A
 Frequencies --   1364.4099              1387.3749              1404.2986
 Red. masses --      1.4340                 1.2724                 2.1137
 Frc consts  --      1.5729                 1.4430                 2.4559
 IR Inten    --      4.5335                 9.7771                 2.8332

                     55                     56                     57
                      A                      A                      A
 Frequencies --   1418.7067              1448.0837              1486.7076
 Red. masses --      1.2984                 1.4739                 1.1231
 Frc consts  --      1.5397                 1.8210                 1.4626
 IR Inten    --     17.4479                15.5033                 4.1793

                     58                     59                     60
                      A                      A                      A
 Frequencies --   1495.5010              1509.7594              1521.0635
 Red. masses --      1.0937                 1.2377                 1.1172
 Frc consts  --      1.4412                 1.6622                 1.5229
 IR Inten    --      0.7237                 0.3315                 2.8665

                     61                     62                     63
                      A                      A                      A
 Frequencies --   1522.4580              1529.6191              1536.9950
 Red. masses --      1.0826                 1.0851                 1.3236
 Frc consts  --      1.4785                 1.4959                 1.8422
 IR Inten    --      0.6974                 1.3607                 2.1676

                     64                     65                     66
                      A                      A                      A
 Frequencies --   1539.3674              2991.2381              3038.5391
 Red. masses --      1.1081                 1.0689                 1.0648
 Frc consts  --      1.5471                 5.6348                 5.7923
 IR Inten    --      7.2430                43.5550                16.4658

                     67                     68                     69
                      A                      A                      A
 Frequencies --   3042.1570              3046.1454              3084.7909
 Red. masses --      1.0677                 1.0697                 1.0928
 Frc consts  --      5.8220                 5.8479                 6.1270
 IR Inten    --     72.2319                56.1670                38.1833

                     70                     71                     72
                      A                      A                      A
 Frequencies --   3101.0292              3110.1378              3113.4432
 Red. masses --      1.0996                 1.0981                 1.0956
 Frc consts  --      6.2299                 6.2585                 6.2574
 IR Inten    --     29.6238                20.8608                26.9126

                     73                     74                     75
                      A                      A                      A
 Frequencies --   3116.1280              3143.0320              3148.9079
 Red. masses --      1.0561                 1.0526                 1.0571
 Frc consts  --      6.0421                 6.1262                 6.1758
 IR Inten    --     41.6850                20.5918                13.5600

                     76                     77                     78
                      A                      A                      A
 Frequencies --   3163.5853              3192.7260              3203.0663
 Red. masses --      1.0899                 1.1029                 1.1045
 Frc consts  --      6.4269                 6.6237                 6.6765
 IR Inten    --     10.6063                 4.5301                17.6082

                     79                     80                     81
                      A                      A                      A
 Frequencies --   3218.4885              3232.9294              3460.8502
 Red. masses --      1.1183                 1.1153                 1.0744
 Frc consts  --      6.8251                 6.8678                 7.5817
 IR Inten    --      0.1580                30.0289                 5.1946

 - Thermochemistry -
 -------------------
 Temperature   298.150 Kelvin.  Pressure   1.00000 Atm.
 Atom     1 has atomic number  6 and mass  12.00000

 Molecular mass:   167.13101 amu.
 Principal axes and moments of inertia in atomic units:
                           1         2         3
     Eigenvalues --  1168.693142786.681853235.62049
           X            0.99991  -0.01315  -0.00105
           Y            0.01313   0.99971  -0.02034
           Z            0.00132   0.02033   0.99979
 This molecule is an asymmetric top.
 Rotational symmetry number  1.
 Warning -- assumption of classical behavior for rotation
           may cause significant error
 Rotational temperatures (Kelvin)      0.07411     0.03108     0.02677
 Rotational constants (GHZ):           1.54424     0.64763     0.55777
 Zero-point vibrational energy     685468.7 (Joules/Mol)
                                  163.83096 (Kcal/Mol)
 Warning -- explicit consideration of  15 degrees of freedom as
           vibrations may cause significant error
 Vibrational temperatures:     51.27    87.78   105.78   174.97   235.46
          (Kelvin)            278.89   324.04   386.16   482.44   520.38
                              534.25   636.45   708.75   760.76   884.13
                              957.76  1108.75  1123.32  1175.18  1179.78
                             1219.46  1221.54  1287.40  1308.45  1315.76
                             1338.85  1364.96  1369.11  1407.85  1416.38
                             1465.03  1503.66  1523.72  1537.77  1540.52
                             1557.24  1564.52  1583.02  1619.64  1630.45
                             1652.11  1729.36  1743.44  1744.09  1776.65
                             1817.51  1858.58  1887.14  1909.37  1918.17
                             1943.59  1963.08  1996.12  2020.47  2041.20
                             2083.47  2139.04  2151.69  2172.21  2188.47
                             2190.48  2200.78  2211.39  2214.81  4303.72
                             4371.78  4376.99  4382.72  4438.33  4461.69
                             4474.79  4479.55  4483.41  4522.12  4530.58
                             4551.69  4593.62  4608.50  4630.69  4651.46
                             4979.39

 Zero-point correction=                           0.261081 (Hartree/Particle)
 Thermal correction to Energy=                    0.272611
 Thermal correction to Enthalpy=                  0.273556
 Thermal correction to Gibbs Free Energy=         0.222762
 Sum of electronic and zero-point Energies=           -520.962381
 Sum of electronic and thermal Energies=              -520.950850
 Sum of electronic and thermal Enthalpies=            -520.949906
 Sum of electronic and thermal Free Energies=         -521.000700

                     E (Thermal)             CV                S
                      KCal/Mol        Cal/Mol-Kelvin    Cal/Mol-Kelvin
 Total                  171.066             44.837            106.904
 Electronic               0.000              0.000              0.000
 Translational            0.889              2.981             41.249
 Rotational               0.889              2.981             30.733
 Vibrational            169.289             38.875             34.921
 Vibration     1          0.594              1.982              5.488
 Vibration     2          0.597              1.973              4.424
 Vibration     3          0.599              1.966              4.057
 Vibration     4          0.609              1.931              3.075
 Vibration     5          0.623              1.887              2.507
 Vibration     6          0.635              1.848              2.191
 Vibration     7          0.650              1.803              1.917
 Vibration     8          0.673              1.731              1.607
 Vibration     9          0.716              1.605              1.234
 Vibration    10          0.736              1.551              1.115
 Vibration    11          0.743              1.531              1.074
 Vibration    12          0.802              1.378              0.819
 Vibration    13          0.848              1.266              0.677
 Vibration    14          0.884              1.186              0.590
 Vibration    15          0.974              1.001              0.425

 Optimization completed.
    -- Stationary point found.
 Normal termination of Gaussian 16 at Wed Dec  9 17:54:35 2020.

 ----------------------------------------------------------------------
 # B3LYP/6-311++G(d,p) empiricaldispersion=gd3bj scf=xqc pop=npa geom=c
 heck
 ----------------------------------------------------------------------

 ---------------------------------------
 CID_153946205_JID_2637_Energie_neutraal
 ---------------------------------------
 Structure from the checkpoint file:  "JID_2637.chk"
 Charge =  0 Multiplicity = 1

 SCF Done:  E(RB3LYP) =  -521.370544821     A.U. after   13 cycles
 Normal termination of Gaussian 16 at Wed Dec  9 17:57:49 2020.

 ----------------------------------------------------------------------
 # B3LYP/6-311++G(d,p) empiricaldispersion=gd3bj scf=xqc pop=npa geom=c
 heck
 ----------------------------------------------------------------------

 -------------------------------------
 CID_153946205_JID_2637_Energie_kation
 -------------------------------------
 Structure from the checkpoint file:  "JID_2637.chk"
 Charge =  1 Multiplicity = 2

 SCF Done:  E(UB3LYP) =  -521.057148046     A.U. after   27 cycles
 Normal termination of Gaussian 16 at Wed Dec  9 18:07:27 2020.
 Gaussian 16:  ES64L-G16RevA.03 25-Dec-2016

 ----------------------------------------------------------------------
 # B3LYP/6-311++G(d,p) empiricaldispersion=gd3bj scf=xqc pop=npa geom=c
 heck
 ----------------------------------------------------------------------

 ------------------------------------
 CID_153946205_JID_2637_Energie_anion
 ------------------------------------
 Structure from the checkpoint file:  "JID_2637.chk"
 Charge = -1 Multiplicity = 2

                         Standard orientation:
 ---------------------------------------------------------------------
 Center     Atomic      Atomic             Coordinates (Angstroms)
 Number     Number       Type             X           Y           Z
 ---------------------------------------------------------------------
      1          6           0       -2.583310    0.828865    0.869790
      2          6           0       -3.373404    0.906032   -0.410392
      3          6           0       -2.604448   -0.348919   -0.076852
      4          6           0       -1.398112   -0.707839   -0.915304
      5          8           0       -0.608949   -1.754993   -0.372855
      6          6           0        0.127875   -1.413806    0.799265
      7          6           0        1.297299   -0.465679    0.551293
      8          6           0        2.670990   -1.022982    0.249724
      9          6           0        1.909889   -0.306817   -0.828579
     10          6           0        2.175513    1.194808   -1.016087
     11          7           0        1.399682    1.914559    0.018782
     12          6           0        1.295193    0.960723    1.141887
     13          1           0       -3.121065    0.748287    1.810166
     14          1           0       -1.671302    1.416892    0.930883
     15          1           0       -4.457469    0.875105   -0.356664
     16          1           0       -2.988071    1.539216   -1.206460
     17          1           0       -3.192572   -1.210820    0.231603
     18          1           0       -1.721599   -1.080892   -1.893420
     19          1           0       -0.788886    0.194372   -1.092065
     20          1           0       -0.541307   -0.986478    1.558008
     21          1           0        0.486137   -2.374523    1.180771
     22          1           0        3.533478   -0.524511    0.690991
     23          1           0        2.768920   -2.103774    0.169734
     24          1           0        1.514381   -0.890191   -1.654048
     25          1           0        1.892347    1.548221   -2.011946
     26          1           0        3.241197    1.420284   -0.878935
     27          1           0        0.458554    2.049206   -0.351310
     28          1           0        0.397250    1.165838    1.731921
     29          1           0        2.158913    1.105486    1.803673
 ---------------------------------------------------------------------

 SCF Done:  E(UB3LYP) =  -521.352596311     A.U. after   32 cycles

 The electronic state is 2-A.
 Alpha  occ. eigenvalues --  -19.02371 -14.19925 -10.11824 -10.11610 -10.09566
 Alpha  occ. eigenvalues --  -10.09412 -10.08427 -10.07791 -10.07788 -10.07688
 Alpha  occ. eigenvalues --  -10.07224 -10.07130  -0.93495  -0.83000  -0.76188
 Alpha  occ. eigenvalues --   -0.74742  -0.64336  -0.61538  -0.56114  -0.54085
 Alpha  occ. eigenvalues --   -0.50336  -0.49232  -0.47545  -0.44712  -0.41807
 Alpha  occ. eigenvalues --   -0.39997  -0.39183  -0.37418  -0.36422  -0.36245
 Alpha  occ. eigenvalues --   -0.34476  -0.32888  -0.30719  -0.29811  -0.27977
 Alpha  occ. eigenvalues --   -0.27148  -0.26619  -0.26172  -0.25376  -0.22540
 Alpha  occ. eigenvalues --   -0.20142  -0.19632  -0.19010  -0.18004  -0.15956
 Alpha  occ. eigenvalues --   -0.13810   0.04714
 Alpha virt. eigenvalues --    0.06658   0.06869   0.07934   0.08415   0.08966
 Alpha virt. eigenvalues --    0.09428   0.09943   0.10956   0.11164   0.11573
 Alpha virt. eigenvalues --    0.12124   0.12495   0.13133   0.13727   0.14870

  Beta  occ. eigenvalues --  -19.02365 -14.19911 -10.11815 -10.11594 -10.09552
  Beta  occ. eigenvalues --  -10.09390 -10.08428 -10.07784 -10.07780 -10.07670
  Beta  occ. eigenvalues --  -10.07195 -10.07096  -0.93478  -0.82979  -0.76163
  Beta  occ. eigenvalues --   -0.74724  -0.64310  -0.61503  -0.56085  -0.54041
  Beta  occ. eigenvalues --   -0.50237  -0.49183  -0.47494  -0.44684  -0.41771
  Beta  occ. eigenvalues --   -0.39940  -0.39155  -0.37375  -0.36385  -0.36204
  Beta  occ. eigenvalues --   -0.34436  -0.32862  -0.30694  -0.29790  -0.27942
  Beta  occ. eigenvalues --   -0.27118  -0.26579  -0.26142  -0.25344  -0.22511
  Beta  occ. eigenvalues --   -0.20116  -0.19607  -0.18979  -0.17982  -0.15942
  Beta  occ. eigenvalues --   -0.13790
  Beta virt. eigenvalues --    0.06895   0.07652   0.07860   0.08387   0.09042
  Beta virt. eigenvalues --    0.09562   0.09842   0.10401   0.11420   0.11548
  Beta virt. eigenvalues --    0.12021   0.12557   0.12874   0.13562   0.14062

 Mulliken charges and spin densities:
               1          2
     1  C    0.193105  -0.552318
     2  C    1.334922  -1.771996
     3  C   -1.153614   1.452928
     4  C    0.468245  -1.111437
     5  O   -0.058952   0.026973
     6  C   -0.110891  -0.406056
     7  C   -0.525653   1.172982
     8  C    1.550161  -1.977738
     9  C   -1.062192   1.325029
    10  C    0.735778  -1.429393
    11  N   -0.092489   0.109236
    12  C    0.009244  -0.975389
    13  H   -0.565156   0.730735
    14  H    0.265093  -0.126780
    15  H   -0.284846   0.447100
    16  H   -0.512193   0.656350
    17  H   -0.185084   0.410065
    18  H   -0.093279   0.252134
    19  H    0.282219  -0.140335
    20  H    0.058345   0.106255
    21  H   -0.225920   0.398083
    22  H   -0.247398   0.393277
    23  H   -0.030804   0.164613
    24  H   -0.022566   0.283433
    25  H   -0.509202   0.680302
    26  H   -0.090704   0.248687
    27  H    0.195133   0.019438
    28  H   -0.294843   0.419169
    29  H   -0.026458   0.194652
 Sum of Mulliken charges =  -1.00000   1.00000

 Dipole moment (field-independent basis, Debye):
    X=              3.0132    Y=             -2.3253    Z=              0.7358  Tot=              3.8766
 Quadrupole moment (field-independent basis, Debye-Ang):
   XX=           -145.5771   YY=           -118.2556   ZZ=           -115.5682
   XY=              3.2116   XZ=              4.1086   YZ=              2.7772

 Summary of Natural Population Analysis:

                                       Natural Population
                Natural  -----------------------------------------------
    Atom  No    Charge         Core      Valence    Rydberg      Total
 -----------------------------------------------------------------------
      C    1   -0.19883      0.99962     2.18932    0.00989     3.19883
      C    2   -0.19588      0.99962     2.18680    0.00946     3.19588
      C    3   -0.13191      0.99959     2.12150    0.01082     3.13191
      C    4   -0.01023      0.99953     1.99701    0.01369     3.01023
      O    5   -0.29927      0.99989     3.29059    0.00879     4.29927
      C    6   -0.00839      0.99950     1.99551    0.01338     3.00839
      C    7   -0.06610      0.99953     2.05479    0.01178     3.06610
      C    8   -0.18583      0.99957     2.17617    0.01008     3.18583
      C    9   -0.11572      0.99955     2.10574    0.01043     3.11572
      C   10   -0.09377      0.99962     2.08231    0.01183     3.09377
      N   11   -0.33403      0.99977     2.82222    0.01204     3.83403
      C   12   -0.08778      0.99959     2.07733    0.01085     3.08778
      H   13    0.10531      0.00000     0.39296    0.00173     0.39469
      H   14    0.09834      0.00000     0.39990    0.00176     0.40166
      H   15    0.10529      0.00000     0.39297    0.00174     0.39471
      H   16    0.10272      0.00000     0.39574    0.00154     0.39728
      H   17    0.10499      0.00000     0.39373    0.00128     0.39501
      H   18    0.09181      0.00000     0.40668    0.00151     0.40819
      H   19    0.07696      0.00000     0.41954    0.00349     0.42304
      H   20    0.08739      0.00000     0.41106    0.00154     0.41261
      H   21    0.09106      0.00000     0.40749    0.00146     0.40894
      H   22    0.09865      0.00000     0.39987    0.00148     0.40135
      H   23    0.10309      0.00000     0.39577    0.00114     0.39691
      H   24    0.11299      0.00000     0.38560    0.00140     0.38701
      H   25    0.10151      0.00000     0.39688    0.00161     0.39849
      H   26    0.08909      0.00000     0.40939    0.00152     0.41091
      H   27    0.16882      0.00000     0.32678    0.00440     0.33118
      H   28    0.09944      0.00000     0.39932    0.00124     0.40056
      H   29    0.09028      0.00000     0.40820    0.00152     0.40972
 =======================================================================
   * Total *   -0.00000     11.99538    33.84119    0.16343    46.00000

 Normal termination of Gaussian 16 at Wed Dec  9 18:19:21 2020.
