 Gaussian 16, Revision A.03,

 -----------------------------------------------------------
 # opt freq B3LYP/6-31G(d) empiricaldispersion=gd3bj scf=xqc
 -----------------------------------------------------------

 -------------------------------
 CID_117181439_JID_6576_neutraal
 -------------------------------
 Symbolic Z-matrix:
 Charge =  0 Multiplicity = 1

 SCF Done:  E(RB3LYP) =  -1033.83429663     A.U. after   15 cycles
 SCF Done:  E(RB3LYP) =  -1033.84081038     A.U. after   12 cycles
 SCF Done:  E(RB3LYP) =  -1033.84144708     A.U. after   12 cycles
 SCF Done:  E(RB3LYP) =  -1033.84235994     A.U. after   12 cycles
 SCF Done:  E(RB3LYP) =  -1033.84314279     A.U. after   12 cycles
 SCF Done:  E(RB3LYP) =  -1033.84340709     A.U. after   15 cycles
 SCF Done:  E(RB3LYP) =  -1033.84433432     A.U. after   12 cycles
 SCF Done:  E(RB3LYP) =  -1033.84450405     A.U. after   11 cycles
 SCF Done:  E(RB3LYP) =  -1033.84453327     A.U. after   10 cycles
 SCF Done:  E(RB3LYP) =  -1033.84453901     A.U. after    9 cycles
 SCF Done:  E(RB3LYP) =  -1033.84454017     A.U. after    8 cycles
 SCF Done:  E(RB3LYP) =  -1033.84454035     A.U. after    7 cycles
 Optimization completed.
    -- Stationary point found.
 Normal termination of Gaussian 16 at Thu Dec 10 23:40:41 2020.

 --------------------------------------------------------------------
 #N Geom=AllCheck Guess=TCheck SCRF=Check GenChk RB3LYP/6-31G(d) Freq
 --------------------------------------------------------------------

 Structure from the checkpoint file:  "JID_6576.chk"
 -------------------------------
 CID_117181439_JID_6576_neutraal
 -------------------------------
 Charge =  0 Multiplicity = 1

 SCF Done:  E(RB3LYP) =  -1033.84454035     A.U. after    1 cycles

  Exact polarizability: 195.720   4.127 176.337  14.492   4.586 105.331
 Approx polarizability: 279.702  -1.372 321.110  32.045   8.972 158.833

                      1                      2                      3
                      A                      A                      A
 Frequencies --     37.8045                49.0203                56.6616
 Red. masses --      3.4709                 3.5368                 3.6326
 Frc consts  --      0.0029                 0.0050                 0.0069
 IR Inten    --      0.2157                 0.1762                 1.2820

                      4                      5                      6
                      A                      A                      A
 Frequencies --     81.2203               112.9259               149.2572
 Red. masses --      3.1612                 3.6278                 4.1487
 Frc consts  --      0.0123                 0.0273                 0.0545
 IR Inten    --      4.0105                 2.7464                 4.7685

                      7                      8                      9
                      A                      A                      A
 Frequencies --    177.1280               200.9499               215.5554
 Red. masses --      4.3154                 3.5781                 2.9019
 Frc consts  --      0.0798                 0.0851                 0.0794
 IR Inten    --      1.7403                 0.8023                 8.3761

                     10                     11                     12
                      A                      A                      A
 Frequencies --    257.5795               271.2798               281.2090
 Red. masses --      1.1249                 3.7394                 1.1803
 Frc consts  --      0.0440                 0.1621                 0.0550
 IR Inten    --      0.3060                 3.1289                 2.6179

                     13                     14                     15
                      A                      A                      A
 Frequencies --    310.6090               322.7391               354.6850
 Red. masses --      1.6190                 1.9344                 2.4618
 Frc consts  --      0.0920                 0.1187                 0.1825
 IR Inten    --     22.5811                16.5112                 1.6281

                     16                     17                     18
                      A                      A                      A
 Frequencies --    365.2745               380.3153               425.6320
 Red. masses --      3.2853                 2.7197                 3.5621
 Frc consts  --      0.2583                 0.2318                 0.3802
 IR Inten    --      5.2484                 1.6872                12.0392

                     19                     20                     21
                      A                      A                      A
 Frequencies --    466.7820               476.5094               494.0022
 Red. masses --      4.0607                 5.2212                 4.7635
 Frc consts  --      0.5213                 0.6985                 0.6849
 IR Inten    --      3.9786                 1.1157                 2.0367

                     22                     23                     24
                      A                      A                      A
 Frequencies --    522.8200               549.6678               564.0180
 Red. masses --      4.3690                 2.8042                 4.9465
 Frc consts  --      0.7036                 0.4992                 0.9271
 IR Inten    --      4.9387                 3.6089                 4.2053

                     25                     26                     27
                      A                      A                      A
 Frequencies --    588.1478               652.7945               692.5942
 Red. masses --      4.3418                 4.2951                 4.2230
 Frc consts  --      0.8849                 1.0784                 1.1935
 IR Inten    --      0.7680                 7.3434                13.4065

                     28                     29                     30
                      A                      A                      A
 Frequencies --    753.5388               765.9713               774.3849
 Red. masses --      2.5106                 5.0311                 2.5112
 Frc consts  --      0.8399                 1.7391                 0.8872
 IR Inten    --     12.4603                 6.4045                 6.6340

                     31                     32                     33
                      A                      A                      A
 Frequencies --    804.3062               809.2152               836.0611
 Red. masses --      1.5132                 1.7620                 3.3408
 Frc consts  --      0.5767                 0.6798                 1.3758
 IR Inten    --     31.1319                32.7016                 1.9898

                     34                     35                     36
                      A                      A                      A
 Frequencies --    854.9886               906.5149               913.3112
 Red. masses --      1.4026                 2.1789                 1.9209
 Frc consts  --      0.6041                 1.0550                 0.9440
 IR Inten    --     91.6806                 3.3986                 9.9875

                     37                     38                     39
                      A                      A                      A
 Frequencies --    923.1568               934.8673               949.7144
 Red. masses --      1.9402                 1.3303                 1.3237
 Frc consts  --      0.9742                 0.6850                 0.7034
 IR Inten    --      4.2988                 0.8237                 0.6133

                     40                     41                     42
                      A                      A                      A
 Frequencies --    975.1234              1013.0948              1034.7822
 Red. masses --      1.2793                 2.1242                 1.8776
 Frc consts  --      0.7167                 1.2845                 1.1846
 IR Inten    --      0.9515                19.2637                 1.5452

                     43                     44                     45
                      A                      A                      A
 Frequencies --   1069.2487              1074.5177              1080.7018
 Red. masses --      3.2497                 5.4101                 2.6795
 Frc consts  --      2.1890                 3.6803                 1.8438
 IR Inten    --     65.5747                 9.5850                26.9528

                     46                     47                     48
                      A                      A                      A
 Frequencies --   1135.9993              1154.3419              1159.0986
 Red. masses --      1.9460                 2.1413                 2.3639
 Frc consts  --      1.4796                 1.6811                 1.8712
 IR Inten    --      2.7288                18.4330                 2.7758

                     49                     50                     51
                      A                      A                      A
 Frequencies --   1183.4076              1199.2034              1205.2167
 Red. masses --      1.2566                 2.5165                 1.4066
 Frc consts  --      1.0368                 2.1322                 1.2038
 IR Inten    --      4.2515               150.6628                 3.5241

                     52                     53                     54
                      A                      A                      A
 Frequencies --   1209.6044              1224.2703              1271.2253
 Red. masses --      1.7326                 1.6700                 1.5763
 Frc consts  --      1.4936                 1.4748                 1.5008
 IR Inten    --      9.7492                 2.1163                 0.8419

                     55                     56                     57
                      A                      A                      A
 Frequencies --   1312.6340              1329.0970              1374.9783
 Red. masses --      1.2454                 1.3651                 5.2167
 Frc consts  --      1.2643                 1.4208                 5.8108
 IR Inten    --      5.6276                 3.5339                 0.4378

                     58                     59                     60
                      A                      A                      A
 Frequencies --   1382.4340              1400.5492              1412.2972
 Red. masses --      1.3344                 2.4679                 1.2053
 Frc consts  --      1.5025                 2.8521                 1.4164
 IR Inten    --      7.3995                 2.1191                 8.2094

                     61                     62                     63
                      A                      A                      A
 Frequencies --   1425.7414              1426.2532              1430.2289
 Red. masses --      1.2896                 1.3138                 2.0483
 Frc consts  --      1.5445                 1.5746                 2.4686
 IR Inten    --     14.9087                17.6198                 9.4530

                     64                     65                     66
                      A                      A                      A
 Frequencies --   1443.2066              1459.6517              1513.2522
 Red. masses --      1.2418                 1.9620                 1.0730
 Frc consts  --      1.5239                 2.4629                 1.4477
 IR Inten    --     18.9323                36.2183                 1.0940

                     67                     68                     69
                      A                      A                      A
 Frequencies --   1515.5862              1519.8661              1525.3038
 Red. masses --      1.0833                 2.2748                 1.0652
 Frc consts  --      1.4661                 3.0960                 1.4602
 IR Inten    --      1.7805                 6.3441                 2.5308

                     70                     71                     72
                      A                      A                      A
 Frequencies --   1530.2975              1530.8175              1544.3265
 Red. masses --      1.0506                 1.1497                 1.0611
 Frc consts  --      1.4496                 1.5874                 1.4911
 IR Inten    --      9.8870                 0.7384                 4.1491

                     73                     74                     75
                      A                      A                      A
 Frequencies --   1593.3713              1632.3124              1647.2998
 Red. masses --      6.2690                 6.7836                 5.7123
 Frc consts  --      9.3773                10.6493                 9.1328
 IR Inten    --     10.9345                 5.4724                 0.0590

                     76                     77                     78
                      A                      A                      A
 Frequencies --   1690.5598              2974.3670              3034.7688
 Red. masses --      1.0991                 1.0707                 1.0597
 Frc consts  --      1.8507                 5.5808                 5.7500
 IR Inten    --     31.9314                83.4291                49.6295

                     79                     80                     81
                      A                      A                      A
 Frequencies --   3041.4097              3050.8290              3053.2144
 Red. masses --      1.0905                 1.0797                 1.0396
 Frc consts  --      5.9431                 5.9208                 5.7100
 IR Inten    --     26.5885                32.5034                28.1693

                     82                     83                     84
                      A                      A                      A
 Frequencies --   3059.1110              3076.8301              3121.9608
 Red. masses --      1.0423                 1.1031                 1.0999
 Frc consts  --      5.7470                 6.1529                 6.3165
 IR Inten    --     15.5564                26.5990                 7.6218

                     85                     86                     87
                      A                      A                      A
 Frequencies --   3126.9922              3128.5932              3152.7185
 Red. masses --      1.1025                 1.0988                 1.1029
 Frc consts  --      6.3517                 6.3365                 6.4591
 IR Inten    --     23.9051                67.1862                21.2430

                     88                     89                     90
                      A                      A                      A
 Frequencies --   3177.5760              3198.9829              3225.0403
 Red. masses --      1.0873                 1.0915                 1.0936
 Frc consts  --      6.4686                 6.5810                 6.7015
 IR Inten    --     11.9598                24.4799                 6.9121

                     91                     92                     93
                      A                      A                      A
 Frequencies --   3240.9057              3482.3571              3573.3026
 Red. masses --      1.0933                 1.0492                 1.0941
 Frc consts  --      6.7656                 7.4966                 8.2305
 IR Inten    --      2.8732                 0.4373                 0.3467

 - Thermochemistry -
 -------------------
 Temperature   298.150 Kelvin.  Pressure   1.00000 Atm.
 Atom     1 has atomic number  6 and mass  12.00000

 Molecular mass:   235.10309 amu.
 Principal axes and moments of inertia in atomic units:
                           1         2         3
     Eigenvalues --  2142.482855560.846746506.61775
           X            0.99989   0.01470  -0.00214
           Y           -0.01471   0.99987  -0.00583
           Z            0.00205   0.00586   0.99998
 This molecule is an asymmetric top.
 Rotational symmetry number  1.
 Warning -- assumption of classical behavior for rotation
           may cause significant error
 Rotational temperatures (Kelvin)      0.04043     0.01558     0.01331
 Rotational constants (GHZ):           0.84236     0.32454     0.27737
 Zero-point vibrational energy     733502.7 (Joules/Mol)
                                  175.31135 (Kcal/Mol)
 Warning -- explicit consideration of  25 degrees of freedom as
           vibrations may cause significant error
 Vibrational temperatures:     54.39    70.53    81.52   116.86   162.48
          (Kelvin)            214.75   254.85   289.12   310.14   370.60
                              390.31   404.60   446.90   464.35   510.31
                              525.55   547.19   612.39   671.60   685.59
                              710.76   752.22   790.85   811.50   846.21
                              939.23   996.49  1084.17  1102.06  1114.17
                             1157.22  1164.28  1202.91  1230.14  1304.27
                             1314.05  1328.22  1345.07  1366.43  1402.99
                             1457.62  1488.82  1538.41  1545.99  1554.89
                             1634.45  1660.84  1667.68  1702.66  1725.39
                             1734.04  1740.35  1761.45  1829.01  1888.59
                             1912.27  1978.29  1989.01  2015.08  2031.98
                             2051.32  2052.06  2057.78  2076.45  2100.11
                             2177.23  2180.59  2186.75  2194.57  2201.76
                             2202.50  2221.94  2292.51  2348.53  2370.10
                             2432.34  4279.45  4366.36  4375.91  4389.46
                             4392.89  4401.38  4426.87  4491.81  4499.04
                             4501.35  4536.06  4571.82  4602.62  4640.11
                             4662.94  5010.34  5141.19

 Zero-point correction=                           0.279376 (Hartree/Particle)
 Thermal correction to Energy=                    0.295024
 Thermal correction to Enthalpy=                  0.295969
 Thermal correction to Gibbs Free Energy=         0.236175
 Sum of electronic and zero-point Energies=          -1033.565164
 Sum of electronic and thermal Energies=             -1033.549516
 Sum of electronic and thermal Enthalpies=           -1033.548572
 Sum of electronic and thermal Free Energies=        -1033.608365

                     E (Thermal)             CV                S
                      KCal/Mol        Cal/Mol-Kelvin    Cal/Mol-Kelvin
 Total                  185.131             60.545            125.846
 Electronic               0.000              0.000              0.000
 Translational            0.889              2.981             42.266
 Rotational               0.889              2.981             32.716
 Vibrational            183.353             54.584             50.863
 Vibration     1          0.594              1.982              5.371
 Vibration     2          0.595              1.978              4.857
 Vibration     3          0.596              1.975              4.570
 Vibration     4          0.600              1.962              3.861
 Vibration     5          0.607              1.939              3.218
 Vibration     6          0.618              1.903              2.682
 Vibration     7          0.628              1.871              2.358
 Vibration     8          0.638              1.839              2.124
 Vibration     9          0.645              1.817              1.996
 Vibration    10          0.667              1.750              1.678
 Vibration    11          0.675              1.726              1.588
 Vibration    12          0.681              1.708              1.526
 Vibration    13          0.699              1.653              1.359
 Vibration    14          0.708              1.630              1.296
 Vibration    15          0.731              1.566              1.145
 Vibration    16          0.738              1.544              1.100
 Vibration    17          0.750              1.512              1.038
 Vibration    18          0.787              1.414              0.873
 Vibration    19          0.824              1.324              0.747
 Vibration    20          0.833              1.302              0.720
 Vibration    21          0.850              1.263              0.673
 Vibration    22          0.878              1.199              0.603
 Vibration    23          0.905              1.140              0.545
 Vibration    24          0.920              1.109              0.516
 Vibration    25          0.945              1.057              0.470

                           ! Non-Optimized Parameters !
 Normal termination of Gaussian 16 at Thu Dec 10 23:51:55 2020.

 ----------------------------------------------------------------------
 # B3LYP/6-311++G(d,p) empiricaldispersion=gd3bj scf=xqc pop=npa geom=c
 heck
 ----------------------------------------------------------------------

 ---------------------------------------
 CID_117181439_JID_6576_Energie_neutraal
 ---------------------------------------
 Structure from the checkpoint file:  "JID_6576.chk"
 Charge =  0 Multiplicity = 1

 SCF Done:  E(RB3LYP) =  -1034.04637598     A.U. after   16 cycles
 Normal termination of Gaussian 16 at Thu Dec 10 23:57:05 2020.

 ----------------------------------------------------------------------
 # B3LYP/6-311++G(d,p) empiricaldispersion=gd3bj scf=xqc pop=npa geom=c
 heck
 ----------------------------------------------------------------------

 -------------------------------------
 CID_117181439_JID_6576_Energie_kation
 -------------------------------------
 Structure from the checkpoint file:  "JID_6576.chk"
 Charge =  1 Multiplicity = 2

 SCF Done:  E(UB3LYP) =  -1033.76873519     A.U. after   27 cycles
 Normal termination of Gaussian 16 at Fri Dec 11 00:09:01 2020.
 Gaussian 16:  ES64L-G16RevA.03 25-Dec-2016

 ----------------------------------------------------------------------
 # B3LYP/6-311++G(d,p) empiricaldispersion=gd3bj scf=xqc pop=npa geom=c
 heck
 ----------------------------------------------------------------------

 ------------------------------------
 CID_117181439_JID_6576_Energie_anion
 ------------------------------------
 Structure from the checkpoint file:  "JID_6576.chk"
 Charge = -1 Multiplicity = 2

                         Standard orientation:
 ---------------------------------------------------------------------
 Center     Atomic      Atomic             Coordinates (Angstroms)
 Number     Number       Type             X           Y           Z
 ---------------------------------------------------------------------
      1          6           0       -4.067199   -1.017451    0.727862
      2          6           0       -3.376913    0.342372    0.840014
      3          6           0       -2.237549    0.328091    1.863476
      4          8           0       -2.976090    0.882735   -0.431081
      5          6           0       -2.310411    0.028656   -1.353767
      6          6           0       -0.925529   -0.395918   -0.947021
      7          6           0       -0.495636   -1.684911   -0.898282
      8         16           0        1.169234   -1.871890   -0.387166
      9          6           0        1.340406   -0.121288   -0.273154
     10          6           0        2.501052    0.601189    0.052255
     11          6           0        2.396752    1.989510    0.104485
     12          6           0        1.190500    2.652719   -0.174501
     13          6           0        0.055904    1.936062   -0.522563
     14          6           0        0.123557    0.533126   -0.586945
     15          6           0        3.829462   -0.081234    0.280360
     16          7           0        3.670017   -1.298119    1.076786
     17          1           0       -3.356581   -1.814474    0.484121
     18          1           0       -4.851756   -0.998433   -0.036157
     19          1           0       -4.530647   -1.272505    1.686980
     20          1           0       -4.121936    1.073778    1.175987
     21          1           0       -1.503246   -0.451090    1.643073
     22          1           0       -1.721743    1.292238    1.871759
     23          1           0       -2.643764    0.141825    2.865056
     24          1           0       -2.913209   -0.859822   -1.584334
     25          1           0       -2.257506    0.629364   -2.269535
     26          1           0       -1.085400   -2.568357   -1.112155
     27          1           0        3.278774    2.569637    0.365036
     28          1           0        1.150396    3.736552   -0.114844
     29          1           0       -0.886682    2.433912   -0.722532
     30          1           0        4.243017   -0.389025   -0.690408
     31          1           0        4.535465    0.653227    0.704011
     32          1           0        4.551185   -1.801792    1.142594
     33          1           0        3.378114   -1.065383    2.023858
 ---------------------------------------------------------------------

 SCF Done:  E(UB3LYP) =  -1034.03506886     A.U. after   33 cycles
 SCF Done:  E(UB3LYP) =  -1034.03506886     a.u. after    1 cycles

 The electronic state is 2-A.
 Alpha  occ. eigenvalues --  -88.75609 -19.02263 -14.18554 -10.12606 -10.12363
 Alpha  occ. eigenvalues --  -10.09085 -10.08946 -10.08306 -10.06850 -10.06783
 Alpha  occ. eigenvalues --  -10.06774 -10.06739 -10.06259 -10.05728 -10.05543
 Alpha  occ. eigenvalues --  -10.05462  -7.84141  -5.80455  -5.80080  -5.79695
 Alpha  occ. eigenvalues --   -0.93204  -0.78752  -0.76888  -0.71685  -0.68863
 Alpha  occ. eigenvalues --   -0.66410  -0.63102  -0.61403  -0.59463  -0.56538
 Alpha  occ. eigenvalues --   -0.55169  -0.49470  -0.48286  -0.47047  -0.43655
 Alpha  occ. eigenvalues --   -0.40235  -0.39029  -0.38104  -0.37498  -0.36581
 Alpha  occ. eigenvalues --   -0.35054  -0.34253  -0.33195  -0.31813  -0.31124
 Alpha  occ. eigenvalues --   -0.30395  -0.29927  -0.29370  -0.28715  -0.27883
 Alpha  occ. eigenvalues --   -0.27110  -0.26142  -0.25770  -0.24900  -0.24019
 Alpha  occ. eigenvalues --   -0.22121  -0.21603  -0.20468  -0.16979  -0.16004
 Alpha  occ. eigenvalues --   -0.13504  -0.12829  -0.10780   0.04498
 Alpha virt. eigenvalues --    0.05917   0.06932   0.07678   0.08016   0.08769
 Alpha virt. eigenvalues --    0.09033   0.09508   0.09918   0.10041   0.10416
 Alpha virt. eigenvalues --    0.11128   0.11603   0.11802   0.12670   0.12940

  Beta  occ. eigenvalues --  -88.75605 -19.02262 -14.18498 -10.12601 -10.12362
  Beta  occ. eigenvalues --  -10.09103 -10.08928 -10.08198 -10.06772 -10.06759
  Beta  occ. eigenvalues --  -10.06746 -10.06716 -10.06289 -10.05634 -10.05451
  Beta  occ. eigenvalues --  -10.05415  -7.84136  -5.80453  -5.80078  -5.79681
  Beta  occ. eigenvalues --   -0.93199  -0.78645  -0.76783  -0.71540  -0.68836
  Beta  occ. eigenvalues --   -0.66285  -0.62995  -0.61280  -0.59420  -0.56485
  Beta  occ. eigenvalues --   -0.55005  -0.49296  -0.48213  -0.46999  -0.43566
  Beta  occ. eigenvalues --   -0.40208  -0.38964  -0.38001  -0.37460  -0.36500
  Beta  occ. eigenvalues --   -0.34998  -0.34182  -0.33152  -0.31724  -0.31085
  Beta  occ. eigenvalues --   -0.30343  -0.29867  -0.29294  -0.28607  -0.27787
  Beta  occ. eigenvalues --   -0.27035  -0.26087  -0.25728  -0.24835  -0.23958
  Beta  occ. eigenvalues --   -0.22038  -0.21294  -0.20433  -0.16780  -0.15847
  Beta  occ. eigenvalues --   -0.13387  -0.12510  -0.10311
  Beta virt. eigenvalues --    0.06431   0.07290   0.07668   0.07868   0.08365
  Beta virt. eigenvalues --    0.08992   0.09240   0.09750   0.10221   0.10418
  Beta virt. eigenvalues --    0.10482   0.11346   0.11827   0.12022   0.12731

 Mulliken charges and spin densities:
               1          2
     1  C    0.423454  -0.960050
     2  C   -0.446955   0.618042
     3  C   -0.129708  -0.538829
     4  O   -0.073183  -0.000555
     5  C   -0.317556  -0.454438
     6  C    0.304258  -0.045811
     7  C   -0.075977   0.138569
     8  S   -0.261520  -0.356783
     9  C    0.133433   0.403209
    10  C   -0.583421   1.349684
    11  C   -0.382464  -0.193739
    12  C   -0.081280  -0.464276
    13  C   -0.373346   0.095800
    14  C    0.357620   0.090991
    15  C    1.357997  -1.991315
    16  N   -0.383503   0.064762
    17  H   -0.078382   0.223511
    18  H    0.010178   0.128822
    19  H   -0.315177   0.463793
    20  H   -0.054547   0.239172
    21  H    0.110027   0.082829
    22  H    0.113823   0.036304
    23  H    0.000440   0.133888
    24  H    0.122462   0.017460
    25  H    0.168207  -0.022561
    26  H    0.083694   0.123427
    27  H   -0.034262   0.124983
    28  H    0.114934   0.032689
    29  H    0.145349   0.013912
    30  H   -0.159203   0.330825
    31  H   -0.460038   0.633394
    32  H   -0.256485   0.502955
    33  H    0.021131   0.179335
 Sum of Mulliken charges =  -1.00000   1.00000

 Dipole moment (field-independent basis, Debye):
    X=             -4.6357    Y=              2.1436    Z=             -2.5849  Tot=              5.7242
 Quadrupole moment (field-independent basis, Debye-Ang):
   XX=           -196.0551   YY=           -134.6507   ZZ=           -129.8222
   XY=              6.6340   XZ=              2.5392   YZ=              5.7290

 Summary of Natural Population Analysis:

                                       Natural Population
                Natural  -----------------------------------------------
    Atom  No    Charge         Core      Valence    Rydberg      Total
 -----------------------------------------------------------------------
      C    1   -0.30400      0.99964     2.29913    0.00522     3.30400
      C    2    0.06554      0.99957     1.92016    0.01473     2.93446
      C    3   -0.30173      0.99964     2.29646    0.00563     3.30173
      O    4   -0.30678      0.99989     3.29792    0.00897     4.30678
      C    5   -0.01629      0.99952     2.00359    0.01318     3.01629
      C    6   -0.05995      0.99943     2.05017    0.01036     3.05995
      C    7   -0.16220      0.99944     2.15117    0.01158     3.16220
      S    8    0.20961      4.99947     2.77029    0.02064     7.79039
      C    9   -0.08761      0.99936     2.07568    0.01258     3.08761
      C   10   -0.01863      0.99944     2.00785    0.01134     3.01863
      C   11   -0.08804      0.99952     2.07861    0.00991     3.08804
      C   12   -0.11306      0.99957     2.10401    0.00948     3.11306
      C   13   -0.07502      0.99952     2.06761    0.00789     3.07502
      C   14   -0.03889      0.99943     2.02940    0.01006     3.03889
      C   15   -0.09281      0.99960     2.08030    0.01291     3.09281
      N   16   -0.41983      0.99977     2.90896    0.01110     3.91983
      H   17    0.10090      0.00000     0.39781    0.00129     0.39910
      H   18    0.09972      0.00000     0.39939    0.00090     0.40028
      H   19    0.10447      0.00000     0.39447    0.00106     0.39553
      H   20    0.08481      0.00000     0.41378    0.00141     0.41519
      H   21    0.10599      0.00000     0.39272    0.00129     0.39401
      H   22    0.10697      0.00000     0.39214    0.00090     0.39303
      H   23    0.09681      0.00000     0.40236    0.00082     0.40319
      H   24    0.08332      0.00000     0.41547    0.00121     0.41668
      H   25    0.09286      0.00000     0.40595    0.00119     0.40714
      H   26    0.10312      0.00000     0.39581    0.00107     0.39688
      H   27    0.09577      0.00000     0.40315    0.00107     0.40423
      H   28    0.09549      0.00000     0.40373    0.00077     0.40451
      H   29    0.10390      0.00000     0.39459    0.00151     0.39610
      H   30    0.09787      0.00000     0.40017    0.00195     0.40213
      H   31    0.08266      0.00000     0.41551    0.00183     0.41734
      H   32    0.18060      0.00000     0.31368    0.00572     0.31940
      H   33    0.17445      0.00000     0.32346    0.00209     0.32555
 =======================================================================
   * Total *    0.00000     19.99281    42.80552    0.20167    63.00000

 Normal termination of Gaussian 16 at Fri Dec 11 00:23:25 2020.
