 Gaussian 16, Revision A.03,

 -----------------------------------------------------------
 # opt freq B3LYP/6-31G(d) empiricaldispersion=gd3bj scf=xqc
 -----------------------------------------------------------

 -----------------------------
 CID_6907928_JID_8455_neutraal
 -----------------------------
 Symbolic Z-matrix:
 Charge =  0 Multiplicity = 1

 SCF Done:  E(RB3LYP) =  -840.151323387     A.U. after   15 cycles
 SCF Done:  E(RB3LYP) =  -840.158109710     A.U. after   14 cycles
 SCF Done:  E(RB3LYP) =  -840.160794158     A.U. after   14 cycles
 SCF Done:  E(RB3LYP) =  -840.163201036     A.U. after   15 cycles
 SCF Done:  E(RB3LYP) =  -840.164452680     A.U. after   16 cycles
 SCF Done:  E(RB3LYP) =  -840.166167910     A.U. after   13 cycles
 SCF Done:  E(RB3LYP) =  -840.167888038     A.U. after   12 cycles
 SCF Done:  E(RB3LYP) =  -840.170958446     A.U. after   15 cycles
 SCF Done:  E(RB3LYP) =  -840.172927303     A.U. after   12 cycles
 SCF Done:  E(RB3LYP) =  -840.175281121     A.U. after   14 cycles
 SCF Done:  E(RB3LYP) =  -840.176608776     A.U. after   10 cycles
 SCF Done:  E(RB3LYP) =  -840.176614030     A.U. after    9 cycles
 SCF Done:  E(RB3LYP) =  -840.176614935     A.U. after    8 cycles
 SCF Done:  E(RB3LYP) =  -840.176615229     A.U. after    8 cycles
 SCF Done:  E(RB3LYP) =  -840.176615297     A.U. after    7 cycles
 SCF Done:  E(RB3LYP) =  -840.176615316     A.U. after    6 cycles
 Optimization completed.
    -- Stationary point found.
 Normal termination of Gaussian 16 at Fri Dec 11 20:20:22 2020.

 --------------------------------------------------------------------
 #N Geom=AllCheck Guess=TCheck SCRF=Check GenChk RB3LYP/6-31G(d) Freq
 --------------------------------------------------------------------

 Structure from the checkpoint file:  "JID_8455.chk"
 -----------------------------
 CID_6907928_JID_8455_neutraal
 -----------------------------
 Charge =  0 Multiplicity = 1

 SCF Done:  E(RB3LYP) =  -840.176615317     A.U. after    1 cycles

  Exact polarizability: 288.404  -8.603 166.815  -0.522   4.008  85.647
 Approx polarizability: 382.591 -18.433 265.908  -0.264  13.302 129.400

                      1                      2                      3
                      A                      A                      A
 Frequencies --     19.7492                41.3916                50.1072
 Red. masses --      4.3826                 3.7576                 4.7621
 Frc consts  --      0.0010                 0.0038                 0.0070
 IR Inten    --      0.3503                 0.0351                 0.1008

                      4                      5                      6
                      A                      A                      A
 Frequencies --     54.5362                80.6880                92.2309
 Red. masses --      3.1875                 2.6377                 3.7848
 Frc consts  --      0.0056                 0.0101                 0.0190
 IR Inten    --      0.1366                 2.7671                 4.5983

                      7                      8                      9
                      A                      A                      A
 Frequencies --    113.8949               139.2622               154.1584
 Red. masses --      4.3536                 2.3543                 2.7669
 Frc consts  --      0.0333                 0.0269                 0.0387
 IR Inten    --      1.3001                 5.1847                 2.1838

                     10                     11                     12
                      A                      A                      A
 Frequencies --    169.4212               214.4643               232.1999
 Red. masses --      1.9425                 2.5949                 2.6274
 Frc consts  --      0.0329                 0.0703                 0.0835
 IR Inten    --      4.1532                 1.3577                10.0972

                     13                     14                     15
                      A                      A                      A
 Frequencies --    246.6132               247.6503               282.9993
 Red. masses --      3.0439                 3.1285                 3.2007
 Frc consts  --      0.1091                 0.1130                 0.1510
 IR Inten    --      4.9706                 1.5960                 6.3624

                     16                     17                     18
                      A                      A                      A
 Frequencies --    285.7479               287.7062               307.4296
 Red. masses --      3.5279                 2.5425                 3.6110
 Frc consts  --      0.1697                 0.1240                 0.2011
 IR Inten    --      5.2076                 6.8024                 0.7798

                     19                     20                     21
                      A                      A                      A
 Frequencies --    352.3704               378.8087               414.1860
 Red. masses --      5.2404                 5.4143                 4.7792
 Frc consts  --      0.3834                 0.4578                 0.4831
 IR Inten    --      1.0172                28.6872                 2.2916

                     22                     23                     24
                      A                      A                      A
 Frequencies --    507.9856               549.0145               560.9212
 Red. masses --      5.7933                 6.7302                 5.8455
 Frc consts  --      0.8808                 1.1952                 1.0836
 IR Inten    --      3.0881                 1.5177                19.7024

                     25                     26                     27
                      A                      A                      A
 Frequencies --    573.1203               610.1956               611.1385
 Red. masses --      3.8318                 3.7470                 1.2011
 Frc consts  --      0.7416                 0.8220                 0.2643
 IR Inten    --      2.5769                 0.7595                77.1232

                     28                     29                     30
                      A                      A                      A
 Frequencies --    649.8723               667.2758               739.5922
 Red. masses --      5.5041                 4.5701                 4.5801
 Frc consts  --      1.3696                 1.1989                 1.4761
 IR Inten    --     13.1149                10.6824                19.4071

                     31                     32                     33
                      A                      A                      A
 Frequencies --    749.3225               757.4828               793.0508
 Red. masses --      2.5378                 2.4972                 1.9429
 Frc consts  --      0.8395                 0.8442                 0.7200
 IR Inten    --      7.6026                19.0465                32.3033

                     34                     35                     36
                      A                      A                      A
 Frequencies --    804.8887               824.1169               839.2977
 Red. masses --      1.6500                 2.6228                 2.9803
 Frc consts  --      0.6298                 1.0495                 1.2369
 IR Inten    --      5.2342                 4.9101                 1.8539

                     37                     38                     39
                      A                      A                      A
 Frequencies --    842.4233               883.8702               924.5099
 Red. masses --      1.7972                 1.3773                 2.4496
 Frc consts  --      0.7515                 0.6340                 1.2336
 IR Inten    --      6.2946                 0.2144                 0.9942

                     40                     41                     42
                      A                      A                      A
 Frequencies --    952.9552               962.8795               973.3271
 Red. masses --      4.0592                 1.2599                 3.8079
 Frc consts  --      2.1719                 0.6882                 2.1254
 IR Inten    --     35.6659                 0.5875                44.2911

                     43                     44                     45
                      A                      A                      A
 Frequencies --    981.9073              1045.0084              1073.7754
 Red. masses --      1.4866                 8.0850                 1.2495
 Frc consts  --      0.8445                 5.2020                 0.8488
 IR Inten    --     10.2954                72.3394                 3.8407

                     46                     47                     48
                      A                      A                      A
 Frequencies --   1098.5786              1112.3232              1122.6971
 Red. masses --      1.3423                 2.6929                 1.6031
 Frc consts  --      0.9545                 1.9630                 1.1905
 IR Inten    --      2.8728               118.3616                23.0572

                     49                     50                     51
                      A                      A                      A
 Frequencies --   1126.1667              1144.9663              1184.8287
 Red. masses --      2.4303                 1.0933                 1.2757
 Frc consts  --      1.8160                 0.8444                 1.0551
 IR Inten    --     86.1803                 2.1100                16.1304

                     52                     53                     54
                      A                      A                      A
 Frequencies --   1186.9084              1189.8260              1207.8890
 Red. masses --      1.2723                 2.6185                 1.3703
 Frc consts  --      1.0560                 2.1841                 1.1780
 IR Inten    --      2.1752                74.1822                10.9453

                     55                     56                     57
                      A                      A                      A
 Frequencies --   1217.0051              1223.0591              1224.9130
 Red. masses --      1.5675                 1.3660                 1.4136
 Frc consts  --      1.3678                 1.2039                 1.2497
 IR Inten    --      6.1806                 0.1618                 7.2291

                     58                     59                     60
                      A                      A                      A
 Frequencies --   1232.7041              1262.7379              1271.6771
 Red. masses --      1.9040                 3.1099                 3.1004
 Frc consts  --      1.7046                 2.9216                 2.9541
 IR Inten    --     38.2720               101.6865               371.3841

                     61                     62                     63
                      A                      A                      A
 Frequencies --   1304.1452              1322.2407              1358.3863
 Red. masses --      1.7754                 3.9762                 2.7145
 Frc consts  --      1.7791                 4.0958                 2.9512
 IR Inten    --      3.4411               310.9506                46.0391

                     64                     65                     66
                      A                      A                      A
 Frequencies --   1388.6511              1449.0934              1479.3234
 Red. masses --      2.0267                 1.9426                 1.5753
 Frc consts  --      2.3026                 2.4034                 2.0311
 IR Inten    --     34.6074               355.1993                14.5470

                     67                     68                     69
                      A                      A                      A
 Frequencies --   1480.7002              1495.0444              1512.2327
 Red. masses --      1.0897                 1.3413                 1.6274
 Frc consts  --      1.4076                 1.7664                 2.1928
 IR Inten    --      2.0637                70.5038                46.2975

                     70                     71                     72
                      A                      A                      A
 Frequencies --   1513.6180              1520.1028              1521.0603
 Red. masses --      1.1010                 1.4124                 1.0484
 Frc consts  --      1.4861                 1.9228                 1.4292
 IR Inten    --     33.7502                15.6270                 6.2263

                     73                     74                     75
                      A                      A                      A
 Frequencies --   1528.1637              1532.6453              1538.4558
 Red. masses --      1.7615                 2.5607                 1.2043
 Frc consts  --      2.4236                 3.5439                 1.6794
 IR Inten    --    191.6638                37.6996                 4.9854

                     76                     77                     78
                      A                      A                      A
 Frequencies --   1540.5220              1636.2372              1655.3379
 Red. masses --      1.0643                 5.6969                 6.5407
 Frc consts  --      1.4881                 8.9862                10.5595
 IR Inten    --     10.1107                29.1175                 9.1846

                     79                     80                     81
                      A                      A                      A
 Frequencies --   1687.9291              1780.7124              3028.7876
 Red. masses --      7.8770                 8.0833                 1.0347
 Frc consts  --     13.2226                15.1017                 5.5923
 IR Inten    --     38.7906               412.5477                61.4907

                     82                     83                     84
                      A                      A                      A
 Frequencies --   3038.5459              3089.0780              3110.5471
 Red. masses --      1.0390                 1.1066                 1.0869
 Frc consts  --      5.6520                 6.2216                 6.1962
 IR Inten    --     55.4292                39.9377                33.4257

                     85                     86                     87
                      A                      A                      A
 Frequencies --   3121.5493              3157.9518              3159.6410
 Red. masses --      1.0954                 1.0502                 1.1062
 Frc consts  --      6.2890                 6.1704                 6.5070
 IR Inten    --     39.1392                16.5119                20.1358

                     88                     89                     90
                      A                      A                      A
 Frequencies --   3160.1522              3162.6250              3197.3760
 Red. masses --      1.0580                 1.1001                 1.0881
 Frc consts  --      6.2253                 6.4830                 6.5541
 IR Inten    --     14.1209                25.5885                10.4534

                     91                     92                     93
                      A                      A                      A
 Frequencies --   3229.0582              3233.0105              3237.2492
 Red. masses --      1.0904                 1.0937                 1.0930
 Frc consts  --      6.6986                 6.7352                 6.7488
 IR Inten    --      4.8336                10.4309                 0.1328

                     94                     95                     96
                      A                      A                      A
 Frequencies --   3241.6713              3255.8897              3476.1734
 Red. masses --      1.1201                 1.1140                 1.0754
 Frc consts  --      6.9351                 6.9577                 7.6563
 IR Inten    --      0.3593                 7.7525                 3.0339

 - Thermochemistry -
 -------------------
 Temperature   298.150 Kelvin.  Pressure   1.00000 Atm.
 Atom     1 has atomic number  6 and mass  12.00000

 Molecular mass:   248.11609 amu.
 Principal axes and moments of inertia in atomic units:
                           1         2         3
     Eigenvalues --  1708.93458********************
           X            0.99997   0.00746  -0.00113
           Y           -0.00748   0.99991  -0.01119
           Z            0.00105   0.01120   0.99994
 This molecule is an asymmetric top.
 Rotational symmetry number  1.
 Warning -- assumption of classical behavior for rotation
           may cause significant error
 Rotational temperatures (Kelvin)      0.05068     0.00768     0.00682
 Rotational constants (GHZ):           1.05606     0.16007     0.14210
 Zero-point vibrational energy     729684.6 (Joules/Mol)
                                  174.39880 (Kcal/Mol)
 Warning -- explicit consideration of  27 degrees of freedom as
           vibrations may cause significant error
 Vibrational temperatures:     28.41    59.55    72.09    78.47   116.09
          (Kelvin)            132.70   163.87   200.37   221.80   243.76
                              308.57   334.08   354.82   356.31   407.17
                              411.13   413.95   442.32   506.98   545.02
                              595.92   730.88   789.91   807.04   824.59
                              877.94   879.29   935.02   960.06  1064.11
                             1078.11  1089.85  1141.02  1158.06  1185.72
                             1207.56  1212.06  1271.69  1330.16  1371.09
                             1385.37  1400.40  1412.75  1503.53  1544.92
                             1580.61  1600.39  1615.31  1620.30  1647.35
                             1704.70  1707.70  1711.89  1737.88  1751.00
                             1759.71  1762.38  1773.59  1816.80  1829.66
                             1876.37  1902.41  1954.41  1997.96  2084.92
                             2128.42  2130.40  2151.04  2175.77  2177.76
                             2187.09  2188.47  2198.69  2205.13  2213.49
                             2216.47  2354.18  2381.66  2428.55  2562.05
                             4357.75  4371.79  4444.49  4475.38  4491.21
                             4543.59  4546.02  4546.75  4550.31  4600.31
                             4645.89  4651.58  4657.68  4664.04  4684.50
                             5001.44

 Zero-point correction=                           0.277922 (Hartree/Particle)
 Thermal correction to Energy=                    0.295740
 Thermal correction to Enthalpy=                  0.296684
 Thermal correction to Gibbs Free Energy=         0.230265
 Sum of electronic and zero-point Energies=           -839.898693
 Sum of electronic and thermal Energies=              -839.880875
 Sum of electronic and thermal Enthalpies=            -839.879931
 Sum of electronic and thermal Free Energies=         -839.946350

                     E (Thermal)             CV                S
                      KCal/Mol        Cal/Mol-Kelvin    Cal/Mol-Kelvin
 Total                  185.580             65.652            139.791
 Electronic               0.000              0.000              0.000
 Translational            0.889              2.981             42.427
 Rotational               0.889              2.981             33.859
 Vibrational            183.802             59.690             63.506
 Vibration     1          0.593              1.986              6.659
 Vibration     2          0.594              1.981              5.191
 Vibration     3          0.595              1.978              4.813
 Vibration     4          0.596              1.976              4.646
 Vibration     5          0.600              1.962              3.874
 Vibration     6          0.602              1.955              3.612
 Vibration     7          0.607              1.938              3.201
 Vibration     8          0.615              1.914              2.814
 Vibration     9          0.620              1.898              2.620
 Vibration    10          0.625              1.880              2.442
 Vibration    11          0.644              1.819              2.005
 Vibration    12          0.653              1.792              1.862
 Vibration    13          0.661              1.768              1.755
 Vibration    14          0.661              1.767              1.747
 Vibration    15          0.682              1.705              1.515
 Vibration    16          0.684              1.700              1.499
 Vibration    17          0.685              1.697              1.487
 Vibration    18          0.697              1.660              1.376
 Vibration    19          0.729              1.570              1.156
 Vibration    20          0.749              1.515              1.044
 Vibration    21          0.778              1.439              0.912
 Vibration    22          0.863              1.232              0.638
 Vibration    23          0.904              1.142              0.546
 Vibration    24          0.917              1.116              0.522
 Vibration    25          0.929              1.089              0.498
 Vibration    26          0.969              1.010              0.432
 Vibration    27          0.970              1.008              0.431

 Optimization completed.
    -- Stationary point found.
 Normal termination of Gaussian 16 at Fri Dec 11 20:33:08 2020.

 ----------------------------------------------------------------------
 # B3LYP/6-311++G(d,p) empiricaldispersion=gd3bj scf=xqc pop=npa geom=c
 heck
 ----------------------------------------------------------------------

 -------------------------------------
 CID_6907928_JID_8455_Energie_neutraal
 -------------------------------------
 Structure from the checkpoint file:  "JID_8455.chk"
 Charge =  0 Multiplicity = 1

 SCF Done:  E(RB3LYP) =  -840.411612562     A.U. after   17 cycles
 Normal termination of Gaussian 16 at Fri Dec 11 20:39:56 2020.

 ----------------------------------------------------------------------
 # B3LYP/6-311++G(d,p) empiricaldispersion=gd3bj scf=xqc pop=npa geom=c
 heck
 ----------------------------------------------------------------------

 -----------------------------------
 CID_6907928_JID_8455_Energie_kation
 -----------------------------------
 Structure from the checkpoint file:  "JID_8455.chk"
 Charge =  1 Multiplicity = 2

 SCF Done:  E(UB3LYP) =  -840.126801338     A.U. after   28 cycles
 Normal termination of Gaussian 16 at Fri Dec 11 20:56:22 2020.
 Gaussian 16:  ES64L-G16RevA.03 25-Dec-2016

 ----------------------------------------------------------------------
 # B3LYP/6-311++G(d,p) empiricaldispersion=gd3bj scf=xqc pop=npa geom=c
 heck
 ----------------------------------------------------------------------

 ----------------------------------
 CID_6907928_JID_8455_Energie_anion
 ----------------------------------
 Structure from the checkpoint file:  "JID_8455.chk"
 Charge = -1 Multiplicity = 2

                         Standard orientation:
 ---------------------------------------------------------------------
 Center     Atomic      Atomic             Coordinates (Angstroms)
 Number     Number       Type             X           Y           Z
 ---------------------------------------------------------------------
      1          6           0       -5.677873    0.534993   -0.119814
      2          8           0       -4.489586   -0.237985   -0.163996
      3          6           0       -3.298169    0.422556   -0.078395
      4          6           0       -3.162991    1.802401    0.073119
      5          6           0       -1.885227    2.374832    0.132046
      6          6           0       -0.750219    1.588155    0.041232
      7          6           0       -0.868290    0.191861   -0.100501
      8          6           0       -2.144881   -0.386995   -0.159668
      9          8           0       -2.260019   -1.743397   -0.349663
     10          6           0       -2.746669   -2.473563    0.780969
     11          6           0        0.303949   -0.674341   -0.198022
     12          7           0        1.495889   -0.201226   -0.100835
     13          7           0        2.519884   -1.081745   -0.210067
     14          6           0        3.855882   -0.732330   -0.122466
     15          8           0        4.706974   -1.607118   -0.236015
     16          6           0        4.169342    0.702018    0.107334
     17          6           0        5.409177    0.991939    0.937715
     18          6           0        5.445321    1.219916   -0.536297
     19          1           0       -5.716902    1.255345   -0.946875
     20          1           0       -5.773217    1.073310    0.832288
     21          1           0       -6.499757   -0.175688   -0.218739
     22          1           0       -4.038312    2.437414    0.137732
     23          1           0       -1.792905    3.451010    0.244554
     24          1           0        0.241080    2.024756    0.079846
     25          1           0       -2.084038   -2.334069    1.645109
     26          1           0       -3.762888   -2.165120    1.041427
     27          1           0       -2.744545   -3.524731    0.485153
     28          1           0        0.119315   -1.739782   -0.362116
     29          1           0        2.337453   -2.072754   -0.371751
     30          1           0        3.326005    1.374572    0.190738
     31          1           0        5.364229    1.848250    1.603824
     32          1           0        5.936396    0.124697    1.321885
     33          1           0        5.996638    0.505255   -1.138734
     34          1           0        5.425972    2.237669   -0.914152
 ---------------------------------------------------------------------

 SCF Done:  E(UB3LYP) =  -840.419705897     A.U. after   27 cycles

 The electronic state is 2-A.
 Alpha  occ. eigenvalues --  -19.03982 -19.01136 -18.95311 -14.23105 -14.16688
 Alpha  occ. eigenvalues --  -10.13505 -10.12809 -10.10212 -10.09518 -10.07553
 Alpha  occ. eigenvalues --  -10.07272 -10.07242 -10.06916 -10.03619 -10.03266
 Alpha  occ. eigenvalues --  -10.02704 -10.02562 -10.01859  -0.95865  -0.92287
 Alpha  occ. eigenvalues --   -0.91428  -0.85484  -0.75443  -0.71705  -0.68621
 Alpha  occ. eigenvalues --   -0.63551  -0.61999  -0.58796  -0.55824  -0.54316
 Alpha  occ. eigenvalues --   -0.50862  -0.50068  -0.46607  -0.45184  -0.43595
 Alpha  occ. eigenvalues --   -0.41289  -0.40888  -0.38609  -0.37448  -0.36925
 Alpha  occ. eigenvalues --   -0.35894  -0.34857  -0.34014  -0.32749  -0.32603
 Alpha  occ. eigenvalues --   -0.31876  -0.30800  -0.29819  -0.28914  -0.26884
 Alpha  occ. eigenvalues --   -0.26852  -0.26072  -0.24838  -0.23843  -0.23478
 Alpha  occ. eigenvalues --   -0.22960  -0.20825  -0.20489  -0.19811  -0.18078
 Alpha  occ. eigenvalues --   -0.15790  -0.13862  -0.13640  -0.13088  -0.09371
 Alpha  occ. eigenvalues --   -0.07753   0.04710
 Alpha virt. eigenvalues --    0.06785   0.08138   0.08448   0.09319   0.09992
 Alpha virt. eigenvalues --    0.10282   0.10568   0.11112   0.11400   0.12009
 Alpha virt. eigenvalues --    0.12506   0.13078   0.13305   0.13374   0.13829

  Beta  occ. eigenvalues --  -19.03974 -19.01134 -18.95148 -14.23175 -14.16015
  Beta  occ. eigenvalues --  -10.13376 -10.12808 -10.10200 -10.09530 -10.07376
  Beta  occ. eigenvalues --  -10.07263 -10.07232 -10.06929 -10.03682 -10.03079
  Beta  occ. eigenvalues --  -10.02448 -10.02427 -10.01729  -0.95836  -0.92229
  Beta  occ. eigenvalues --   -0.91124  -0.84909  -0.75414  -0.71384  -0.68141
  Beta  occ. eigenvalues --   -0.63434  -0.61669  -0.58533  -0.55683  -0.54196
  Beta  occ. eigenvalues --   -0.50206  -0.50042  -0.46508  -0.44964  -0.43514
  Beta  occ. eigenvalues --   -0.41164  -0.40842  -0.38444  -0.37305  -0.36862
  Beta  occ. eigenvalues --   -0.35823  -0.34645  -0.33868  -0.32666  -0.32509
  Beta  occ. eigenvalues --   -0.31729  -0.29997  -0.29667  -0.28710  -0.26740
  Beta  occ. eigenvalues --   -0.26673  -0.25725  -0.24715  -0.23731  -0.22811
  Beta  occ. eigenvalues --   -0.22060  -0.20668  -0.20456  -0.19304  -0.17662
  Beta  occ. eigenvalues --   -0.15638  -0.13508  -0.12688  -0.12381  -0.08608
  Beta  occ. eigenvalues --   -0.06066
  Beta virt. eigenvalues --    0.06756   0.08120   0.08410   0.09290   0.09982
  Beta virt. eigenvalues --    0.10236   0.10352   0.10857   0.11096   0.11379
  Beta virt. eigenvalues --    0.11996   0.12514   0.13234   0.13366   0.13622

 Mulliken charges and spin densities:
               1          2
     1  C   -0.311332  -0.000949
     2  O   -0.190138   0.004649
     3  C   -0.484943  -0.054751
     4  C    0.279875   0.217571
     5  C   -0.658549  -0.041319
     6  C   -0.139222   0.154160
     7  C    1.590548   0.106997
     8  C   -1.591805   0.090361
     9  O   -0.165822   0.007198
    10  C   -0.286939   0.003574
    11  C   -0.170826   0.138815
    12  N    0.075699   0.314334
    13  N   -0.149805  -0.051915
    14  C   -0.416456   0.076946
    15  O   -0.390848   0.055018
    16  C    0.653980  -0.001653
    17  C   -0.506366   0.005255
    18  C   -0.514312   0.004953
    19  H    0.132401   0.001114
    20  H    0.140261   0.000980
    21  H    0.144680   0.000179
    22  H    0.106214  -0.016902
    23  H    0.140324   0.003351
    24  H    0.058116  -0.011482
    25  H    0.120816  -0.001476
    26  H    0.145261  -0.003048
    27  H    0.107160   0.011941
    28  H    0.121548  -0.007232
    29  H    0.228453  -0.002764
    30  H    0.392743  -0.002419
    31  H    0.111794  -0.000151
    32  H    0.157038  -0.000531
    33  H    0.158292  -0.000760
    34  H    0.112160  -0.000044
 Sum of Mulliken charges =  -1.00000   1.00000

 Dipole moment (field-independent basis, Debye):
    X=             -4.6277    Y=              1.5087    Z=              1.5046  Tot=              5.0946
 Quadrupole moment (field-independent basis, Debye-Ang):
   XX=           -163.5266   YY=           -119.5157   ZZ=           -116.7784
   XY=             13.4278   XZ=             -0.9491   YZ=             -2.7649

 Summary of Natural Population Analysis:

                                       Natural Population
                Natural  -----------------------------------------------
    Atom  No    Charge         Core      Valence    Rydberg      Total
 -----------------------------------------------------------------------
      C    1   -0.09932      0.99962     2.09136    0.00835     3.09932
      O    2   -0.27824      0.99985     3.26859    0.00979     4.27824
      C    3    0.13068      0.99935     1.85864    0.01133     2.86932
      C    4   -0.11109      0.99954     2.10271    0.00884     3.11109
      C    5   -0.12088      0.99959     2.11186    0.00943     3.12088
      C    6   -0.07514      0.99954     2.06658    0.00901     3.07514
      C    7   -0.02796      0.99948     2.01926    0.00923     3.02796
      C    8    0.16738      0.99931     1.81987    0.01343     2.83262
      O    9   -0.29089      0.99986     3.27961    0.01141     4.29089
      C   10   -0.09526      0.99960     2.08783    0.00783     3.09526
      C   11    0.04133      0.99961     1.94465    0.01441     2.95867
      N   12   -0.05078      0.99962     2.53777    0.01340     3.55078
      N   13   -0.21668      0.99967     2.70617    0.01083     3.71668
      C   14    0.34760      0.99966     1.62958    0.02316     2.65240
      O   15   -0.33084      0.99988     3.32472    0.00623     4.33084
      C   16   -0.15658      0.99956     2.14821    0.00881     3.15658
      C   17   -0.19155      0.99964     2.18513    0.00678     3.19155
      C   18   -0.19147      0.99964     2.18505    0.00679     3.19147
      H   19    0.08139      0.00000     0.41690    0.00171     0.41861
      H   20    0.07977      0.00000     0.41852    0.00171     0.42023
      H   21    0.08557      0.00000     0.41357    0.00085     0.41443
      H   22    0.09042      0.00000     0.40845    0.00114     0.40958
      H   23    0.08980      0.00000     0.40911    0.00109     0.41020
      H   24    0.10101      0.00000     0.39703    0.00196     0.39899
      H   25    0.07975      0.00000     0.41887    0.00138     0.42025
      H   26    0.08476      0.00000     0.41363    0.00161     0.41524
      H   27    0.08119      0.00000     0.41788    0.00093     0.41881
      H   28    0.07172      0.00000     0.42607    0.00221     0.42828
      H   29    0.17272      0.00000     0.32362    0.00366     0.32728
      H   30    0.12355      0.00000     0.37517    0.00129     0.37645
      H   31    0.09610      0.00000     0.40292    0.00098     0.40390
      H   32    0.10785      0.00000     0.39081    0.00133     0.39215
      H   33    0.10792      0.00000     0.39075    0.00133     0.39208
      H   34    0.09616      0.00000     0.40286    0.00098     0.40384
 =======================================================================
   * Total *    0.00000     17.99303    47.79374    0.21323    66.00000

 Normal termination of Gaussian 16 at Fri Dec 11 21:11:54 2020.
