 Gaussian 16, Revision A.03,

 -----------------------------------------------------------
 # opt freq B3LYP/6-31G(d) empiricaldispersion=gd3bj scf=xqc
 -----------------------------------------------------------

 ------------------------------
 CID_12302847_JID_4101_neutraal
 ------------------------------
 Symbolic Z-matrix:
 Charge =  0 Multiplicity = 1

 SCF Done:  E(RB3LYP) =  -578.858244823     A.U. after   16 cycles
 SCF Done:  E(RB3LYP) =  -578.905722420     A.U. after   13 cycles
 SCF Done:  E(RB3LYP) =  -578.912657377     A.U. after   14 cycles
 SCF Done:  E(RB3LYP) =  -578.902883904     A.U. after   16 cycles
 SCF Done:  E(RB3LYP) =  -578.912803489     A.U. after   14 cycles
 SCF Done:  E(RB3LYP) =  -578.910040313     A.U. after   15 cycles
 SCF Done:  E(RB3LYP) =  -578.913211527     A.U. after   13 cycles
 SCF Done:  E(RB3LYP) =  -578.913416592     A.U. after   12 cycles
 SCF Done:  E(RB3LYP) =  -578.913052933     A.U. after   13 cycles
 SCF Done:  E(RB3LYP) =  -578.913455210     A.U. after   13 cycles
 SCF Done:  E(RB3LYP) =  -578.913458337     A.U. after    9 cycles
 SCF Done:  E(RB3LYP) =  -578.913458946     A.U. after    9 cycles
 SCF Done:  E(RB3LYP) =  -578.913458901     A.U. after    9 cycles
 SCF Done:  E(RB3LYP) =  -578.913459188     A.U. after    8 cycles
 SCF Done:  E(RB3LYP) =  -578.913459303     A.U. after    8 cycles
 SCF Done:  E(RB3LYP) =  -578.913459332     A.U. after    8 cycles
 Optimization completed.
    -- Stationary point found.
 Normal termination of Gaussian 16 at Sun Dec 13 20:00:59 2020.

 --------------------------------------------------------------------
 #N Geom=AllCheck Guess=TCheck SCRF=Check GenChk RB3LYP/6-31G(d) Freq
 --------------------------------------------------------------------

 Structure from the checkpoint file:  "JID_4101.chk"
 ------------------------------
 CID_12302847_JID_4101_neutraal
 ------------------------------
 Charge =  0 Multiplicity = 1

 SCF Done:  E(RB3LYP) =  -578.913459332     A.U. after    1 cycles

  Exact polarizability: 516.556 -14.503 105.831  16.670  14.332  73.378
 Approx polarizability: 772.852 -13.753 167.061  40.802  30.489 108.623

 ******    1 imaginary frequencies (negative Signs) ******

                      1                      2                      3
                      A                      A                      A
 Frequencies --     -5.0831                24.5609                33.4811
 Red. masses --      1.0215                 5.1189                 4.3583
 Frc consts  --      0.0000                 0.0018                 0.0029
 IR Inten    --      0.0017                 0.3829                 1.8381

                      4                      5                      6
                      A                      A                      A
 Frequencies --     33.9872                72.9773                86.6506
 Red. masses --      3.3756                 4.1648                 3.7332
 Frc consts  --      0.0023                 0.0131                 0.0165
 IR Inten    --      0.6698                 4.1509                 0.7915

                      7                      8                      9
                      A                      A                      A
 Frequencies --    115.7988               134.7759               152.7405
 Red. masses --      3.4258                 2.3132                 4.1746
 Frc consts  --      0.0271                 0.0248                 0.0574
 IR Inten    --      0.1417                 0.6880                 3.3118

                     10                     11                     12
                      A                      A                      A
 Frequencies --    164.9220               229.6720               253.0984
 Red. masses --      3.4622                 3.4393                 3.2392
 Frc consts  --      0.0555                 0.1069                 0.1223
 IR Inten    --      6.1099                 0.3010                 1.5880

                     13                     14                     15
                      A                      A                      A
 Frequencies --    258.4482               290.0952               328.3158
 Red. masses --      4.1483                 2.8472                 3.8626
 Frc consts  --      0.1633                 0.1412                 0.2453
 IR Inten    --      2.3518                 0.0776                 6.1396

                     16                     17                     18
                      A                      A                      A
 Frequencies --    341.8114               349.2061               381.7923
 Red. masses --      3.9221                 1.1488                 2.7130
 Frc consts  --      0.2700                 0.0825                 0.2330
 IR Inten    --      2.5168               163.9148                22.9627

                     19                     20                     21
                      A                      A                      A
 Frequencies --    441.5250               476.7481               485.0062
 Red. masses --      3.8472                 4.7797                 4.2280
 Frc consts  --      0.4419                 0.6401                 0.5860
 IR Inten    --      2.9450                 3.5421                 5.7514

                     22                     23                     24
                      A                      A                      A
 Frequencies --    544.7437               568.6111               656.6541
 Red. masses --      2.6783                 3.3155                 7.3488
 Frc consts  --      0.4683                 0.6316                 1.8670
 IR Inten    --      6.2756                 0.5582                 0.3406

                     25                     26                     27
                      A                      A                      A
 Frequencies --    696.8140               713.6535               823.3934
 Red. masses --      5.8381                 8.5881                 1.5479
 Frc consts  --      1.6702                 2.5770                 0.6183
 IR Inten    --      1.6971                 0.1541                 4.4476

                     28                     29                     30
                      A                      A                      A
 Frequencies --    845.2241               867.4752               894.6687
 Red. masses --      1.5913                 1.9631                 2.5939
 Frc consts  --      0.6698                 0.8704                 1.2233
 IR Inten    --     10.9465                 7.5139                 8.8246

                     31                     32                     33
                      A                      A                      A
 Frequencies --    912.9313               952.6596              1000.9414
 Red. masses --      2.1411                 1.1525                 1.0941
 Frc consts  --      1.0514                 0.6162                 0.6458
 IR Inten    --      0.3393                 3.0594                 2.1789

                     34                     35                     36
                      A                      A                      A
 Frequencies --   1016.0902              1043.6714              1050.0030
 Red. masses --      4.5543                 1.3946                 1.1962
 Frc consts  --      2.7703                 0.8950                 0.7770
 IR Inten    --      0.2474                40.9093                45.9377

                     37                     38                     39
                      A                      A                      A
 Frequencies --   1060.1723              1061.5962              1080.4902
 Red. masses --      1.3849                 1.3874                 4.1065
 Frc consts  --      0.9171                 0.9212                 2.8247
 IR Inten    --      3.4631                 4.2686               144.8862

                     40                     41                     42
                      A                      A                      A
 Frequencies --   1111.0674              1185.0950              1193.6988
 Red. masses --      2.7824                 2.2686                 1.8761
 Frc consts  --      2.0237                 1.8772                 1.5750
 IR Inten    --      5.8629                 0.9183                 7.4311

                     43                     44                     45
                      A                      A                      A
 Frequencies --   1203.7339              1229.8065              1265.7585
 Red. masses --      1.4103                 1.2891                 1.2197
 Frc consts  --      1.2040                 1.1487                 1.1514
 IR Inten    --     14.1347                 4.7044                 3.8180

                     46                     47                     48
                      A                      A                      A
 Frequencies --   1306.7258              1329.3414              1333.3290
 Red. masses --      1.5025                 1.6778                 1.5874
 Frc consts  --      1.5116                 1.7469                 1.6627
 IR Inten    --      7.2590                 6.3565                 2.8055

                     49                     50                     51
                      A                      A                      A
 Frequencies --   1338.2100              1348.4979              1367.0226
 Red. masses --      1.6762                 1.3745                 1.4432
 Frc consts  --      1.7685                 1.4726                 1.5890
 IR Inten    --      1.1878                 0.0906                10.0292

                     52                     53                     54
                      A                      A                      A
 Frequencies --   1401.9730              1413.2113              1430.1621
 Red. masses --      1.5026                 1.3471                 1.2496
 Frc consts  --      1.7401                 1.5851                 1.5059
 IR Inten    --      9.0826                26.9968                92.4383

                     55                     56                     57
                      A                      A                      A
 Frequencies --   1440.6260              1500.4084              1501.2011
 Red. masses --      1.3096                 1.1144                 1.0402
 Frc consts  --      1.6013                 1.4782                 1.3811
 IR Inten    --     45.8053                25.4029                 6.5439

                     58                     59                     60
                      A                      A                      A
 Frequencies --   1501.5788              1533.3157              1642.7467
 Red. masses --      1.0400                 1.0896                 5.3068
 Frc consts  --      1.3816                 1.5093                 8.4378
 IR Inten    --      6.4300                 0.8541                 2.5048

                     61                     62                     63
                      A                      A                      A
 Frequencies --   1675.6985              1714.9370              2250.8646
 Red. masses --      4.6293                 5.3346                11.9075
 Frc consts  --      7.6588                 9.2438                35.5443
 IR Inten    --     11.0934                 7.2587                 0.2711

                     64                     65                     66
                      A                      A                      A
 Frequencies --   2344.7051              3010.1713              3034.0116
 Red. masses --     11.8748                 1.0699                 1.0343
 Frc consts  --     38.4639                 5.7117                 5.6097
 IR Inten    --     14.7499                58.6678                69.1518

                     67                     68                     69
                      A                      A                      A
 Frequencies --   3035.4657              3082.3513              3094.8692
 Red. masses --      1.0591                 1.1022                 1.1014
 Frc consts  --      5.7494                 6.1700                 6.2154
 IR Inten    --     37.6204                24.7873                10.1162

                     70                     71                     72
                      A                      A                      A
 Frequencies --   3097.4821              3105.0908              3140.1279
 Red. masses --      1.1014                 1.0969                 1.0904
 Frc consts  --      6.2263                 6.2312                 6.3348
 IR Inten    --      9.5847                85.4066                 5.4755

                     73                     74                     75
                      A                      A                      A
 Frequencies --   3142.8049              3143.9293              3149.4782
 Red. masses --      1.0874                 1.0868                 1.0901
 Frc consts  --      6.3280                 6.3292                 6.3706
 IR Inten    --      8.9945                22.2671                 1.7160

                     76                     77                     78
                      A                      A                      A
 Frequencies --   3156.0506              3177.0795              3747.3568
 Red. masses --      1.0862                 1.0886                 1.0660
 Frc consts  --      6.3743                 6.4737                 8.8199
 IR Inten    --     54.9123                23.6450                11.3754

 - Thermochemistry -
 -------------------
 Temperature   298.150 Kelvin.  Pressure   1.00000 Atm.
 Atom     1 has atomic number  6 and mass  12.00000

 Molecular mass:   186.10447 amu.
 Principal axes and moments of inertia in atomic units:
                           1         2         3
     Eigenvalues --   562.27347********************
           X            0.99998  -0.00571  -0.00144
           Y            0.00575   0.99943   0.03312
           Z            0.00125  -0.03313   0.99945
 This molecule is an asymmetric top.
 Rotational symmetry number  1.
 Warning -- assumption of classical behavior for rotation
           may cause significant error
 Rotational temperatures (Kelvin)      0.15404     0.00545     0.00533
 Rotational constants (GHZ):           3.20972     0.11363     0.11104
    1 imaginary frequencies ignored.
 Zero-point vibrational energy     604864.2 (Joules/Mol)
                                  144.56600 (Kcal/Mol)
 Warning -- explicit consideration of  22 degrees of freedom as
           vibrations may cause significant error
 Vibrational temperatures:     35.34    48.17    48.90   105.00   124.67
          (Kelvin)            166.61   193.91   219.76   237.29   330.45
                              364.15   371.85   417.38   472.37   491.79
                              502.43   549.31   635.26   685.93   697.82
                              783.76   818.10   944.78  1002.56  1026.79
                             1184.68  1216.09  1248.10  1287.23  1313.50
                             1370.66  1440.13  1461.93  1501.61  1510.72
                             1525.35  1527.40  1554.58  1598.58  1705.09
                             1717.47  1731.90  1769.42  1821.14  1880.09
                             1912.63  1918.36  1925.39  1940.19  1966.84
                             2017.13  2033.30  2057.68  2072.74  2158.75
                             2159.89  2160.44  2206.10  2363.55  2410.96
                             2467.41  3238.49  3373.51  4330.97  4365.27
                             4367.36  4434.82  4452.83  4456.59  4467.53
                             4517.94  4521.80  4523.41  4531.40  4540.85
                             4571.11  5391.61

 Zero-point correction=                           0.230381 (Hartree/Particle)
 Thermal correction to Energy=                    0.245627
 Thermal correction to Enthalpy=                  0.246571
 Thermal correction to Gibbs Free Energy=         0.185295
 Sum of electronic and zero-point Energies=           -578.683079
 Sum of electronic and thermal Energies=              -578.667833
 Sum of electronic and thermal Enthalpies=            -578.666889
 Sum of electronic and thermal Free Energies=         -578.728164

                     E (Thermal)             CV                S
                      KCal/Mol        Cal/Mol-Kelvin    Cal/Mol-Kelvin
 Total                  154.133             53.865            128.966
 Electronic               0.000              0.000              0.000
 Translational            0.889              2.981             41.569
 Rotational               0.889              2.981             33.339
 Vibrational            152.356             47.904             54.057
 Vibration     1          0.593              1.985              6.226
 Vibration     2          0.594              1.983              5.612
 Vibration     3          0.594              1.983              5.582
 Vibration     4          0.599              1.967              4.071
 Vibration     5          0.601              1.959              3.734
 Vibration     6          0.608              1.936              3.169
 Vibration     7          0.613              1.919              2.877
 Vibration     8          0.619              1.900              2.638
 Vibration     9          0.623              1.886              2.493
 Vibration    10          0.652              1.796              1.882
 Vibration    11          0.664              1.758              1.709
 Vibration    12          0.667              1.748              1.672
 Vibration    13          0.686              1.692              1.473
 Vibration    14          0.712              1.619              1.268
 Vibration    15          0.721              1.592              1.204
 Vibration    16          0.726              1.577              1.170
 Vibration    17          0.751              1.509              1.032
 Vibration    18          0.801              1.380              0.822
 Vibration    19          0.833              1.302              0.719
 Vibration    20          0.841              1.283              0.697
 Vibration    21          0.900              1.151              0.555
 Vibration    22          0.925              1.099              0.507

                           ! Non-Optimized Parameters !
 Normal termination of Gaussian 16 at Sun Dec 13 20:05:13 2020.

 ----------------------------------------------------------------------
 # B3LYP/6-311++G(d,p) empiricaldispersion=gd3bj scf=xqc pop=npa geom=c
 heck
 ----------------------------------------------------------------------

 --------------------------------------
 CID_12302847_JID_4101_Energie_neutraal
 --------------------------------------
 Structure from the checkpoint file:  "JID_4101.chk"
 Charge =  0 Multiplicity = 1

 SCF Done:  E(RB3LYP) =  -579.085427436     A.U. after   16 cycles
 Normal termination of Gaussian 16 at Sun Dec 13 20:07:39 2020.

 ----------------------------------------------------------------------
 # B3LYP/6-311++G(d,p) empiricaldispersion=gd3bj scf=xqc pop=npa geom=c
 heck
 ----------------------------------------------------------------------

 ------------------------------------
 CID_12302847_JID_4101_Energie_kation
 ------------------------------------
 Structure from the checkpoint file:  "JID_4101.chk"
 Charge =  1 Multiplicity = 2

 SCF Done:  E(UB3LYP) =  -578.823909469     A.U. after   22 cycles
 Normal termination of Gaussian 16 at Sun Dec 13 20:12:28 2020.
 Gaussian 16:  ES64L-G16RevA.03 25-Dec-2016

 ----------------------------------------------------------------------
 # B3LYP/6-311++G(d,p) empiricaldispersion=gd3bj scf=xqc pop=npa geom=c
 heck
 ----------------------------------------------------------------------

 -----------------------------------
 CID_12302847_JID_4101_Energie_anion
 -----------------------------------
 Structure from the checkpoint file:  "JID_4101.chk"
 Charge = -1 Multiplicity = 2

                         Standard orientation:
 ---------------------------------------------------------------------
 Center     Atomic      Atomic             Coordinates (Angstroms)
 Number     Number       Type             X           Y           Z
 ---------------------------------------------------------------------
      1          6           0       -8.219072    1.016441    0.132778
      2          6           0       -6.841824    0.558297    0.028950
      3          6           0       -5.689614    0.175344   -0.057435
      4          6           0       -4.401596   -0.253131   -0.154260
      5          6           0       -3.240577   -0.628339   -0.236495
      6          6           0       -1.918756   -1.093567   -0.347664
      7          6           0       -0.823236   -0.393829    0.053310
      8          6           0        0.522231   -0.880571   -0.066145
      9          6           0        1.617854   -0.185841    0.330792
     10          6           0        2.973279   -0.666962    0.212638
     11          6           0        4.061890    0.023608    0.604021
     12          6           0        5.477731   -0.447306    0.464619
     13          6           0        6.265015    0.349037   -0.593791
     14          8           0        6.324018    1.739829   -0.307398
     15          1           0       -8.513641    1.153500    1.180759
     16          1           0       -8.911782    0.294486   -0.316907
     17          1           0       -8.357625    1.976312   -0.380259
     18          1           0       -1.778906   -2.082411   -0.786332
     19          1           0       -0.964109    0.592880    0.491181
     20          1           0        0.654844   -1.870008   -0.504794
     21          1           0        1.481479    0.803044    0.769909
     22          1           0        3.104743   -1.659421   -0.221175
     23          1           0        3.920594    1.010483    1.047344
     24          1           0        6.001273   -0.338985    1.424151
     25          1           0        5.499605   -1.510278    0.191482
     26          1           0        7.303702    0.004374   -0.614926
     27          1           0        5.829149    0.165120   -1.587858
     28          1           0        5.438589    2.103185   -0.461297
 ---------------------------------------------------------------------

 SCF Done:  E(UB3LYP) =  -579.117578929     A.U. after   24 cycles

 The electronic state is 2-A.
 Alpha  occ. eigenvalues --  -19.03180 -10.12104 -10.09861 -10.06723 -10.05763
 Alpha  occ. eigenvalues --  -10.04875 -10.04436 -10.04310 -10.03492 -10.03430
 Alpha  occ. eigenvalues --  -10.03281 -10.03169 -10.03041 -10.02648  -0.93230
 Alpha  occ. eigenvalues --   -0.69505  -0.68321  -0.67562  -0.65122  -0.62984
 Alpha  occ. eigenvalues --   -0.60013  -0.57307  -0.53326  -0.49095  -0.45320
 Alpha  occ. eigenvalues --   -0.43208  -0.42325  -0.41744  -0.36760  -0.35903
 Alpha  occ. eigenvalues --   -0.35760  -0.34132  -0.33832  -0.33797  -0.31934
 Alpha  occ. eigenvalues --   -0.29996  -0.29421  -0.26525  -0.25517  -0.23793
 Alpha  occ. eigenvalues --   -0.23042  -0.22885  -0.21670  -0.20847  -0.20604
 Alpha  occ. eigenvalues --   -0.18935  -0.17108  -0.12702  -0.11150  -0.07262
 Alpha  occ. eigenvalues --    0.01889
 Alpha virt. eigenvalues --    0.06488   0.07185   0.08342   0.09330   0.09625
 Alpha virt. eigenvalues --    0.09972   0.10240   0.10886   0.11211   0.11740
 Alpha virt. eigenvalues --    0.11833   0.12420   0.12680   0.13458   0.13637

  Beta  occ. eigenvalues --  -19.03171 -10.12062 -10.09881 -10.06751 -10.05833
  Beta  occ. eigenvalues --  -10.04664 -10.04491 -10.04344 -10.03200 -10.03131
  Beta  occ. eigenvalues --  -10.03064 -10.03008 -10.02963 -10.02346  -0.93202
  Beta  occ. eigenvalues --   -0.69071  -0.68022  -0.67158  -0.64799  -0.62688
  Beta  occ. eigenvalues --   -0.59779  -0.57048  -0.53069  -0.48574  -0.44941
  Beta  occ. eigenvalues --   -0.42947  -0.42016  -0.41649  -0.36568  -0.35780
  Beta  occ. eigenvalues --   -0.35604  -0.33979  -0.33780  -0.33587  -0.31752
  Beta  occ. eigenvalues --   -0.29864  -0.29221  -0.26355  -0.25366  -0.23708
  Beta  occ. eigenvalues --   -0.22920  -0.21862  -0.21484  -0.20509  -0.19791
  Beta  occ. eigenvalues --   -0.18637  -0.15991  -0.11524  -0.11062  -0.05443
  Beta virt. eigenvalues --    0.06476   0.06581   0.07683   0.08386   0.09292
  Beta virt. eigenvalues --    0.09610   0.09977   0.10384   0.10874   0.11281
  Beta virt. eigenvalues --    0.11885   0.12037   0.12531   0.13188   0.13436

 Mulliken charges and spin densities:
               1          2
     1  C   -0.384216  -0.002698
     2  C   -0.373750   0.160142
     3  C    0.304278  -0.084187
     4  C    0.076261   0.184186
     5  C   -0.079117   0.002222
     6  C   -0.499825   0.149414
     7  C   -0.372074   0.160381
     8  C   -0.005492  -0.000357
     9  C   -0.134729   0.192581
    10  C   -0.500419  -0.054505
    11  C    0.309368   0.259698
    12  C   -0.244163   0.052773
    13  C   -0.291673  -0.086684
    14  O   -0.292628  -0.004162
    15  H    0.135850   0.010832
    16  H    0.137516   0.000888
    17  H    0.136428   0.009485
    18  H    0.100133  -0.012278
    19  H    0.069873  -0.010167
    20  H    0.038609  -0.003940
    21  H    0.030034  -0.013818
    22  H    0.047346   0.002191
    23  H    0.126967  -0.015619
    24  H    0.104819   0.025516
    25  H    0.125859   0.008933
    26  H    0.098118   0.037883
    27  H    0.118997   0.010437
    28  H    0.217631   0.020854
 Sum of Mulliken charges =  -1.00000   1.00000

 Dipole moment (field-independent basis, Debye):
    X=              1.8576    Y=              0.0908    Z=             -0.5433  Tot=              1.9375
 Quadrupole moment (field-independent basis, Debye-Ang):
   XX=           -188.4554   YY=            -91.3928   ZZ=            -94.5782
   XY=            -12.9387   XZ=             -4.4232   YZ=              2.9416

 Summary of Natural Population Analysis:

                                       Natural Population
                Natural  -----------------------------------------------
    Atom  No    Charge         Core      Valence    Rydberg      Total
 -----------------------------------------------------------------------
      C    1   -0.32267      0.99957     2.31636    0.00673     3.32267
      C    2    0.06789      0.99915     1.92393    0.00903     2.93211
      C    3   -0.07077      0.99917     2.06214    0.00946     3.07077
      C    4   -0.02957      0.99911     2.02309    0.00737     3.02957
      C    5    0.01604      0.99922     1.97504    0.00970     2.98396
      C    6   -0.11536      0.99952     2.10593    0.00991     3.11536
      C    7   -0.04497      0.99953     2.03641    0.00902     3.04497
      C    8   -0.10244      0.99953     2.09388    0.00903     3.10244
      C    9   -0.04080      0.99953     2.03187    0.00939     3.04080
      C   10   -0.12032      0.99952     2.11174    0.00906     3.12032
      C   11   -0.03273      0.99954     2.02278    0.01040     3.03273
      C   12   -0.21783      0.99962     2.21047    0.00774     3.21783
      C   13   -0.00024      0.99961     1.98797    0.01266     3.00024
      O   14   -0.37436      0.99990     3.36746    0.00701     4.37436
      H   15    0.10348      0.00000     0.39337    0.00314     0.39652
      H   16    0.10248      0.00000     0.39447    0.00304     0.39752
      H   17    0.10341      0.00000     0.39346    0.00313     0.39659
      H   18    0.09305      0.00000     0.40495    0.00200     0.40695
      H   19    0.08735      0.00000     0.41107    0.00159     0.41265
      H   20    0.08376      0.00000     0.41464    0.00160     0.41624
      H   21    0.08232      0.00000     0.41602    0.00166     0.41768
      H   22    0.08469      0.00000     0.41382    0.00149     0.41531
      H   23    0.08078      0.00000     0.41755    0.00167     0.41922
      H   24    0.09725      0.00000     0.40124    0.00151     0.40275
      H   25    0.09456      0.00000     0.40370    0.00174     0.40544
      H   26    0.07687      0.00000     0.42110    0.00203     0.42313
      H   27    0.07309      0.00000     0.42505    0.00185     0.42691
      H   28    0.22860      0.00000     0.26813    0.00328     0.27140
 =======================================================================
   * Total *    0.00356     13.99253    35.84765    0.15626    49.99644

 Normal termination of Gaussian 16 at Sun Dec 13 20:17:40 2020.
