 Gaussian 16, Revision A.03,

 -----------------------------------------------------------
 # opt freq B3LYP/6-31G(d) empiricaldispersion=gd3bj scf=xqc
 -----------------------------------------------------------

 ------------------------------
 CID_118589510_JID_598_neutraal
 ------------------------------
 Symbolic Z-matrix:
 Charge =  0 Multiplicity = 1

 SCF Done:  E(RB3LYP) =  -859.703100252     A.U. after   15 cycles
 SCF Done:  E(RB3LYP) =  -859.706571817     A.U. after   12 cycles
 SCF Done:  E(RB3LYP) =  -859.706943188     A.U. after   11 cycles
 SCF Done:  E(RB3LYP) =  -859.707017742     A.U. after   11 cycles
 SCF Done:  E(RB3LYP) =  -859.707057882     A.U. after   10 cycles
 SCF Done:  E(RB3LYP) =  -859.707112314     A.U. after   11 cycles
 SCF Done:  E(RB3LYP) =  -859.707121959     A.U. after   12 cycles
 SCF Done:  E(RB3LYP) =  -859.707188372     A.U. after   11 cycles
 SCF Done:  E(RB3LYP) =  -859.707649193     A.U. after   12 cycles
 SCF Done:  E(RB3LYP) =  -859.705343174     A.U. after   15 cycles
 SCF Done:  E(RB3LYP) =  -859.708839317     A.U. after    8 cycles
 SCF Done:  E(RB3LYP) =  -859.708841681     A.U. after   10 cycles
 SCF Done:  E(RB3LYP) =  -859.708843249     A.U. after    8 cycles
 SCF Done:  E(RB3LYP) =  -859.708845295     A.U. after   10 cycles
 SCF Done:  E(RB3LYP) =  -859.708845584     A.U. after    8 cycles
 SCF Done:  E(RB3LYP) =  -859.708845597     A.U. after    7 cycles
 Optimization completed.
    -- Stationary point found.
 Normal termination of Gaussian 16 at Tue Dec  8 12:24:54 2020.

 --------------------------------------------------------------------
 #N Geom=AllCheck Guess=TCheck SCRF=Check GenChk RB3LYP/6-31G(d) Freq
 --------------------------------------------------------------------

 Structure from the checkpoint file:  "JID_598.chk"
 ------------------------------
 CID_118589510_JID_598_neutraal
 ------------------------------
 Charge =  0 Multiplicity = 1

 SCF Done:  E(RB3LYP) =  -859.708845597     A.U. after    1 cycles

  Exact polarizability:  91.869  -0.751  85.145   0.559   1.798  75.290
 Approx polarizability: 120.175  -0.180 127.728   2.517   3.792 119.680

                      1                      2                      3
                      A                      A                      A
 Frequencies --     34.0900                62.7672               154.3870
 Red. masses --      2.5203                 4.8905                 4.2113
 Frc consts  --      0.0017                 0.0114                 0.0591
 IR Inten    --      0.1474                 2.3935                 4.6108

                      4                      5                      6
                      A                      A                      A
 Frequencies --    154.7519               189.8045               256.3197
 Red. masses --      3.9851                 1.5377                 2.1305
 Frc consts  --      0.0562                 0.0326                 0.0825
 IR Inten    --      4.3829                68.6057                 8.9357

                      7                      8                      9
                      A                      A                      A
 Frequencies --    263.7159               273.1277               314.7306
 Red. masses --      2.0386                 1.2803                 3.8399
 Frc consts  --      0.0835                 0.0563                 0.2241
 IR Inten    --      0.9920                 1.6336                25.6273

                     10                     11                     12
                      A                      A                      A
 Frequencies --    356.8523               395.9474               446.0549
 Red. masses --      3.3830                 2.4701                 5.5487
 Frc consts  --      0.2538                 0.2282                 0.6505
 IR Inten    --      6.3384                 0.6972                 3.7277

                     13                     14                     15
                      A                      A                      A
 Frequencies --    457.0740               532.2664               573.5558
 Red. masses --      5.4409                 2.7373                 5.7656
 Frc consts  --      0.6697                 0.4569                 1.1175
 IR Inten    --     20.4618                 2.8478                76.6632

                     16                     17                     18
                      A                      A                      A
 Frequencies --    596.9688               722.9752               790.0239
 Red. masses --      2.8051                 5.8264                 2.2542
 Frc consts  --      0.5890                 1.7943                 0.8289
 IR Inten    --     23.6145                78.0018                30.2302

                     19                     20                     21
                      A                      A                      A
 Frequencies --    855.1478               871.1343               898.5468
 Red. masses --      2.8724                 2.2639                 1.6135
 Frc consts  --      1.2376                 1.0122                 0.7676
 IR Inten    --     55.2808                20.2397                 0.5864

                     22                     23                     24
                      A                      A                      A
 Frequencies --    915.2119               952.2897              1011.2078
 Red. masses --      2.4361                 2.2633                 1.5004
 Frc consts  --      1.2022                 1.2093                 0.9040
 IR Inten    --     15.2229                 5.9679                 3.3693

                     25                     26                     27
                      A                      A                      A
 Frequencies --   1020.2860              1038.5958              1084.5755
 Red. masses --      1.9637                 1.3321                 1.7996
 Frc consts  --      1.2044                 0.8466                 1.2472
 IR Inten    --      1.5386                 1.0852                 2.3079

                     28                     29                     30
                      A                      A                      A
 Frequencies --   1115.1903              1118.9109              1163.8467
 Red. masses --      2.5257                 3.4130                 1.5860
 Frc consts  --      1.8507                 2.5175                 1.2658
 IR Inten    --     41.9952                23.8084                83.4019

                     31                     32                     33
                      A                      A                      A
 Frequencies --   1176.7437              1202.9800              1224.7995
 Red. masses --      1.9557                 1.4308                 1.6657
 Frc consts  --      1.5955                 1.2200                 1.4722
 IR Inten    --     32.6427                51.2808                 8.1729

                     34                     35                     36
                      A                      A                      A
 Frequencies --   1270.0294              1291.7458              1317.7736
 Red. masses --      1.3160                 1.3284                 1.3137
 Frc consts  --      1.2507                 1.3060                 1.3441
 IR Inten    --      3.7489                11.9094                 5.6563

                     37                     38                     39
                      A                      A                      A
 Frequencies --   1340.6634              1348.6793              1356.3647
 Red. masses --      1.2888                 1.3873                 5.5226
 Frc consts  --      1.3648                 1.4867                 5.9862
 IR Inten    --     13.9480                 0.7238               165.4612

                     40                     41                     42
                      A                      A                      A
 Frequencies --   1368.3393              1375.1356              1394.0431
 Red. masses --      1.2804                 1.4748                 1.4470
 Frc consts  --      1.4125                 1.6431                 1.6568
 IR Inten    --      4.7584                15.1890                 4.5497

                     43                     44                     45
                      A                      A                      A
 Frequencies --   1440.8736              1519.1694              1523.0595
 Red. masses --      1.2408                 1.0813                 1.0844
 Frc consts  --      1.5178                 1.4703                 1.4821
 IR Inten    --      3.3342                 2.4033                 5.8757

                     46                     47                     48
                      A                      A                      A
 Frequencies --   1527.6393              1537.1628              1540.4977
 Red. masses --      1.0549                 1.0484                 1.0999
 Frc consts  --      1.4505                 1.4595                 1.5379
 IR Inten    --      1.9166                 6.3777                 1.9584

                     49                     50                     51
                      A                      A                      A
 Frequencies --   3044.9096              3051.8326              3062.7357
 Red. masses --      1.0393                 1.0682                 1.0688
 Frc consts  --      5.6771                 5.8617                 5.9068
 IR Inten    --     17.9455                28.3509                21.2128

                     52                     53                     54
                      A                      A                      A
 Frequencies --   3068.1023              3078.9796              3083.2662
 Red. masses --      1.0793                 1.0765                 1.0700
 Frc consts  --      5.9861                 6.0127                 5.9931
 IR Inten    --      2.2643                 7.8406                 8.7839

                     55                     56                     57
                      A                      A                      A
 Frequencies --   3106.1125              3112.9767              3118.1677
 Red. masses --      1.0992                 1.0996                 1.1016
 Frc consts  --      6.2485                 6.2780                 6.3106
 IR Inten    --     18.8376                36.0950                46.7686

                     58                     59                     60
                      A                      A                      A
 Frequencies --   3135.1779              3145.0030              3707.2354
 Red. masses --      1.1025                 1.1029                 1.0660
 Frc consts  --      6.3848                 6.4275                 8.6319
 IR Inten    --     14.6475                15.9081               109.7809

 - Thermochemistry -
 -------------------
 Temperature   298.150 Kelvin.  Pressure   1.00000 Atm.
 Atom     1 has atomic number  6 and mass  12.00000

 Molecular mass:   164.05072 amu.
 Principal axes and moments of inertia in atomic units:
                           1         2         3
     Eigenvalues --   983.254111964.719552402.74802
           X            0.99995   0.00286  -0.00911
           Y           -0.00290   0.99999  -0.00430
           Z            0.00909   0.00433   0.99995
 This molecule is an asymmetric top.
 Rotational symmetry number  1.
 Warning -- assumption of classical behavior for rotation
           may cause significant error
 Rotational temperatures (Kelvin)      0.08809     0.04408     0.03605
 Rotational constants (GHZ):           1.83548     0.91857     0.75112
 Zero-point vibrational energy     485029.2 (Joules/Mol)
                                  115.92477 (Kcal/Mol)
 Warning -- explicit consideration of  16 degrees of freedom as
           vibrations may cause significant error
 Vibrational temperatures:     49.05    90.31   222.13   222.65   273.09
          (Kelvin)            368.79   379.43   392.97   452.83   513.43
                              569.68   641.77   657.63   765.81   825.22
                              858.90  1040.20  1136.67  1230.37  1253.37
                             1292.81  1316.79  1370.13  1454.90  1467.96
                             1494.31  1560.46  1604.51  1609.86  1674.52
                             1693.07  1730.82  1762.21  1827.29  1858.53
                             1895.98  1928.92  1940.45  1951.51  1968.74
                             1978.51  2005.72  2073.10  2185.75  2191.34
                             2197.93  2211.63  2216.43  4380.95  4390.91
                             4406.59  4414.31  4429.96  4436.13  4469.00
                             4478.88  4486.35  4510.82  4524.96  5333.88

 Zero-point correction=                           0.184738 (Hartree/Particle)
 Thermal correction to Energy=                    0.195444
 Thermal correction to Enthalpy=                  0.196389
 Thermal correction to Gibbs Free Energy=         0.147889
 Sum of electronic and zero-point Energies=           -859.524108
 Sum of electronic and thermal Energies=              -859.513401
 Sum of electronic and thermal Enthalpies=            -859.512457
 Sum of electronic and thermal Free Energies=         -859.560957

                     E (Thermal)             CV                S
                      KCal/Mol        Cal/Mol-Kelvin    Cal/Mol-Kelvin
 Total                  122.643             39.788            102.076
 Electronic               0.000              0.000              0.000
 Translational            0.889              2.981             41.194
 Rotational               0.889              2.981             29.919
 Vibrational            120.866             33.826             30.964
 Vibration     1          0.594              1.983              5.576
 Vibration     2          0.597              1.972              4.368
 Vibration     3          0.620              1.898              2.617
 Vibration     4          0.620              1.897              2.613
 Vibration     5          0.633              1.854              2.230
 Vibration     6          0.666              1.752              1.687
 Vibration     7          0.670              1.739              1.637
 Vibration     8          0.676              1.723              1.576
 Vibration     9          0.702              1.646              1.337
 Vibration    10          0.732              1.561              1.136
 Vibration    11          0.763              1.479              0.978
 Vibration    12          0.805              1.370              0.808
 Vibration    13          0.815              1.345              0.775
 Vibration    14          0.887              1.179              0.582
 Vibration    15          0.930              1.088              0.497
 Vibration    16          0.955              1.038              0.455

 Optimization completed.
    -- Stationary point found.
 Normal termination of Gaussian 16 at Tue Dec  8 12:29:42 2020.

 ----------------------------------------------------------------------
 # B3LYP/6-311++G(d,p) empiricaldispersion=gd3bj scf=xqc pop=npa geom=c
 heck
 ----------------------------------------------------------------------

 --------------------------------------
 CID_118589510_JID_598_Energie_neutraal
 --------------------------------------
 Structure from the checkpoint file:  "JID_598.chk"
 Charge =  0 Multiplicity = 1

 SCF Done:  E(RB3LYP) =  -859.876568927     A.U. after   14 cycles
 Normal termination of Gaussian 16 at Tue Dec  8 12:39:25 2020.

 ----------------------------------------------------------------------
 # B3LYP/6-311++G(d,p) empiricaldispersion=gd3bj scf=xqc pop=npa geom=c
 heck
 ----------------------------------------------------------------------

 ------------------------------------
 CID_118589510_JID_598_Energie_kation
 ------------------------------------
 Structure from the checkpoint file:  "JID_598.chk"
 Charge =  1 Multiplicity = 2

 SCF Done:  E(UB3LYP) =  -859.486166208     A.U. after   32 cycles
 Normal termination of Gaussian 16 at Tue Dec  8 12:50:25 2020.
 Gaussian 16:  ES64L-G16RevA.03 25-Dec-2016

 ----------------------------------------------------------------------
 # B3LYP/6-311++G(d,p) empiricaldispersion=gd3bj scf=xqc pop=npa geom=c
 heck
 ----------------------------------------------------------------------

 -----------------------------------
 CID_118589510_JID_598_Energie_anion
 -----------------------------------
 Structure from the checkpoint file:  "JID_598.chk"
 Charge = -1 Multiplicity = 2

                         Standard orientation:
 ---------------------------------------------------------------------
 Center     Atomic      Atomic             Coordinates (Angstroms)
 Number     Number       Type             X           Y           Z
 ---------------------------------------------------------------------
      1          6           0        1.442435    2.115120   -0.444644
      2          6           0        1.192915    0.810985    0.313029
      3          6           0        2.481737   -0.020414    0.596674
      4          6           0        2.349021   -1.315593   -0.228118
      5          6           0        0.837132   -1.579586   -0.251097
      6          6           0        0.285932   -0.165681   -0.482928
      7         16           0       -1.466239   -0.006548   -0.099467
      8          8           0       -1.870355    1.402506   -0.137974
      9          8           0       -2.204430   -1.019689   -0.842113
     10          8           0       -1.462141   -0.439635    1.498818
     11          1           0        2.062408    2.796854    0.147536
     12          1           0        1.965448    1.922848   -1.390015
     13          1           0        0.497130    2.618324   -0.670161
     14          1           0        0.705230    1.047475    1.264035
     15          1           0        3.386245    0.542870    0.345779
     16          1           0        2.539168   -0.264384    1.663005
     17          1           0        2.917877   -2.150847    0.191534
     18          1           0        2.710461   -1.154523   -1.251765
     19          1           0        0.503525   -1.954675    0.722615
     20          1           0        0.511239   -2.285027   -1.018523
     21          1           0        0.314414    0.075512   -1.552696
     22          1           0       -1.892940    0.295894    1.972782
 ---------------------------------------------------------------------

 SCF Done:  E(UB3LYP) =  -859.867513777     A.U. after   27 cycles

 The electronic state is 2-A.
 Alpha  occ. eigenvalues --  -88.96600 -19.06031 -19.01939 -19.01922 -10.11092
 Alpha  occ. eigenvalues --  -10.08097 -10.07528 -10.06781 -10.06307 -10.05716
 Alpha  occ. eigenvalues --   -8.02785  -5.99178  -5.98981  -5.98775  -1.03850
 Alpha  occ. eigenvalues --   -0.92922  -0.91158  -0.75807  -0.65286  -0.64947
 Alpha  occ. eigenvalues --   -0.57141  -0.53918  -0.49336  -0.46523  -0.42668
 Alpha  occ. eigenvalues --   -0.41541  -0.37892  -0.37127  -0.34860  -0.34231
 Alpha  occ. eigenvalues --   -0.32756  -0.30689  -0.30051  -0.28545  -0.26403
 Alpha  occ. eigenvalues --   -0.25186  -0.24501  -0.24290  -0.23970  -0.22684
 Alpha  occ. eigenvalues --   -0.21976  -0.21535  -0.20544  -0.19997   0.04460
 Alpha virt. eigenvalues --    0.06979   0.07972   0.08298   0.10094   0.10842
 Alpha virt. eigenvalues --    0.10946   0.11652   0.11912   0.13573   0.14004
 Alpha virt. eigenvalues --    0.14128   0.14604   0.15363   0.16286   0.16899

  Beta  occ. eigenvalues --  -88.96578 -19.05932 -19.01914 -19.01895 -10.11056
  Beta  occ. eigenvalues --  -10.08083 -10.07512 -10.06748 -10.06277 -10.05688
  Beta  occ. eigenvalues --   -8.02757  -5.99146  -5.98963  -5.98754  -1.03733
  Beta  occ. eigenvalues --   -0.92723  -0.91082  -0.75755  -0.65239  -0.64854
  Beta  occ. eigenvalues --   -0.57058  -0.53799  -0.49236  -0.46436  -0.42597
  Beta  occ. eigenvalues --   -0.41488  -0.37844  -0.37077  -0.34807  -0.34165
  Beta  occ. eigenvalues --   -0.32701  -0.30652  -0.30006  -0.28486  -0.26322
  Beta  occ. eigenvalues --   -0.25134  -0.24436  -0.24243  -0.23885  -0.22642
  Beta  occ. eigenvalues --   -0.21917  -0.21475  -0.20488  -0.19943
  Beta virt. eigenvalues --    0.07059   0.08431   0.08548   0.09064   0.10714
  Beta virt. eigenvalues --    0.11345   0.11450   0.12144   0.12177   0.13810
  Beta virt. eigenvalues --    0.14428   0.14657   0.14863   0.15691   0.16522

 Mulliken charges and spin densities:
               1          2
     1  C    1.455879  -2.203700
     2  C   -0.725218   0.923438
     3  C    0.293273  -0.791905
     4  C    0.519668  -0.930799
     5  C   -0.767356   0.334903
     6  C   -0.485294   0.461245
     7  S    1.487323  -1.312658
     8  O   -0.225751   0.012915
     9  O   -0.156529   0.008760
    10  O   -0.183233  -0.013579
    11  H   -0.187529   0.321819
    12  H   -0.143547   0.287800
    13  H    0.006572   0.156578
    14  H   -0.346245   0.591802
    15  H   -0.335384   0.511479
    16  H   -0.203141   0.357057
    17  H   -0.419519   0.589475
    18  H   -0.071013   0.215169
    19  H   -0.024308   0.229522
    20  H    0.058156   0.106843
    21  H   -0.115447   0.405590
    22  H   -0.431357   0.738245
 Sum of Mulliken charges =  -1.00000   1.00000

 Dipole moment (field-independent basis, Debye):
    X=             -0.4723    Y=             -0.3662    Z=             -2.9243  Tot=              2.9848
 Quadrupole moment (field-independent basis, Debye-Ang):
   XX=           -121.4552   YY=           -102.5100   ZZ=           -104.2590
   XY=              1.3384   XZ=             -0.1986   YZ=             -0.5372

 Summary of Natural Population Analysis:

                                       Natural Population
                Natural  -----------------------------------------------
    Atom  No    Charge         Core      Valence    Rydberg      Total
 -----------------------------------------------------------------------
      C    1   -0.28253      0.99964     2.27753    0.00535     3.28253
      C    2   -0.12209      0.99959     2.10909    0.01341     3.12209
      C    3   -0.18749      0.99962     2.17899    0.00888     3.18749
      C    4   -0.19009      0.99964     2.18126    0.00919     3.19009
      C    5   -0.19624      0.99961     2.18812    0.00852     3.19624
      C    6   -0.19797      0.99950     2.18460    0.01386     3.19797
      S    7    1.13249      4.99926     1.76816    0.10009     6.86751
      O    8   -0.46257      0.99991     3.45680    0.00587     4.46257
      O    9   -0.45331      0.99990     3.44773    0.00568     4.45331
      O   10   -0.43910      0.99992     3.43247    0.00672     4.43910
      H   11    0.10060      0.00000     0.39835    0.00106     0.39940
      H   12    0.09459      0.00000     0.40412    0.00129     0.40541
      H   13    0.10746      0.00000     0.39135    0.00119     0.39254
      H   14    0.10985      0.00000     0.38704    0.00311     0.39015
      H   15    0.10081      0.00000     0.39770    0.00149     0.39919
      H   16    0.10277      0.00000     0.39515    0.00208     0.39723
      H   17    0.10412      0.00000     0.39439    0.00149     0.39588
      H   18    0.09433      0.00000     0.40412    0.00155     0.40567
      H   19    0.10844      0.00000     0.38963    0.00193     0.39156
      H   20    0.10631      0.00000     0.39267    0.00101     0.39369
      H   21    0.11530      0.00000     0.38333    0.00136     0.38470
      H   22    0.25432      0.00000     0.22943    0.01626     0.24568
 =======================================================================
   * Total *    0.00000     13.99658    29.79204    0.21138    44.00000

 Normal termination of Gaussian 16 at Tue Dec  8 13:04:41 2020.
