 Gaussian 16, Revision A.03,

 -----------------------------------------------------------
 # opt freq B3LYP/6-31G(d) empiricaldispersion=gd3bj scf=xqc
 -----------------------------------------------------------

 -------------------------------
 CID_141844888_JID_1035_neutraal
 -------------------------------
 Symbolic Z-matrix:
 Charge =  0 Multiplicity = 1

 SCF Done:  E(RB3LYP) =  -512.865443748     A.U. after   15 cycles
 SCF Done:  E(RB3LYP) =  -512.869921024     A.U. after   13 cycles
 SCF Done:  E(RB3LYP) =  -512.870309563     A.U. after   11 cycles
 SCF Done:  E(RB3LYP) =  -512.870399703     A.U. after   11 cycles
 SCF Done:  E(RB3LYP) =  -512.870506281     A.U. after   12 cycles
 SCF Done:  E(RB3LYP) =  -512.870686644     A.U. after   14 cycles
 SCF Done:  E(RB3LYP) =  -512.870944058     A.U. after   12 cycles
 SCF Done:  E(RB3LYP) =  -512.871795950     A.U. after   13 cycles
 SCF Done:  E(RB3LYP) =  -512.872134738     A.U. after   11 cycles
 SCF Done:  E(RB3LYP) =  -512.872509304     A.U. after   13 cycles
 SCF Done:  E(RB3LYP) =  -512.873552064     A.U. after   11 cycles
 SCF Done:  E(RB3LYP) =  -512.873573237     A.U. after   11 cycles
 SCF Done:  E(RB3LYP) =  -512.873576698     A.U. after   10 cycles
 SCF Done:  E(RB3LYP) =  -512.873578208     A.U. after   10 cycles
 SCF Done:  E(RB3LYP) =  -512.873578270     A.U. after    8 cycles
 SCF Done:  E(RB3LYP) =  -512.873578302     A.U. after    7 cycles
 Optimization completed.
    -- Stationary point found.
 Normal termination of Gaussian 16 at Tue Dec  8 19:13:07 2020.

 --------------------------------------------------------------------
 #N Geom=AllCheck Guess=TCheck SCRF=Check GenChk RB3LYP/6-31G(d) Freq
 --------------------------------------------------------------------

 Structure from the checkpoint file:  "JID_1035.chk"
 -------------------------------
 CID_141844888_JID_1035_neutraal
 -------------------------------
 Charge =  0 Multiplicity = 1

 SCF Done:  E(RB3LYP) =  -512.873578302     A.U. after    1 cycles

  Exact polarizability: 148.715   2.417  95.395  -8.036  -3.299  54.774
 Approx polarizability: 233.577   3.664 141.930 -19.927  -7.428  81.173

                      1                      2                      3
                      A                      A                      A
 Frequencies --     46.4632                66.1409               101.0559
 Red. masses --      2.6020                 3.7546                 4.3348
 Frc consts  --      0.0033                 0.0097                 0.0261
 IR Inten    --      0.2894                 1.1457                 0.9925

                      4                      5                      6
                      A                      A                      A
 Frequencies --    137.1595               210.3072               229.8757
 Red. masses --      6.8341                 1.0931                 1.1279
 Frc consts  --      0.0758                 0.0285                 0.0351
 IR Inten    --      0.6951                 0.6188                 0.7167

                      7                      8                      9
                      A                      A                      A
 Frequencies --    291.3889               314.1656               340.6070
 Red. masses --      2.9782                 2.2167                 2.3085
 Frc consts  --      0.1490                 0.1289                 0.1578
 IR Inten    --      2.6811                 1.9163                 0.2817

                     10                     11                     12
                      A                      A                      A
 Frequencies --    365.6993               392.7070               418.8135
 Red. masses --      4.0390                 4.0088                 4.4898
 Frc consts  --      0.3183                 0.3643                 0.4640
 IR Inten    --     11.9666                 3.1659                 7.3060

                     13                     14                     15
                      A                      A                      A
 Frequencies --    484.0006               546.9731               566.8631
 Red. masses --      4.1553                 4.8340                 1.1492
 Frc consts  --      0.5735                 0.8521                 0.2176
 IR Inten    --     23.5821                 9.5711                75.7948

                     16                     17                     18
                      A                      A                      A
 Frequencies --    585.6272               681.0848               686.0531
 Red. masses --      3.3200                 2.6254                 3.2248
 Frc consts  --      0.6709                 0.7175                 0.8943
 IR Inten    --      2.1528                 2.5051                 2.2166

                     19                     20                     21
                      A                      A                      A
 Frequencies --    708.5564               732.2250               760.8913
 Red. masses --      1.6044                 8.1483                 4.8506
 Frc consts  --      0.4746                 2.5740                 1.6546
 IR Inten    --      9.2567                27.5890                19.5565

                     22                     23                     24
                      A                      A                      A
 Frequencies --    797.3665               802.3871               840.7208
 Red. masses --      1.3528                 1.4982                 2.5217
 Frc consts  --      0.5068                 0.5683                 1.0501
 IR Inten    --     10.0188                64.3687                 3.6456

                     25                     26                     27
                      A                      A                      A
 Frequencies --    970.5674              1006.9563              1034.0011
 Red. masses --      2.0026                 1.8066                 1.7322
 Frc consts  --      1.1115                 1.0793                 1.0912
 IR Inten    --     11.0252                 2.1247                15.0555

                     28                     29                     30
                      A                      A                      A
 Frequencies --   1071.5545              1097.2633              1119.8687
 Red. masses --      1.4748                 2.1507                 1.8965
 Frc consts  --      0.9977                 1.5256                 1.4013
 IR Inten    --      1.4115                49.4944                 9.4793

                     31                     32                     33
                      A                      A                      A
 Frequencies --   1197.5906              1246.5163              1274.9409
 Red. masses --      3.5508                 2.2683                 5.0061
 Frc consts  --      3.0005                 2.0766                 4.7944
 IR Inten    --      3.9163                24.5362                36.0632

                     34                     35                     36
                      A                      A                      A
 Frequencies --   1363.6415              1381.9655              1393.4553
 Red. masses --      1.7418                 1.9499                 1.7807
 Frc consts  --      1.9083                 2.1941                 2.0372
 IR Inten    --    151.8426                72.7044                83.7369

                     37                     38                     39
                      A                      A                      A
 Frequencies --   1409.4332              1434.8824              1436.6741
 Red. masses --      1.3104                 1.3646                 1.3159
 Frc consts  --      1.5337                 1.6553                 1.6003
 IR Inten    --      1.1713                22.5360                15.0854

                     40                     41                     42
                      A                      A                      A
 Frequencies --   1460.3602              1499.1434              1502.2069
 Red. masses --      4.6072                 1.2976                 1.1262
 Frc consts  --      5.7891                 1.7183                 1.4974
 IR Inten    --     20.4853                 1.7455                15.5504

                     43                     44                     45
                      A                      A                      A
 Frequencies --   1507.2664              1515.8955              1521.8453
 Red. masses --      1.0446                 1.1055                 1.0419
 Frc consts  --      1.3983                 1.4968                 1.4217
 IR Inten    --      8.0404                 2.9782                 8.5583

                     46                     47                     48
                      A                      A                      A
 Frequencies --   1533.9344              1668.3794              1716.0509
 Red. masses --      1.0531                 6.7029                 6.0321
 Frc consts  --      1.4600                10.9926                10.4660
 IR Inten    --      2.2083                 2.6943               147.0943

                     49                     50                     51
                      A                      A                      A
 Frequencies --   1808.1286              3050.5039              3057.6514
 Red. masses --      8.6459                 1.0387                 1.0347
 Frc consts  --     16.6540                 5.6947                 5.6996
 IR Inten    --    562.5659                20.3059                20.8413

                     52                     53                     54
                      A                      A                      A
 Frequencies --   3102.1477              3102.9213              3127.7770
 Red. masses --      1.1007                 1.0638                 1.1022
 Frc consts  --      6.2410                 6.0345                 6.3532
 IR Inten    --     13.4638                16.5097                32.8927

                     55                     56                     57
                      A                      A                      A
 Frequencies --   3135.5792              3165.3758              3165.8903
 Red. masses --      1.1006                 1.1000                 1.1061
 Frc consts  --      6.3756                 6.4934                 6.5321
 IR Inten    --     20.4295                 4.6152                12.1692

                     58                     59                     60
                      A                      A                      A
 Frequencies --   3192.2208              3289.5666              3621.9582
 Red. masses --      1.0631                 1.1127                 1.0769
 Frc consts  --      6.3827                 7.0939                 8.3233
 IR Inten    --      3.1522                 5.2874                32.2124

 - Thermochemistry -
 -------------------
 Temperature   298.150 Kelvin.  Pressure   1.00000 Atm.
 Atom     1 has atomic number  6 and mass  12.00000

 Molecular mass:   153.09021 amu.
 Principal axes and moments of inertia in atomic units:
                           1         2         3
     Eigenvalues --   978.456592020.773832817.67798
           X            0.99977   0.02094   0.00427
           Y           -0.02094   0.99978   0.00171
           Z           -0.00423  -0.00180   0.99999
 This molecule is an asymmetric top.
 Rotational symmetry number  1.
 Warning -- assumption of classical behavior for rotation
           may cause significant error
 Rotational temperatures (Kelvin)      0.08852     0.04286     0.03074
 Rotational constants (GHZ):           1.84448     0.89309     0.64051
 Zero-point vibrational energy     480248.3 (Joules/Mol)
                                  114.78210 (Kcal/Mol)
 Warning -- explicit consideration of  16 degrees of freedom as
           vibrations may cause significant error
 Vibrational temperatures:     66.85    95.16   145.40   197.34   302.59
          (Kelvin)            330.74   419.24   452.01   490.06   526.16
                              565.02   602.58   696.37   786.97   815.59
                              842.59   979.93   987.08  1019.45  1053.51
                             1094.75  1147.23  1154.46  1209.61  1396.43
                             1448.79  1487.70  1541.73  1578.72  1611.24
                             1723.07  1793.46  1834.36  1961.98  1988.34
                             2004.87  2027.86  2064.48  2067.05  2101.13
                             2156.93  2161.34  2168.62  2181.04  2189.60
                             2206.99  2400.43  2469.01  2601.49  4388.99
                             4399.28  4463.30  4464.41  4500.17  4511.40
                             4554.27  4555.01  4592.89  4732.95  5211.19

 Zero-point correction=                           0.182917 (Hartree/Particle)
 Thermal correction to Energy=                    0.193861
 Thermal correction to Enthalpy=                  0.194805
 Thermal correction to Gibbs Free Energy=         0.146068
 Sum of electronic and zero-point Energies=           -512.690661
 Sum of electronic and thermal Energies=              -512.679718
 Sum of electronic and thermal Enthalpies=            -512.678774
 Sum of electronic and thermal Free Energies=         -512.727510

                     E (Thermal)             CV                S
                      KCal/Mol        Cal/Mol-Kelvin    Cal/Mol-Kelvin
 Total                  121.649             41.054            102.575
 Electronic               0.000              0.000              0.000
 Translational            0.889              2.981             40.987
 Rotational               0.889              2.981             30.100
 Vibrational            119.872             35.092             31.487
 Vibration     1          0.595              1.979              4.963
 Vibration     2          0.598              1.970              4.265
 Vibration     3          0.604              1.948              3.434
 Vibration     4          0.614              1.916              2.843
 Vibration     5          0.642              1.825              2.041
 Vibration     6          0.652              1.795              1.880
 Vibration     7          0.687              1.690              1.466
 Vibration     8          0.702              1.647              1.340
 Vibration     9          0.720              1.594              1.209
 Vibration    10          0.739              1.543              1.098
 Vibration    11          0.760              1.486              0.990
 Vibration    12          0.782              1.429              0.896
 Vibration    13          0.840              1.286              0.699
 Vibration    14          0.902              1.146              0.550
 Vibration    15          0.923              1.103              0.510
 Vibration    16          0.943              1.062              0.475

 Optimization completed.
    -- Stationary point found.
 Normal termination of Gaussian 16 at Tue Dec  8 19:16:59 2020.

 ----------------------------------------------------------------------
 # B3LYP/6-311++G(d,p) empiricaldispersion=gd3bj scf=xqc pop=npa geom=c
 heck
 ----------------------------------------------------------------------

 ---------------------------------------
 CID_141844888_JID_1035_Energie_neutraal
 ---------------------------------------
 Structure from the checkpoint file:  "JID_1035.chk"
 Charge =  0 Multiplicity = 1

 SCF Done:  E(RB3LYP) =  -513.020563695     A.U. after   15 cycles
 Normal termination of Gaussian 16 at Tue Dec  8 19:18:20 2020.

 ----------------------------------------------------------------------
 # B3LYP/6-311++G(d,p) empiricaldispersion=gd3bj scf=xqc pop=npa geom=c
 heck
 ----------------------------------------------------------------------

 -------------------------------------
 CID_141844888_JID_1035_Energie_kation
 -------------------------------------
 Structure from the checkpoint file:  "JID_1035.chk"
 Charge =  1 Multiplicity = 2

 SCF Done:  E(UB3LYP) =  -512.728772987     A.U. after   21 cycles
 Normal termination of Gaussian 16 at Tue Dec  8 19:21:03 2020.
 Gaussian 16:  ES64L-G16RevA.03 25-Dec-2016

 ----------------------------------------------------------------------
 # B3LYP/6-311++G(d,p) empiricaldispersion=gd3bj scf=xqc pop=npa geom=c
 heck
 ----------------------------------------------------------------------

 ------------------------------------
 CID_141844888_JID_1035_Energie_anion
 ------------------------------------
 Structure from the checkpoint file:  "JID_1035.chk"
 Charge = -1 Multiplicity = 2

                         Standard orientation:
 ---------------------------------------------------------------------
 Center     Atomic      Atomic             Coordinates (Angstroms)
 Number     Number       Type             X           Y           Z
 ---------------------------------------------------------------------
      1          6           0       -2.929185   -1.000674   -0.845011
      2          6           0       -2.304870   -0.655864    0.505136
      3          7           0       -0.928304   -0.178182    0.372262
      4          6           0       -0.695865    1.169607    0.139484
      5          8           0       -1.581079    2.013033    0.124447
      6          7           0        0.632834    1.477077   -0.064158
      7          6           0        1.694022    0.564603   -0.101376
      8          6           0        2.970552    0.942722   -0.298462
      9          6           0        1.258540   -0.825519    0.083995
     10          7           0        0.026475   -1.153631    0.294247
     11          6           0        2.263990   -1.938307    0.032192
     12          1           0       -2.979354   -0.109635   -1.478404
     13          1           0       -3.946355   -1.384075   -0.708358
     14          1           0       -2.336602   -1.766068   -1.356872
     15          1           0       -2.868853    0.132943    1.004917
     16          1           0       -2.263076   -1.531471    1.157061
     17          1           0        0.810610    2.460052   -0.222158
     18          1           0        3.768929    0.214822   -0.331423
     19          1           0        3.238795    1.985953   -0.430793
     20          1           0        3.027467   -1.814621    0.809726
     21          1           0        1.755128   -2.891835    0.182752
     22          1           0        2.781798   -1.956584   -0.934225
 ---------------------------------------------------------------------

 SCF Done:  E(UB3LYP) =  -513.014358743     A.U. after   32 cycles

 The electronic state is 2-A.
 Alpha  occ. eigenvalues --  -18.95460 -14.22792 -14.20894 -14.16578 -10.16355
 Alpha  occ. eigenvalues --  -10.07666 -10.06371 -10.04401 -10.04318 -10.03186
 Alpha  occ. eigenvalues --   -9.99796  -0.92990  -0.86256  -0.79955  -0.71499
 Alpha  occ. eigenvalues --   -0.64237  -0.60214  -0.58241  -0.53060  -0.49567
 Alpha  occ. eigenvalues --   -0.46073  -0.42717  -0.38865  -0.34875  -0.33136
 Alpha  occ. eigenvalues --   -0.32233  -0.31113  -0.29312  -0.28866  -0.28005
 Alpha  occ. eigenvalues --   -0.26670  -0.25717  -0.25032  -0.24541  -0.23187
 Alpha  occ. eigenvalues --   -0.21377  -0.20343  -0.16215  -0.11831  -0.11195
 Alpha  occ. eigenvalues --   -0.06672   0.05962
 Alpha virt. eigenvalues --    0.08029   0.09199   0.10138   0.10587   0.11701
 Alpha virt. eigenvalues --    0.12114   0.12869   0.13310   0.14012   0.14890
 Alpha virt. eigenvalues --    0.15411   0.15765   0.16703   0.17269   0.18380

  Beta  occ. eigenvalues --  -18.95459 -14.22770 -14.20800 -14.15919 -10.16346
  Beta  occ. eigenvalues --  -10.07661 -10.06226 -10.04305 -10.04191 -10.03204
  Beta  occ. eigenvalues --   -9.99609  -0.92868  -0.85822  -0.79708  -0.70979
  Beta  occ. eigenvalues --   -0.64029  -0.59885  -0.58017  -0.52916  -0.49186
  Beta  occ. eigenvalues --   -0.45851  -0.42515  -0.38543  -0.34568  -0.32945
  Beta  occ. eigenvalues --   -0.32030  -0.30974  -0.29220  -0.28549  -0.27854
  Beta  occ. eigenvalues --   -0.26488  -0.25595  -0.24843  -0.24398  -0.23072
  Beta  occ. eigenvalues --   -0.20314  -0.19160  -0.15979  -0.11229  -0.10276
  Beta  occ. eigenvalues --   -0.05155
  Beta virt. eigenvalues --    0.08452   0.09236   0.10075   0.10584   0.11635
  Beta virt. eigenvalues --    0.11788   0.12131   0.13171   0.13793   0.13931
  Beta virt. eigenvalues --    0.14788   0.15569   0.16024   0.16647   0.17184

 Mulliken charges and spin densities:
               1          2
     1  C    0.051236  -0.477696
     2  C   -0.215798  -0.022474
     3  N   -0.038013   0.029996
     4  C    0.265587   0.009046
     5  O   -0.410631   0.002713
     6  N   -0.415604   0.050957
     7  C    1.321593  -0.060804
     8  C   -1.087323   0.219432
     9  C   -0.507279   0.147476
    10  N    0.001229   0.307643
    11  C   -0.701417  -0.048170
    12  H    0.099803   0.053433
    13  H   -0.243867   0.350340
    14  H    0.171932  -0.021563
    15  H    0.146197   0.015880
    16  H   -0.139806   0.293564
    17  H    0.311936  -0.007328
    18  H    0.131905  -0.006171
    19  H    0.044895  -0.008909
    20  H   -0.020250   0.154409
    21  H    0.104219   0.021739
    22  H    0.129457  -0.003511
 Sum of Mulliken charges =  -1.00000   1.00000

 Dipole moment (field-independent basis, Debye):
    X=              0.0835    Y=              0.3515    Z=             -0.9684  Tot=              1.0336
 Quadrupole moment (field-independent basis, Debye-Ang):
   XX=           -111.4862   YY=            -89.2352   ZZ=            -79.2902
   XY=             -1.1168   XZ=             -1.5161   YZ=              1.2752

 Summary of Natural Population Analysis:

                                       Natural Population
                Natural  -----------------------------------------------
    Atom  No    Charge         Core      Valence    Rydberg      Total
 -----------------------------------------------------------------------
      C    1   -0.29287      0.99966     2.28822    0.00499     3.29287
      C    2   -0.08403      0.99963     2.07186    0.01253     3.08403
      N    3   -0.16120      0.99964     2.64993    0.01164     3.66120
      C    4    0.40375      0.99966     1.57383    0.02275     2.59625
      O    5   -0.35290      0.99988     3.34770    0.00533     4.35290
      N    6   -0.29489      0.99964     2.78601    0.00924     3.79489
      C    7    0.08684      0.99948     1.90223    0.01145     2.91316
      C    8   -0.22884      0.99957     2.21908    0.01018     3.22884
      C    9    0.11361      0.99958     1.87300    0.01381     2.88639
      N   10   -0.05713      0.99963     2.54501    0.01249     3.55713
      C   11   -0.29761      0.99964     2.29290    0.00506     3.29761
      H   12    0.10023      0.00000     0.39883    0.00094     0.39977
      H   13    0.09355      0.00000     0.40475    0.00170     0.40645
      H   14    0.10082      0.00000     0.39814    0.00104     0.39918
      H   15    0.10184      0.00000     0.39688    0.00128     0.39816
      H   16    0.09837      0.00000     0.39966    0.00197     0.40163
      H   17    0.19144      0.00000     0.30644    0.00212     0.30856
      H   18    0.09473      0.00000     0.40450    0.00077     0.40527
      H   19    0.08357      0.00000     0.41545    0.00098     0.41643
      H   20    0.09961      0.00000     0.39867    0.00173     0.40039
      H   21    0.10401      0.00000     0.39484    0.00115     0.39599
      H   22    0.09712      0.00000     0.40186    0.00102     0.40288
 =======================================================================
   * Total *   -0.00000     10.99602    29.86979    0.13419    41.00000

 Normal termination of Gaussian 16 at Tue Dec  8 19:24:54 2020.
