 Gaussian 16, Revision A.03,

 -----------------------------------------------------------
 # opt freq B3LYP/6-31G(d) empiricaldispersion=gd3bj scf=xqc
 -----------------------------------------------------------

 ------------------------------
 CID_144194806_JID_928_neutraal
 ------------------------------
 Symbolic Z-matrix:
 Charge =  0 Multiplicity = 1

 SCF Done:  E(RB3LYP) =  -405.405307249     A.U. after   14 cycles
 SCF Done:  E(RB3LYP) =  -405.407501037     A.U. after   12 cycles
 SCF Done:  E(RB3LYP) =  -405.407423773     A.U. after   12 cycles
 SCF Done:  E(RB3LYP) =  -405.407349858     A.U. after   12 cycles
 SCF Done:  E(RB3LYP) =  -405.406338778     A.U. after   12 cycles
 SCF Done:  E(RB3LYP) =  -405.407575467     A.U. after   10 cycles
 SCF Done:  E(RB3LYP) =  -405.408567538     A.U. after   12 cycles
 SCF Done:  E(RB3LYP) =  -405.408608251     A.U. after   11 cycles
 SCF Done:  E(RB3LYP) =  -405.408462857     A.U. after   12 cycles
 SCF Done:  E(RB3LYP) =  -405.408641533     A.U. after   12 cycles
 SCF Done:  E(RB3LYP) =  -405.408668964     A.U. after   10 cycles
 SCF Done:  E(RB3LYP) =  -405.408672690     A.U. after    9 cycles
 SCF Done:  E(RB3LYP) =  -405.408673655     A.U. after    8 cycles
 SCF Done:  E(RB3LYP) =  -405.408673640     A.U. after    8 cycles
 SCF Done:  E(RB3LYP) =  -405.408673529     A.U. after    8 cycles
 Optimization completed.
    -- Stationary point found.

 1\1\GINC-NODE115\FOpt\RB3LYP\6-31G(d)\C9H13N1\VSC10255\08-Dec-2020\0\\
 # opt freq B3LYP/6-31G(d) empiricaldispersion=gd3bj scf=xqc\\CID_14419
 4806_JID_928_neutraal\\0,1\C,0.982563134,-0.0151548984,0.1275888049\N,
 0.3517426172,0.5779678508,-1.0375002318\C,-1.0940555064,0.5320010862,-
 0.9974055398\C,0.9185046625,1.8022631481,-1.5685696778\C,0.5330373652,
 3.1493094741,-0.879692919\C,0.9886109421,3.2507086463,0.603721771\C,2.
 4179079128,3.0177619193,0.7922575151\C,3.5992325984,2.8112087774,0.930
 7318466\C,1.064749867,4.2611864241,-1.6666509885\C,1.5301678081,5.1558

 Normal termination of Gaussian 16 at Tue Dec  8 13:41:58 2020.

 --------------------------------------------------------------------
 #N Geom=AllCheck Guess=TCheck SCRF=Check GenChk RB3LYP/6-31G(d) Freq
 --------------------------------------------------------------------

 Structure from the checkpoint file:  "JID_928.chk"
 ------------------------------
 CID_144194806_JID_928_neutraal
 ------------------------------
 Charge =  0 Multiplicity = 1

 SCF Done:  E(RB3LYP) =  -405.408673529     A.U. after    1 cycles

  Exact polarizability: 107.692   5.303  96.385  10.611  -6.156  74.636
 Approx polarizability: 147.003   7.292 135.247  23.540 -15.256 119.358

                      1                      2                      3
                      A                      A                      A
 Frequencies --     34.3157                77.2713               103.9566
 Red. masses --      2.9593                 4.1660                 3.4555
 Frc consts  --      0.0021                 0.0147                 0.0220
 IR Inten    --      0.0423                 0.1212                 0.1450

                      4                      5                      6
                      A                      A                      A
 Frequencies --    132.6024               154.5604               199.4730
 Red. masses --      3.3670                 3.0431                 1.8295
 Frc consts  --      0.0349                 0.0428                 0.0429
 IR Inten    --      0.0690                 0.1578                 0.2353

                      7                      8                      9
                      A                      A                      A
 Frequencies --    227.0202               245.6089               265.9064
 Red. masses --      1.9262                 1.6868                 1.2989
 Frc consts  --      0.0585                 0.0600                 0.0541
 IR Inten    --      1.4613                 4.5278                 1.0801

                     10                     11                     12
                      A                      A                      A
 Frequencies --    285.0706               362.5899               376.5437
 Red. masses --      4.0229                 2.9540                 2.3545
 Frc consts  --      0.1926                 0.2288                 0.1967
 IR Inten    --      2.7427                 5.1076                 0.8404

                     13                     14                     15
                      A                      A                      A
 Frequencies --    433.2122               442.9307               501.9733
 Red. masses --      3.8494                 2.4112                 2.9011
 Frc consts  --      0.4256                 0.2787                 0.4307
 IR Inten    --      2.6784                 1.2523                 7.1650

                     16                     17                     18
                      A                      A                      A
 Frequencies --    518.3891               599.9108               602.1508
 Red. masses --      5.0065                 1.2235                 1.2330
 Frc consts  --      0.7927                 0.2594                 0.2634
 IR Inten    --      2.9074                56.0665                30.6844

                     19                     20                     21
                      A                      A                      A
 Frequencies --    618.1233               621.5854               666.5283
 Red. masses --      1.2760                 1.2476                 2.8091
 Frc consts  --      0.2872                 0.2840                 0.7353
 IR Inten    --     51.8727                34.0839                11.8933

                     22                     23                     24
                      A                      A                      A
 Frequencies --    795.9680               846.2214               889.5277
 Red. masses --      3.6122                 3.9283                 2.3042
 Frc consts  --      1.3484                 1.6574                 1.0742
 IR Inten    --      2.0755                 7.4515                 9.1642

                     25                     26                     27
                      A                      A                      A
 Frequencies --    931.0867              1020.1524              1064.3757
 Red. masses --      2.3335                 2.5447                 2.5002
 Frc consts  --      1.1919                 1.5603                 1.6689
 IR Inten    --      4.9829                 5.6722                10.3084

                     28                     29                     30
                      A                      A                      A
 Frequencies --   1082.3317              1092.6326              1097.0235
 Red. masses --      2.6779                 1.4970                 2.2576
 Frc consts  --      1.8483                 1.0530                 1.6008
 IR Inten    --     41.4033                 5.8991                23.3839

                     31                     32                     33
                      A                      A                      A
 Frequencies --   1137.4826              1187.8878              1191.0515
 Red. masses --      1.2690                 1.4462                 1.4415
 Frc consts  --      0.9674                 1.2023                 1.2048
 IR Inten    --     11.7364                 5.3681                11.3341

                     34                     35                     36
                      A                      A                      A
 Frequencies --   1262.2177              1301.8618              1327.6153
 Red. masses --      1.1130                 1.6996                 1.4013
 Frc consts  --      1.0447                 1.6972                 1.4552
 IR Inten    --      0.1037                 9.4137                 6.9037

                     37                     38                     39
                      A                      A                      A
 Frequencies --   1349.4187              1387.0792              1405.3997
 Red. masses --      2.4969                 1.3996                 1.4143
 Frc consts  --      2.6788                 1.5866                 1.6459
 IR Inten    --     19.9199                 3.2296                23.7357

                     40                     41                     42
                      A                      A                      A
 Frequencies --   1416.0584              1472.4122              1489.1758
 Red. masses --      1.2737                 1.1467                 1.1155
 Frc consts  --      1.5048                 1.4647                 1.4575
 IR Inten    --     14.2440                 0.5662                 0.5802

                     43                     44                     45
                      A                      A                      A
 Frequencies --   1498.3204              1507.9184              1509.8467
 Red. masses --      1.0641                 1.0699                 1.0851
 Frc consts  --      1.4075                 1.4333                 1.4574
 IR Inten    --     10.0556                 8.3100                17.5293

                     46                     47                     48
                      A                      A                      A
 Frequencies --   1523.6827              1540.9766              1559.0220
 Red. masses --      1.1188                 1.0562                 1.0591
 Frc consts  --      1.5304                 1.4777                 1.5167
 IR Inten    --     11.7873                 7.6270                 8.7874

                     49                     50                     51
                      A                      A                      A
 Frequencies --   2237.7709              2243.4192              2928.5214
 Red. masses --      5.9830                 5.9771                 1.0629
 Frc consts  --     17.6522                17.7241                 5.3708
 IR Inten    --      4.3524                 0.9370                71.4522

                     52                     53                     54
                      A                      A                      A
 Frequencies --   2955.9002              3036.5844              3047.1783
 Red. masses --      1.0622                 1.0808                 1.0664
 Frc consts  --      5.4682                 5.8718                 5.8339
 IR Inten    --    111.3501                13.2092                33.2091

                     55                     56                     57
                      A                      A                      A
 Frequencies --   3056.7269              3057.7530              3062.0884
 Red. masses --      1.0764                 1.0631                 1.0680
 Frc consts  --      5.9256                 5.8566                 5.9002
 IR Inten    --     44.5491                27.5008                63.9214

                     58                     59                     60
                      A                      A                      A
 Frequencies --   3095.1805              3109.8589              3116.8169
 Red. masses --      1.1006                 1.1032                 1.0992
 Frc consts  --      6.2125                 6.2864                 6.2916
 IR Inten    --     13.5909                28.4040                17.5616

                     61                     62                     63
                      A                      A                      A
 Frequencies --   3142.1708              3496.7565              3497.2640
 Red. masses --      1.0966                 1.1600                 1.1598
 Frc consts  --      6.3793                 8.3570                 8.3580
 IR Inten    --     22.3889                51.4809                64.4838

 - Thermochemistry -
 -------------------
 Temperature   298.150 Kelvin.  Pressure   1.00000 Atm.
 Atom     1 has atomic number  6 and mass  12.00000

 Molecular mass:   135.10480 amu.
 Principal axes and moments of inertia in atomic units:
                           1         2         3
     Eigenvalues --  1110.907561745.467182448.76175
           X            0.99993  -0.00121   0.01190
           Y            0.00138   0.99989  -0.01445
           Z           -0.01188   0.01447   0.99982
 This molecule is an asymmetric top.
 Rotational symmetry number  1.
 Warning -- assumption of classical behavior for rotation
           may cause significant error
 Rotational temperatures (Kelvin)      0.07797     0.04962     0.03537
 Rotational constants (GHZ):           1.62456     1.03396     0.73700
 Zero-point vibrational energy     517028.8 (Joules/Mol)
                                  123.57284 (Kcal/Mol)
 Warning -- explicit consideration of  19 degrees of freedom as
           vibrations may cause significant error
 Vibrational temperatures:     49.37   111.18   149.57   190.79   222.38
          (Kelvin)            287.00   326.63   353.38   382.58   410.15
                              521.69   541.76   623.30   637.28   722.23
                              745.85   863.14   866.36   889.34   894.32
                              958.99  1145.22  1217.52  1279.83  1339.63
                             1467.77  1531.40  1557.23  1572.05  1578.37
                             1636.58  1709.11  1713.66  1816.05  1873.09
                             1910.14  1941.51  1995.70  2022.06  2037.39
                             2118.47  2142.59  2155.75  2169.56  2172.33
                             2192.24  2217.12  2243.08  3219.65  3227.78
                             4213.49  4252.88  4368.97  4384.21  4397.95
                             4399.42  4405.66  4453.27  4474.39  4484.40
                             4520.88  5031.05  5031.78

 Zero-point correction=                           0.196926 (Hartree/Particle)
 Thermal correction to Energy=                    0.208876
 Thermal correction to Enthalpy=                  0.209821
 Thermal correction to Gibbs Free Energy=         0.159230
 Sum of electronic and zero-point Energies=           -405.211748
 Sum of electronic and thermal Energies=              -405.199797
 Sum of electronic and thermal Enthalpies=            -405.198853
 Sum of electronic and thermal Free Energies=         -405.249444

                     E (Thermal)             CV                S
                      KCal/Mol        Cal/Mol-Kelvin    Cal/Mol-Kelvin
 Total                  131.072             43.643            106.477
 Electronic               0.000              0.000              0.000
 Translational            0.889              2.981             40.615
 Rotational               0.889              2.981             29.941
 Vibrational            129.294             37.682             35.921
 Vibration     1          0.594              1.983              5.563
 Vibration     2          0.599              1.964              3.959
 Vibration     3          0.605              1.946              3.379
 Vibration     4          0.613              1.921              2.908
 Vibration     5          0.620              1.898              2.615
 Vibration     6          0.638              1.841              2.138
 Vibration     7          0.651              1.800              1.902
 Vibration     8          0.660              1.770              1.762
 Vibration     9          0.672              1.736              1.623
 Vibration    10          0.683              1.701              1.503
 Vibration    11          0.736              1.549              1.111
 Vibration    12          0.747              1.520              1.053
 Vibration    13          0.794              1.398              0.848
 Vibration    14          0.803              1.376              0.817
 Vibration    15          0.857              1.246              0.653
 Vibration    16          0.873              1.209              0.614
 Vibration    17          0.958              1.032              0.450
 Vibration    18          0.960              1.027              0.446
 Vibration    19          0.978              0.994              0.420

 Optimization completed.
    -- Stationary point found.

 1\1\GINC-NODE115\Freq\RB3LYP\6-31G(d)\C9H13N1\VSC10255\08-Dec-2020\0\\
 #N Geom=AllCheck Guess=TCheck SCRF=Check GenChk RB3LYP/6-31G(d) Freq\\
 CID_144194806_JID_928_neutraal\\0,1\C,0.982563134,-0.0151548984,0.1275
 888049\N,0.3517426172,0.5779678508,-1.0375002318\C,-1.0940555064,0.532
 0010862,-0.9974055398\C,0.9185046625,1.8022631481,-1.5685696778\C,0.53
 30373652,3.1493094741,-0.879692919\C,0.9886109421,3.2507086463,0.60372
 1771\C,2.4179079128,3.0177619193,0.7922575151\C,3.5992325984,2.8112087
 774,0.9307318466\C,1.064749867,4.2611864241,-1.6666509885\C,1.53016780

 Normal termination of Gaussian 16 at Tue Dec  8 13:48:33 2020.

 ----------------------------------------------------------------------
 # B3LYP/6-311++G(d,p) empiricaldispersion=gd3bj scf=xqc pop=npa geom=c
 heck
 ----------------------------------------------------------------------

 --------------------------------------
 CID_144194806_JID_928_Energie_neutraal
 --------------------------------------
 Structure from the checkpoint file:  "JID_928.chk"
 Charge =  0 Multiplicity = 1

 SCF Done:  E(RB3LYP) =  -405.528912025     A.U. after   14 cycles
 Normal termination of Gaussian 16 at Tue Dec  8 13:53:09 2020.

 ----------------------------------------------------------------------
 # B3LYP/6-311++G(d,p) empiricaldispersion=gd3bj scf=xqc pop=npa geom=c
 heck
 ----------------------------------------------------------------------

 ------------------------------------
 CID_144194806_JID_928_Energie_kation
 ------------------------------------
 Structure from the checkpoint file:  "JID_928.chk"
 Charge =  1 Multiplicity = 2

 SCF Done:  E(UB3LYP) =  -405.241793984     A.U. after   20 cycles
 Normal termination of Gaussian 16 at Tue Dec  8 13:58:52 2020.
 Gaussian 16:  ES64L-G16RevA.03 25-Dec-2016

 -----------------------------------
 CID_144194806_JID_928_Energie_anion
 -----------------------------------
 Structure from the checkpoint file:  "JID_928.chk"
 Charge = -1 Multiplicity = 2

                         Standard orientation:
 ---------------------------------------------------------------------
 Center     Atomic      Atomic             Coordinates (Angstroms)
 Number     Number       Type             X           Y           Z
 ---------------------------------------------------------------------
      1          6           0        2.128058    1.131158   -0.343399
      2          7           0        1.826034   -0.278465   -0.513416
      3          6           0        2.533573   -1.136283    0.412645
      4          6           0        0.450244   -0.652329   -0.777195
      5          6           0       -0.527273   -0.759077    0.435544
      6          6           0       -0.742142    0.583138    1.190951
      7          6           0       -1.181891    1.675072    0.326659
      8          6           0       -1.533908    2.568719   -0.404673
      9          6           0       -1.801876   -1.311199   -0.021446
     10          6           0       -2.846520   -1.754577   -0.433793
     11          1           0        3.188626    1.301980   -0.568991
     12          1           0        1.945720    1.521727    0.674579
     13          1           0        1.526756    1.723706   -1.037085
     14          1           0        2.254033   -0.986933    1.474498
     15          1           0        2.349053   -2.186752    0.160494
     16          1           0        3.611615   -0.952260    0.332204
     17          1           0        0.027339    0.058772   -1.493000
     18          1           0        0.453005   -1.636786   -1.262019
     19          1           0       -0.090463   -1.456219    1.163514
     20          1           0       -1.481420    0.421417    1.984819
     21          1           0        0.195447    0.858668    1.686104
     22          1           0       -1.859093    3.358387   -1.042634
     23          1           0       -3.772452   -2.144192   -0.790318
 ---------------------------------------------------------------------

 SCF Done:  E(UB3LYP) =  -405.512742437     A.U. after   33 cycles
 SCF Done:  E(UB3LYP) =  -405.512742437     a.u. after    1 cycles

 The electronic state is 2-A.
 Alpha  occ. eigenvalues --  -14.19956 -10.10202 -10.09791 -10.09450 -10.07901
 Alpha  occ. eigenvalues --  -10.07757 -10.07736 -10.07436 -10.06361 -10.06264
 Alpha  occ. eigenvalues --   -0.81974  -0.72797  -0.66523  -0.63014  -0.60628
 Alpha  occ. eigenvalues --   -0.60067  -0.54907  -0.47763  -0.44392  -0.42601
 Alpha  occ. eigenvalues --   -0.39823  -0.38214  -0.37045  -0.35703  -0.33230
 Alpha  occ. eigenvalues --   -0.32587  -0.31240  -0.28097  -0.27587  -0.26248
 Alpha  occ. eigenvalues --   -0.26043  -0.25366  -0.18560  -0.17957  -0.17264
 Alpha  occ. eigenvalues --   -0.17040  -0.10374   0.04727
 Alpha virt. eigenvalues --    0.06957   0.07074   0.08204   0.08986   0.09882
 Alpha virt. eigenvalues --    0.10120   0.10867   0.11273   0.11755   0.11981
 Alpha virt. eigenvalues --    0.12623   0.13222   0.13898   0.14385   0.14673

  Beta  occ. eigenvalues --  -14.19953 -10.10183 -10.09757 -10.09440 -10.07868
  Beta  occ. eigenvalues --  -10.07757 -10.07679 -10.07436 -10.06338 -10.06243
  Beta  occ. eigenvalues --   -0.81955  -0.72758  -0.66492  -0.62987  -0.60582
  Beta  occ. eigenvalues --   -0.59993  -0.54842  -0.47685  -0.44340  -0.42551
  Beta  occ. eigenvalues --   -0.39784  -0.38169  -0.36999  -0.35663  -0.33184
  Beta  occ. eigenvalues --   -0.32537  -0.31201  -0.28053  -0.27543  -0.26203
  Beta  occ. eigenvalues --   -0.26000  -0.25335  -0.18528  -0.17929  -0.17234
  Beta  occ. eigenvalues --   -0.17002  -0.10341
  Beta virt. eigenvalues --    0.06938   0.07746   0.07929   0.08947   0.09701
  Beta virt. eigenvalues --    0.10295   0.10559   0.11217   0.11630   0.12106
  Beta virt. eigenvalues --    0.12298   0.12858   0.13367   0.14241   0.14691

 Mulliken charges and spin densities:
               1          2
     1  C    0.419868  -0.765113
     2  N   -0.203723   0.287764
     3  C    1.163833  -1.518209
     4  C   -0.378702  -0.672152
     5  C   -1.085897   1.715971
     6  C   -0.399306  -0.007140
     7  C    1.039943  -0.887759
     8  C   -0.016570  -0.355071
     9  C    3.413571  -3.771757
    10  C   -1.660851   1.573050
    11  H   -0.209465   0.354488
    12  H   -0.068273   0.183446
    13  H   -0.083358   0.235705
    14  H   -0.510882   0.654299
    15  H   -0.382379   0.521449
    16  H   -0.397021   0.535359
    17  H    0.137195   0.007268
    18  H    0.070138   0.116119
    19  H   -0.309640   0.548529
    20  H   -0.198042   0.379125
    21  H   -0.199589   0.373198
    22  H   -0.441419   0.621838
    23  H   -0.699430   0.869592
 Sum of Mulliken charges =  -1.00000   1.00000

 Dipole moment (field-independent basis, Debye):
    X=             -1.9296    Y=              1.4330    Z=             -2.3843  Tot=              3.3855
 Quadrupole moment (field-independent basis, Debye-Ang):
   XX=           -120.6666   YY=           -107.1362   ZZ=            -95.1606
   XY=              0.8842   XZ=             -3.4718   YZ=              1.5009

 Summary of Natural Population Analysis:

                                       Natural Population
                Natural  -----------------------------------------------
    Atom  No    Charge         Core      Valence    Rydberg      Total
 -----------------------------------------------------------------------
      C    1   -0.17384      0.99964     2.16540    0.00880     3.17384
      N    2   -0.28048      0.99974     2.76690    0.01384     3.78048
      C    3   -0.17786      0.99964     2.16903    0.00918     3.17786
      C    4   -0.07171      0.99959     2.05922    0.01290     3.07171
      C    5   -0.15568      0.99953     2.14276    0.01339     3.15568
      C    6   -0.22833      0.99955     2.21722    0.01156     3.22833
      C    7    0.00558      0.99937     1.98540    0.00965     2.99442
      C    8   -0.12441      0.99925     2.12169    0.00346     3.12441
      C    9    0.00601      0.99938     1.98334    0.01127     2.99399
      C   10   -0.12154      0.99926     2.11868    0.00360     3.12154
      H   11    0.09313      0.00000     0.40560    0.00128     0.40687
      H   12    0.07968      0.00000     0.41854    0.00177     0.42032
      H   13    0.09853      0.00000     0.40017    0.00130     0.40147
      H   14    0.08270      0.00000     0.41437    0.00293     0.41730
      H   15    0.09636      0.00000     0.40206    0.00158     0.40364
      H   16    0.09678      0.00000     0.40155    0.00167     0.40322
      H   17    0.10085      0.00000     0.39773    0.00142     0.39915
      H   18    0.09797      0.00000     0.40073    0.00130     0.40203
      H   19    0.11855      0.00000     0.37804    0.00342     0.38145
      H   20    0.11793      0.00000     0.38050    0.00157     0.38207
      H   21    0.11945      0.00000     0.37777    0.00277     0.38055
      H   22    0.11039      0.00000     0.38820    0.00141     0.38961
      H   23    0.10993      0.00000     0.38858    0.00149     0.39007
 =======================================================================
   * Total *   -0.00000      9.99495    26.88349    0.12156    37.00000

 Normal termination of Gaussian 16 at Tue Dec  8 14:08:19 2020.
