 Gaussian 16, Revision A.03,

 -----------------------------------------------------------
 # opt freq B3LYP/6-31G(d) empiricaldispersion=gd3bj scf=xqc
 -----------------------------------------------------------

 -----------------------------
 CID_142132493_JID_84_neutraal
 -----------------------------
 Symbolic Z-matrix:
 Charge =  0 Multiplicity = 1

 SCF Done:  E(RB3LYP) =  -390.685882786     A.U. after   13 cycles
 SCF Done:  E(RB3LYP) =  -390.688809924     A.U. after   12 cycles
 SCF Done:  E(RB3LYP) =  -390.688994784     A.U. after   12 cycles
 SCF Done:  E(RB3LYP) =  -390.689251775     A.U. after   11 cycles
 SCF Done:  E(RB3LYP) =  -390.689344805     A.U. after   10 cycles
 SCF Done:  E(RB3LYP) =  -390.689366688     A.U. after   10 cycles
 SCF Done:  E(RB3LYP) =  -390.689374672     A.U. after    9 cycles
 SCF Done:  E(RB3LYP) =  -390.689381562     A.U. after   10 cycles
 SCF Done:  E(RB3LYP) =  -390.689386978     A.U. after    9 cycles
 SCF Done:  E(RB3LYP) =  -390.689391057     A.U. after   10 cycles
 SCF Done:  E(RB3LYP) =  -390.689391513     A.U. after    8 cycles
 SCF Done:  E(RB3LYP) =  -390.689391596     A.U. after    7 cycles
 Optimization completed.
    -- Stationary point found.
 Normal termination of Gaussian 16 at Tue Dec  8 10:17:25 2020.

 --------------------------------------------------------------------
 #N Geom=AllCheck Guess=TCheck SCRF=Check GenChk RB3LYP/6-31G(d) Freq
 --------------------------------------------------------------------

 Structure from the checkpoint file:  "JID_84.chk"
 -----------------------------
 CID_142132493_JID_84_neutraal
 -----------------------------
 Charge =  0 Multiplicity = 1

 SCF Done:  E(RB3LYP) =  -390.689391596     A.U. after    1 cycles

  Exact polarizability: 150.500  13.538 104.278  12.650   5.316  81.326
 Approx polarizability: 212.936  27.470 147.263  27.271  13.943 124.562

                      1                      2                      3
                      A                      A                      A
 Frequencies --     31.9362                78.3598               103.1394
 Red. masses --      2.7673                 2.6035                 2.7192
 Frc consts  --      0.0017                 0.0094                 0.0170
 IR Inten    --      0.0963                 0.1507                 0.1299

                      4                      5                      6
                      A                      A                      A
 Frequencies --    110.9017               141.0090               185.3150
 Red. masses --      2.2966                 2.3745                 1.5607
 Frc consts  --      0.0166                 0.0278                 0.0316
 IR Inten    --      0.1520                 0.1386                 0.1279

                      7                      8                      9
                      A                      A                      A
 Frequencies --    206.7952               235.9129               245.8173
 Red. masses --      1.3404                 2.5121                 1.6587
 Frc consts  --      0.0338                 0.0824                 0.0591
 IR Inten    --      0.2740                 1.7350                 0.4396

                     10                     11                     12
                      A                      A                      A
 Frequencies --    257.3371               297.7164               347.5362
 Red. masses --      2.0883                 2.1844                 2.5830
 Frc consts  --      0.0815                 0.1141                 0.1838
 IR Inten    --      0.5809                 1.3544                 0.7005

                     13                     14                     15
                      A                      A                      A
 Frequencies --    416.3437               459.7360               469.2380
 Red. masses --      2.1217                 2.7105                 2.4267
 Frc consts  --      0.2167                 0.3375                 0.3148
 IR Inten    --      0.2598                 2.3001                 0.9047

                     16                     17                     18
                      A                      A                      A
 Frequencies --    576.3332               652.2117               684.9515
 Red. masses --      2.8325                 1.9193                 1.4227
 Frc consts  --      0.5543                 0.4810                 0.3933
 IR Inten    --      1.0736                 0.6760                 5.2009

                     19                     20                     21
                      A                      A                      A
 Frequencies --    722.5606               755.9734               809.0957
 Red. masses --      1.8956                 1.6418                 1.3710
 Frc consts  --      0.5831                 0.5528                 0.5288
 IR Inten    --      4.6689                 2.5341                 6.3852

                     22                     23                     24
                      A                      A                      A
 Frequencies --    868.4167               895.9122               916.6037
 Red. masses --      2.6301                 1.4337                 1.3400
 Frc consts  --      1.1686                 0.6780                 0.6633
 IR Inten    --      2.2165                 4.7528                33.5266

                     25                     26                     27
                      A                      A                      A
 Frequencies --    924.4450               933.2648               948.5943
 Red. masses --      1.3611                 1.4791                 1.8976
 Frc consts  --      0.6853                 0.7590                 1.0061
 IR Inten    --     26.8803                11.6918                 0.5976

                     28                     29                     30
                      A                      A                      A
 Frequencies --    986.2452              1034.2279              1048.6764
 Red. masses --      1.6742                 1.3519                 1.1646
 Frc consts  --      0.9594                 0.8520                 0.7546
 IR Inten    --      4.0336                 2.0840                16.1160

                     31                     32                     33
                      A                      A                      A
 Frequencies --   1055.5403              1085.0311              1100.1282
 Red. masses --      1.7244                 1.6620                 1.8492
 Frc consts  --      1.1320                 1.1528                 1.3186
 IR Inten    --      4.5769                 1.1529                 0.2462

                     34                     35                     36
                      A                      A                      A
 Frequencies --   1125.6115              1150.5873              1220.9808
 Red. masses --      1.6353                 2.1700                 2.3184
 Frc consts  --      1.2208                 1.6926                 2.0364
 IR Inten    --      0.4526                 2.1487                 4.3235

                     37                     38                     39
                      A                      A                      A
 Frequencies --   1265.2601              1286.5031              1316.6259
 Red. masses --      1.2624                 1.8556                 1.2281
 Frc consts  --      1.1907                 1.8095                 1.2544
 IR Inten    --      0.4059                12.8517                 0.7097

                     40                     41                     42
                      A                      A                      A
 Frequencies --   1338.1247              1376.4226              1391.1079
 Red. masses --      1.3362                 1.3812                 1.4535
 Frc consts  --      1.4097                 1.5418                 1.6573
 IR Inten    --      1.2997                 2.1448                14.3197

                     43                     44                     45
                      A                      A                      A
 Frequencies --   1398.0192              1438.8467              1446.9000
 Red. masses --      1.5632                 1.2297                 1.2379
 Frc consts  --      1.8001                 1.5000                 1.5269
 IR Inten    --      1.3837                 4.8065                 7.0833

                     46                     47                     48
                      A                      A                      A
 Frequencies --   1463.7589              1480.2467              1505.6576
 Red. masses --      1.2435                 1.2869                 1.0504
 Frc consts  --      1.5698                 1.6614                 1.4031
 IR Inten    --      1.0208                 3.3105                 8.1825

                     49                     50                     51
                      A                      A                      A
 Frequencies --   1508.5138              1519.1030              1524.1493
 Red. masses --      1.0963                 1.0599                 1.0618
 Frc consts  --      1.4698                 1.4411                 1.4533
 IR Inten    --      3.8956                 1.0134                 6.0921

                     52                     53                     54
                      A                      A                      A
 Frequencies --   1530.3263              1536.8446              1666.8016
 Red. masses --      1.0462                 1.0645                 5.0729
 Frc consts  --      1.4435                 1.4814                 8.3038
 IR Inten    --      9.0057                 1.6024                 0.7898

                     55                     56                     57
                      A                      A                      A
 Frequencies --   1714.2395              1728.8409              3020.2697
 Red. masses --      4.5278                 5.4460                 1.0650
 Frc consts  --      7.8393                 9.5904                 5.7240
 IR Inten    --     18.6648                 5.6844                18.3836

                     58                     59                     60
                      A                      A                      A
 Frequencies --   3034.9546              3044.5596              3051.5945
 Red. masses --      1.0614                 1.0374                 1.0427
 Frc consts  --      5.7602                 5.6656                 5.7208
 IR Inten    --     25.9991                21.2575                28.1984

                     61                     62                     63
                      A                      A                      A
 Frequencies --   3070.9596              3077.3888              3100.0714
 Red. masses --      1.0999                 1.0965                 1.0970
 Frc consts  --      6.1117                 6.1183                 6.2116
 IR Inten    --     40.9839                33.5054                17.7017

                     64                     65                     66
                      A                      A                      A
 Frequencies --   3109.2805              3128.5254              3144.3128
 Red. masses --      1.1021                 1.1034                 1.0874
 Frc consts  --      6.2774                 6.3628                 6.3343
 IR Inten    --     41.5000                25.6753                14.1666

                     67                     68                     69
                      A                      A                      A
 Frequencies --   3150.6013              3159.0199              3161.0466
 Red. masses --      1.0968                 1.0596                 1.0592
 Frc consts  --      6.4147                 6.2302                 6.2355
 IR Inten    --     33.9227                10.0448                13.3003

                     70                     71                     72
                      A                      A                      A
 Frequencies --   3175.8883              3237.5693              3245.4923
 Red. masses --      1.0907                 1.1162                 1.1154
 Frc consts  --      6.4815                 6.8935                 6.9221
 IR Inten    --      9.5748                15.9057                17.6777

 - Thermochemistry -
 -------------------
 Temperature   298.150 Kelvin.  Pressure   1.00000 Atm.
 Atom     1 has atomic number  6 and mass  12.00000

 Molecular mass:   136.12520 amu.
 Principal axes and moments of inertia in atomic units:
                           1         2         3
     Eigenvalues --   945.296442244.549012678.75201
           X            1.00000  -0.00263   0.00071
           Y            0.00264   0.99985  -0.01701
           Z           -0.00067   0.01702   0.99985
 This molecule is an asymmetric top.
 Rotational symmetry number  1.
 Warning -- assumption of classical behavior for rotation
           may cause significant error
 Rotational temperatures (Kelvin)      0.09163     0.03859     0.03233
 Rotational constants (GHZ):           1.90918     0.80406     0.67372
 Zero-point vibrational energy     612669.3 (Joules/Mol)
                                  146.43148 (Kcal/Mol)
 Warning -- explicit consideration of  16 degrees of freedom as
           vibrations may cause significant error
 Vibrational temperatures:     45.95   112.74   148.39   159.56   202.88
          (Kelvin)            266.63   297.53   339.43   353.68   370.25
                              428.35   500.03   599.03   661.46   675.13
                              829.21   938.39   985.49  1039.60  1087.68
                             1164.11  1249.46  1289.02  1318.79  1330.07
                             1342.76  1364.82  1418.99  1488.02  1508.81
                             1518.69  1561.12  1582.84  1619.50  1655.44
                             1756.72  1820.43  1850.99  1894.33  1925.26
                             1980.37  2001.49  2011.44  2070.18  2081.77
                             2106.02  2129.74  2166.31  2170.41  2185.65
                             2192.91  2201.80  2211.18  2398.16  2466.41
                             2487.42  4345.49  4366.62  4380.44  4390.56
                             4418.43  4427.68  4460.31  4473.56  4501.25
                             4523.96  4533.01  4545.13  4548.04  4569.39
                             4658.14  4669.54

 Zero-point correction=                           0.233353 (Hartree/Particle)
 Thermal correction to Energy=                    0.245503
 Thermal correction to Enthalpy=                  0.246448
 Thermal correction to Gibbs Free Energy=         0.195094
 Sum of electronic and zero-point Energies=           -390.456038
 Sum of electronic and thermal Energies=              -390.443888
 Sum of electronic and thermal Enthalpies=            -390.442944
 Sum of electronic and thermal Free Energies=         -390.494298

                     E (Thermal)             CV                S
                      KCal/Mol        Cal/Mol-Kelvin    Cal/Mol-Kelvin
 Total                  154.056             44.398            108.083
 Electronic               0.000              0.000              0.000
 Translational            0.889              2.981             40.637
 Rotational               0.889              2.981             30.120
 Vibrational            152.278             38.437             37.325
 Vibration     1          0.594              1.983              5.705
 Vibration     2          0.600              1.964              3.932
 Vibration     3          0.605              1.947              3.394
 Vibration     4          0.607              1.940              3.253
 Vibration     5          0.615              1.912              2.790
 Vibration     6          0.631              1.860              2.274
 Vibration     7          0.641              1.830              2.072
 Vibration     8          0.655              1.786              1.833
 Vibration     9          0.660              1.770              1.760
 Vibration    10          0.667              1.750              1.680
 Vibration    11          0.691              1.678              1.430
 Vibration    12          0.725              1.580              1.177
 Vibration    13          0.780              1.435              0.904
 Vibration    14          0.818              1.339              0.767
 Vibration    15          0.826              1.318              0.740
 Vibration    16          0.933              1.082              0.492

 Optimization completed.
    -- Stationary point found.
 Normal termination of Gaussian 16 at Tue Dec  8 10:21:59 2020.

 ----------------------------------------------------------------------
 # B3LYP/6-311++G(d,p) empiricaldispersion=gd3bj scf=xqc pop=npa geom=c
 heck
 ----------------------------------------------------------------------

 -------------------------------------
 CID_142132493_JID_84_Energie_neutraal
 -------------------------------------
 Structure from the checkpoint file:  "JID_84.chk"
 Charge =  0 Multiplicity = 1

 SCF Done:  E(RB3LYP) =  -390.799091739     A.U. after   14 cycles
 Normal termination of Gaussian 16 at Tue Dec  8 10:23:40 2020.

 ----------------------------------------------------------------------
 # B3LYP/6-311++G(d,p) empiricaldispersion=gd3bj scf=xqc pop=npa geom=c
 heck
 ----------------------------------------------------------------------

 -----------------------------------
 CID_142132493_JID_84_Energie_kation
 -----------------------------------
 Structure from the checkpoint file:  "JID_84.chk"
 Charge =  1 Multiplicity = 2

 SCF Done:  E(UB3LYP) =  -390.509296087     A.U. after   20 cycles
 Normal termination of Gaussian 16 at Tue Dec  8 10:26:50 2020.
 Gaussian 16:  ES64L-G16RevA.03 25-Dec-2016

 ----------------------------------------------------------------------
 # B3LYP/6-311++G(d,p) empiricaldispersion=gd3bj scf=xqc pop=npa geom=c
 heck
 ----------------------------------------------------------------------

 ----------------------------------
 CID_142132493_JID_84_Energie_anion
 ----------------------------------
 Structure from the checkpoint file:  "JID_84.chk"
 Charge = -1 Multiplicity = 2

                         Standard orientation:
 ---------------------------------------------------------------------
 Center     Atomic      Atomic             Coordinates (Angstroms)
 Number     Number       Type             X           Y           Z
 ---------------------------------------------------------------------
      1          6           0        3.116288   -0.209399   -0.466238
      2          6           0        2.120853   -1.372096   -0.411904
      3          6           0        1.035843   -1.256406    0.683876
      4          6           0       -0.126913   -0.344867    0.357803
      5          6           0       -1.365114   -0.854452    0.184063
      6          6           0       -2.580840   -0.089631   -0.044294
      7          6           0       -3.779979   -0.641496   -0.283340
      8          6           0        0.146608    1.120473    0.224220
      9          6           0        0.513987    1.854926    1.279821
     10          6           0        0.026353    1.710282   -1.162258
     11          1           0        2.630685    0.742974   -0.691666
     12          1           0        3.880813   -0.388621   -1.230885
     13          1           0        3.627092   -0.092568    0.497179
     14          1           0        1.629633   -1.497465   -1.385805
     15          1           0        2.680607   -2.299049   -0.230796
     16          1           0        0.637868   -2.256777    0.890741
     17          1           0        1.515811   -0.910669    1.611446
     18          1           0       -1.491457   -1.935334    0.252020
     19          1           0       -2.499925    0.994042    0.014967
     20          1           0       -4.668859   -0.036091   -0.431412
     21          1           0       -3.908622   -1.720425   -0.336646
     22          1           0        0.730626    2.916142    1.186837
     23          1           0        0.604754    1.422625    2.272627
     24          1           0        0.718608    1.214577   -1.854659
     25          1           0       -0.978154    1.560416   -1.572764
     26          1           0        0.248001    2.782218   -1.161682
 ---------------------------------------------------------------------

 SCF Done:  E(UB3LYP) =  -390.785741030     A.U. after   33 cycles
 SCF Done:  E(UB3LYP) =  -390.785741030     a.u. after    1 cycles

 The electronic state is 2-A.
 Alpha  occ. eigenvalues --  -10.06060 -10.04932 -10.04360 -10.04310 -10.03868
 Alpha  occ. eigenvalues --  -10.03645 -10.03642 -10.03534 -10.02571 -10.02384
 Alpha  occ. eigenvalues --   -0.70947  -0.65799  -0.65332  -0.60626  -0.56924
 Alpha  occ. eigenvalues --   -0.54928  -0.48470  -0.45691  -0.43173  -0.38235
 Alpha  occ. eigenvalues --   -0.35260  -0.34458  -0.32090  -0.31031  -0.30135
 Alpha  occ. eigenvalues --   -0.29663  -0.28966  -0.27878  -0.25675  -0.25328
 Alpha  occ. eigenvalues --   -0.23757  -0.22590  -0.21828  -0.20972  -0.19458
 Alpha  occ. eigenvalues --   -0.18397  -0.13631  -0.09237   0.05381
 Alpha virt. eigenvalues --    0.07797   0.08155   0.09133   0.09256   0.10019
 Alpha virt. eigenvalues --    0.10647   0.11072   0.11227   0.11752   0.12736
 Alpha virt. eigenvalues --    0.13328   0.13835   0.14157   0.14482   0.15058

  Beta  occ. eigenvalues --  -10.06049 -10.04902 -10.04326 -10.04304 -10.03845
  Beta  occ. eigenvalues --  -10.03589 -10.03585 -10.03315 -10.02491 -10.02179
  Beta  occ. eigenvalues --   -0.70676  -0.65729  -0.65054  -0.60397  -0.56809
  Beta  occ. eigenvalues --   -0.54759  -0.48125  -0.45528  -0.42912  -0.38089
  Beta  occ. eigenvalues --   -0.35160  -0.34336  -0.31962  -0.30967  -0.30007
  Beta  occ. eigenvalues --   -0.29560  -0.28876  -0.27794  -0.25562  -0.25242
  Beta  occ. eigenvalues --   -0.23652  -0.22463  -0.21740  -0.20882  -0.19291
  Beta  occ. eigenvalues --   -0.17606  -0.13251  -0.08098
  Beta virt. eigenvalues --    0.07840   0.08782   0.08971   0.09457   0.09581
  Beta virt. eigenvalues --    0.10276   0.11070   0.11330   0.11455   0.11946
  Beta virt. eigenvalues --    0.12963   0.13402   0.14013   0.14399   0.14707

 Mulliken charges and spin densities:
               1          2
     1  C    0.370487  -0.959191
     2  C    0.122734  -0.362784
     3  C   -0.335932   0.288699
     4  C    0.713061   0.018543
     5  C    0.137667  -0.891264
     6  C    0.341944  -0.110785
     7  C   -0.417768  -0.038444
     8  C   -0.823704   1.420787
     9  C   -0.405672  -0.331600
    10  C    0.076997  -0.791562
    11  H    0.091820   0.054782
    12  H   -0.279527   0.406055
    13  H   -0.015185   0.140857
    14  H    0.073839   0.056240
    15  H   -0.713014   0.866930
    16  H   -0.148006   0.315225
    17  H   -0.112422   0.216441
    18  H    0.040444   0.042850
    19  H    0.059978   0.092039
    20  H    0.096777  -0.001285
    21  H    0.065158   0.003906
    22  H    0.059524   0.021652
    23  H    0.057254   0.085666
    24  H    0.020459   0.118449
    25  H    0.006176   0.132030
    26  H   -0.083089   0.205764
 Sum of Mulliken charges =  -1.00000   1.00000

 Dipole moment (field-independent basis, Debye):
    X=             -1.6105    Y=              2.8386    Z=              0.3447  Tot=              3.2818
 Quadrupole moment (field-independent basis, Debye-Ang):
   XX=           -120.4789   YY=            -94.3500   ZZ=            -88.3117
   XY=             11.0785   XZ=              0.3911   YZ=              1.6311

 Summary of Natural Population Analysis:

                                       Natural Population
                Natural  -----------------------------------------------
    Atom  No    Charge         Core      Valence    Rydberg      Total
 -----------------------------------------------------------------------
      C    1   -0.28512      0.99966     2.27965    0.00581     3.28512
      C    2   -0.18667      0.99963     2.17804    0.00900     3.18667
      C    3   -0.19623      0.99959     2.18584    0.01081     3.19623
      C    4    0.02530      0.99943     1.96251    0.01276     2.97470
      C    5   -0.10202      0.99945     2.09372    0.00884     3.10202
      C    6   -0.09794      0.99956     2.08955    0.00883     3.09794
      C    7   -0.16382      0.99959     2.15581    0.00842     3.16382
      C    8   -0.00451      0.99949     1.99416    0.01086     3.00451
      C    9   -0.19148      0.99948     2.18605    0.00595     3.19148
      C   10   -0.29715      0.99961     2.29135    0.00619     3.29715
      H   11    0.09778      0.00000     0.40092    0.00130     0.40222
      H   12    0.09461      0.00000     0.40439    0.00100     0.40539
      H   13    0.09462      0.00000     0.40434    0.00104     0.40538
      H   14    0.09249      0.00000     0.40625    0.00126     0.40751
      H   15    0.09639      0.00000     0.40011    0.00349     0.40361
      H   16    0.09872      0.00000     0.40003    0.00126     0.40128
      H   17    0.09849      0.00000     0.39996    0.00156     0.40151
      H   18    0.08776      0.00000     0.41047    0.00177     0.41224
      H   19    0.09059      0.00000     0.40772    0.00169     0.40941
      H   20    0.08399      0.00000     0.41504    0.00097     0.41601
      H   21    0.08170      0.00000     0.41717    0.00112     0.41830
      H   22    0.08613      0.00000     0.41276    0.00110     0.41387
      H   23    0.09242      0.00000     0.40650    0.00108     0.40758
      H   24    0.10218      0.00000     0.39662    0.00120     0.39782
      H   25    0.10682      0.00000     0.39177    0.00141     0.39318
      H   26    0.09493      0.00000     0.40395    0.00112     0.40507
 =======================================================================
   * Total *   -0.00000      9.99551    27.89467    0.10982    38.00000

 Normal termination of Gaussian 16 at Tue Dec  8 10:32:57 2020.
