 Gaussian 16, Revision A.03,

 -----------------------------------------------------------
 # opt freq B3LYP/6-31G(d) empiricaldispersion=gd3bj scf=xqc
 -----------------------------------------------------------

 ------------------------------
 CID_80588008_JID_4532_neutraal
 ------------------------------
 Symbolic Z-matrix:
 Charge =  0 Multiplicity = 1

 SCF Done:  E(RB3LYP) =  -653.054964004     A.U. after   14 cycles
 SCF Done:  E(RB3LYP) =  -653.052207780     A.U. after   13 cycles
 SCF Done:  E(RB3LYP) =  -653.060021728     A.U. after   11 cycles
 SCF Done:  E(RB3LYP) =  -653.060394364     A.U. after   12 cycles
 SCF Done:  E(RB3LYP) =  -653.061563081     A.U. after   11 cycles
 SCF Done:  E(RB3LYP) =  -653.061857027     A.U. after   11 cycles
 SCF Done:  E(RB3LYP) =  -653.062403357     A.U. after   11 cycles
 SCF Done:  E(RB3LYP) =  -653.063061290     A.U. after   11 cycles
 SCF Done:  E(RB3LYP) =  -653.062605606     A.U. after   11 cycles
 SCF Done:  E(RB3LYP) =  -653.007871399     A.U. after   13 cycles
 SCF Done:  E(RB3LYP) =  -653.066877165     A.U. after    7 cycles
 SCF Done:  E(RB3LYP) =  -653.066877346     A.U. after    7 cycles
 SCF Done:  E(RB3LYP) =  -653.066877519     A.U. after    7 cycles
 SCF Done:  E(RB3LYP) =  -653.066877674     A.U. after    7 cycles
 SCF Done:  E(RB3LYP) =  -653.066877756     A.U. after    7 cycles
 SCF Done:  E(RB3LYP) =  -653.066877817     A.U. after    6 cycles
 Optimization completed.
    -- Stationary point found.
 Normal termination of Gaussian 16 at Thu Dec 10 10:19:04 2020.

 --------------------------------------------------------------------
 #N Geom=AllCheck Guess=TCheck SCRF=Check GenChk RB3LYP/6-31G(d) Freq
 --------------------------------------------------------------------

 Structure from the checkpoint file:  "JID_4532.chk"
 ------------------------------
 CID_80588008_JID_4532_neutraal
 ------------------------------
 Charge =  0 Multiplicity = 1

 SCF Done:  E(RB3LYP) =  -653.066877817     A.U. after    1 cycles

  Exact polarizability: 136.774  -2.714 128.668  -2.639   0.002 103.282
 Approx polarizability: 181.285  -5.575 165.837 -15.261  -1.970 161.472

                      1                      2                      3
                      A                      A                      A
 Frequencies --     21.4064                35.1365                56.1566
 Red. masses --      3.4962                 3.0609                 3.2622
 Frc consts  --      0.0009                 0.0022                 0.0061
 IR Inten    --      3.2043                 1.6740                 1.1175

                      4                      5                      6
                      A                      A                      A
 Frequencies --     76.9465                82.4310                95.6802
 Red. masses --      2.6988                 3.9860                 3.6150
 Frc consts  --      0.0094                 0.0160                 0.0195
 IR Inten    --      7.3986                 1.5987                 0.6874

                      7                      8                      9
                      A                      A                      A
 Frequencies --    118.0563               160.4642               195.7368
 Red. masses --      2.9900                 2.1869                 3.1900
 Frc consts  --      0.0246                 0.0332                 0.0720
 IR Inten    --      2.1533                 0.1126                 0.0524

                     10                     11                     12
                      A                      A                      A
 Frequencies --    198.1133               230.0615               242.2998
 Red. masses --      2.2509                 2.1516                 1.3378
 Frc consts  --      0.0521                 0.0671                 0.0463
 IR Inten    --      0.7328                 1.3933                 1.8981

                     13                     14                     15
                      A                      A                      A
 Frequencies --    248.7759               273.7440               294.1424
 Red. masses --      1.4244                 1.5580                 2.5692
 Frc consts  --      0.0519                 0.0688                 0.1310
 IR Inten    --      9.7320                13.4473                 2.3344

                     16                     17                     18
                      A                      A                      A
 Frequencies --    302.8922               311.1598               348.8243
 Red. masses --      2.6826                 3.1211                 1.5558
 Frc consts  --      0.1450                 0.1780                 0.1115
 IR Inten    --      0.4663                 3.6587                41.0796

                     19                     20                     21
                      A                      A                      A
 Frequencies --    388.1399               425.7529               461.3292
 Red. masses --      2.5207                 3.4085                 3.7875
 Frc consts  --      0.2237                 0.3640                 0.4749
 IR Inten    --      7.4861                 3.2099                 8.4127

                     22                     23                     24
                      A                      A                      A
 Frequencies --    490.0675               530.0925               593.4744
 Red. masses --      3.5376                 3.0248                 4.0097
 Frc consts  --      0.5006                 0.5008                 0.8321
 IR Inten    --      8.9087                 4.3618                 2.9835

                     25                     26                     27
                      A                      A                      A
 Frequencies --    720.7722               756.0844               796.8463
 Red. masses --      3.3697                 3.6915                 1.2650
 Frc consts  --      1.0314                 1.2434                 0.4732
 IR Inten    --      3.7458                 0.8440                 2.1722

                     28                     29                     30
                      A                      A                      A
 Frequencies --    800.1876               818.1307               837.2836
 Red. masses --      1.1925                 1.4272                 1.8158
 Frc consts  --      0.4499                 0.5628                 0.7500
 IR Inten    --      0.5709                10.8265                 1.8060

                     31                     32                     33
                      A                      A                      A
 Frequencies --    859.4726               917.8628               954.9348
 Red. masses --      1.2592                 2.0518                 1.8431
 Frc consts  --      0.5480                 1.0184                 0.9902
 IR Inten    --    146.8136                 2.8581                13.0518

                     34                     35                     36
                      A                      A                      A
 Frequencies --    962.0040               969.2004               999.3553
 Red. masses --      2.1050                 2.0565                 3.8347
 Frc consts  --      1.1477                 1.1382                 2.2564
 IR Inten    --      6.3127                 5.7106                24.4817

                     37                     38                     39
                      A                      A                      A
 Frequencies --   1027.1169              1032.6861              1071.6618
 Red. masses --      2.4106                 1.6534                 2.6169
 Frc consts  --      1.4983                 1.0389                 1.7707
 IR Inten    --      8.6008                22.0103                10.2084

                     40                     41                     42
                      A                      A                      A
 Frequencies --   1076.3817              1088.8001              1093.5343
 Red. masses --      1.6506                 2.4412                 1.5450
 Frc consts  --      1.1267                 1.7051                 1.0885
 IR Inten    --      2.5518                13.9283                 2.1172

                     43                     44                     45
                      A                      A                      A
 Frequencies --   1112.3883              1125.7006              1153.5258
 Red. masses --      1.6957                 1.7808                 1.9374
 Frc consts  --      1.2362                 1.3296                 1.5189
 IR Inten    --      9.2204                18.8481                42.9467

                     46                     47                     48
                      A                      A                      A
 Frequencies --   1168.0757              1192.4589              1200.4410
 Red. masses --      5.5531                 1.2880                 1.3058
 Frc consts  --      4.4640                 1.0791                 1.1087
 IR Inten    --    174.7444                12.7322                 5.8433

                     49                     50                     51
                      A                      A                      A
 Frequencies --   1213.6395              1234.0316              1248.0409
 Red. masses --      1.4340                 1.6728                 1.7871
 Frc consts  --      1.2444                 1.5009                 1.6401
 IR Inten    --      3.2625                39.8984                23.0772

                     52                     53                     54
                      A                      A                      A
 Frequencies --   1274.9860              1294.3766              1314.4711
 Red. masses --      2.0581                 1.5257                 2.1631
 Frc consts  --      1.9712                 1.5060                 2.2020
 IR Inten    --     18.3038                 2.3836                 2.7946

                     55                     56                     57
                      A                      A                      A
 Frequencies --   1333.1821              1354.2753              1372.8552
 Red. masses --      1.3035                 1.3417                 1.2792
 Frc consts  --      1.3650                 1.4498                 1.4204
 IR Inten    --     57.8528                17.6565                23.7107

                     58                     59                     60
                      A                      A                      A
 Frequencies --   1389.5571              1408.2244              1433.6790
 Red. masses --      1.6311                 1.2871                 1.2984
 Frc consts  --      1.8556                 1.5038                 1.5724
 IR Inten    --     14.3144                18.7972                23.6762

                     61                     62                     63
                      A                      A                      A
 Frequencies --   1442.1648              1455.2829              1475.3713
 Red. masses --      1.4694                 1.3710                 2.2230
 Frc consts  --      1.8006                 1.7107                 2.8510
 IR Inten    --     10.9450                14.2682               139.8884

                     64                     65                     66
                      A                      A                      A
 Frequencies --   1494.6872              1501.7105              1509.4837
 Red. masses --      1.0925                 1.1647                 1.1342
 Frc consts  --      1.4381                 1.5476                 1.5227
 IR Inten    --      2.6160                 5.3196                19.4025

                     67                     68                     69
                      A                      A                      A
 Frequencies --   1514.5854              1519.8058              1526.0974
 Red. masses --      1.0483                 1.0635                 1.1132
 Frc consts  --      1.4168                 1.4474                 1.5276
 IR Inten    --      3.6815                 2.5274                20.3500

                     70                     71                     72
                      A                      A                      A
 Frequencies --   1529.7169              1531.9631              1537.3415
 Red. masses --      1.2148                 1.0684                 1.1110
 Frc consts  --      1.6748                 1.4773                 1.5471
 IR Inten    --      4.5711                 7.9437                 4.5382

                     73                     74                     75
                      A                      A                      A
 Frequencies --   1538.3209              1553.7161              1699.1238
 Red. masses --      1.1196                 1.0869                 1.0896
 Frc consts  --      1.5610                 1.5460                 1.8535
 IR Inten    --      3.3874                 5.0210                34.3404

                     76                     77                     78
                      A                      A                      A
 Frequencies --   1734.4268              2955.3519              2982.8379
 Red. masses --     10.4511                 1.0732                 1.0564
 Frc consts  --     18.5235                 5.5225                 5.5378
 IR Inten    --    249.6626                95.1033                45.1004

                     79                     80                     81
                      A                      A                      A
 Frequencies --   2994.1463              3034.0495              3047.1066
 Red. masses --      1.0475                 1.1047                 1.0728
 Frc consts  --      5.5327                 5.9916                 5.8687
 IR Inten    --     87.5484                65.1077                19.6769

                     82                     83                     84
                      A                      A                      A
 Frequencies --   3052.8408              3079.6541              3080.5211
 Red. masses --      1.0381                 1.0889                 1.0892
 Frc consts  --      5.7005                 6.0850                 6.0896
 IR Inten    --     32.5588                19.9903                20.5566

                     85                     86                     87
                      A                      A                      A
 Frequencies --   3085.2469              3113.3091              3132.1440
 Red. masses --      1.0673                 1.1024                 1.0970
 Frc consts  --      5.9857                 6.2953                 6.3409
 IR Inten    --     34.6228                28.2859                37.8280

                     88                     89                     90
                      A                      A                      A
 Frequencies --   3135.4356              3135.6078              3150.8182
 Red. masses --      1.1002                 1.0546                 1.1042
 Frc consts  --      6.3725                 6.1090                 6.4587
 IR Inten    --     14.0691                15.0094                24.4814

                     91                     92                     93
                      A                      A                      A
 Frequencies --   3153.8777              3198.9447              3215.4044
 Red. masses --      1.0569                 1.0890                 1.1170
 Frc consts  --      6.1940                 6.5661                 6.8039
 IR Inten    --     15.8163                11.2597                 5.2456

                     94                     95                     96
                      A                      A                      A
 Frequencies --   3240.0997              3472.5648              3558.2980
 Red. masses --      1.1156                 1.0498                 1.0929
 Frc consts  --      6.9007                 7.4585                 8.1533
 IR Inten    --     10.7871                 0.3697                 0.2745

 - Thermochemistry -
 -------------------
 Temperature   298.150 Kelvin.  Pressure   1.00000 Atm.
 Atom     1 has atomic number  6 and mass  12.00000

 Molecular mass:   200.15248 amu.
 Principal axes and moments of inertia in atomic units:
                           1         2         3
     Eigenvalues --  2355.599423385.322044813.96769
           X            0.99982   0.00425   0.01842
           Y           -0.00439   0.99996   0.00719
           Z           -0.01839  -0.00726   0.99980
 This molecule is an asymmetric top.
 Rotational symmetry number  1.
 Warning -- assumption of classical behavior for rotation
           may cause significant error
 Rotational temperatures (Kelvin)      0.03677     0.02559     0.01799
 Rotational constants (GHZ):           0.76615     0.53311     0.37490
 Zero-point vibrational energy     796528.5 (Joules/Mol)
                                  190.37488 (Kcal/Mol)
 Warning -- explicit consideration of  24 degrees of freedom as
           vibrations may cause significant error
 Vibrational temperatures:     30.80    50.55    80.80   110.71   118.60
          (Kelvin)            137.66   169.86   230.87   281.62   285.04
                              331.01   348.62   357.93   393.86   423.21
                              435.79   447.69   501.88   558.45   612.56
                              663.75   705.10   762.68   853.88  1037.03
                             1087.84  1146.48  1151.29  1177.11  1204.66
                             1236.59  1320.60  1373.94  1384.11  1394.46
                             1437.85  1477.79  1485.80  1541.88  1548.67
                             1566.54  1573.35  1600.48  1619.63  1659.67
                             1680.60  1715.68  1727.17  1746.16  1775.50
                             1795.65  1834.42  1862.32  1891.23  1918.15
                             1948.50  1975.23  1999.26  2026.12  2062.74
                             2074.95  2093.83  2122.73  2150.52  2160.63
                             2171.81  2179.15  2186.66  2195.71  2200.92
                             2204.15  2211.89  2213.30  2235.45  2444.66
                             2495.45  4252.09  4291.64  4307.91  4365.32
                             4384.11  4392.36  4430.94  4432.18  4438.98
                             4479.36  4506.46  4511.19  4511.44  4533.32
                             4537.73  4602.57  4626.25  4661.78  4996.25
                             5119.60

 Zero-point correction=                           0.303382 (Hartree/Particle)
 Thermal correction to Energy=                    0.319838
 Thermal correction to Enthalpy=                  0.320782
 Thermal correction to Gibbs Free Energy=         0.258199
 Sum of electronic and zero-point Energies=           -652.763496
 Sum of electronic and thermal Energies=              -652.747040
 Sum of electronic and thermal Enthalpies=            -652.746096
 Sum of electronic and thermal Free Energies=         -652.808679

                     E (Thermal)             CV                S
                      KCal/Mol        Cal/Mol-Kelvin    Cal/Mol-Kelvin
 Total                  200.701             59.450            131.718
 Electronic               0.000              0.000              0.000
 Translational            0.889              2.981             41.786
 Rotational               0.889              2.981             32.018
 Vibrational            198.924             53.488             57.913
 Vibration     1          0.593              1.985              6.499
 Vibration     2          0.594              1.982              5.516
 Vibration     3          0.596              1.975              4.588
 Vibration     4          0.599              1.965              3.967
 Vibration     5          0.600              1.961              3.832
 Vibration     6          0.603              1.952              3.540
 Vibration     7          0.608              1.934              3.132
 Vibration     8          0.622              1.891              2.544
 Vibration     9          0.636              1.846              2.173
 Vibration    10          0.637              1.843              2.151
 Vibration    11          0.652              1.795              1.878
 Vibration    12          0.658              1.775              1.786
 Vibration    13          0.662              1.765              1.739
 Vibration    14          0.676              1.722              1.572
 Vibration    15          0.689              1.685              1.450
 Vibration    16          0.694              1.668              1.401
 Vibration    17          0.700              1.652              1.356
 Vibration    18          0.726              1.578              1.171
 Vibration    19          0.756              1.496              1.007
 Vibration    20          0.788              1.414              0.873
 Vibration    21          0.819              1.336              0.762
 Vibration    22          0.846              1.272              0.683
 Vibration    23          0.885              1.183              0.587
 Vibration    24          0.951              1.046              0.461

                           ! Non-Optimized Parameters !
 Normal termination of Gaussian 16 at Thu Dec 10 10:29:45 2020.

 ----------------------------------------------------------------------
 # B3LYP/6-311++G(d,p) empiricaldispersion=gd3bj scf=xqc pop=npa geom=c
 heck
 ----------------------------------------------------------------------

 --------------------------------------
 CID_80588008_JID_4532_Energie_neutraal
 --------------------------------------
 Structure from the checkpoint file:  "JID_4532.chk"
 Charge =  0 Multiplicity = 1

 SCF Done:  E(RB3LYP) =  -653.263840257     A.U. after   14 cycles
 Normal termination of Gaussian 16 at Thu Dec 10 10:35:26 2020.

 ----------------------------------------------------------------------
 # B3LYP/6-311++G(d,p) empiricaldispersion=gd3bj scf=xqc pop=npa geom=c
 heck
 ----------------------------------------------------------------------

 ------------------------------------
 CID_80588008_JID_4532_Energie_kation
 ------------------------------------
 Structure from the checkpoint file:  "JID_4532.chk"
 Charge =  1 Multiplicity = 2

 SCF Done:  E(UB3LYP) =  -652.958490701     A.U. after   31 cycles
 Normal termination of Gaussian 16 at Thu Dec 10 10:54:53 2020.
 Gaussian 16:  ES64L-G16RevA.03 25-Dec-2016

 ----------------------------------------------------------------------
 # B3LYP/6-311++G(d,p) empiricaldispersion=gd3bj scf=xqc pop=npa geom=c
 heck
 ----------------------------------------------------------------------

 -----------------------------------
 CID_80588008_JID_4532_Energie_anion
 -----------------------------------
 Structure from the checkpoint file:  "JID_4532.chk"
 Charge = -1 Multiplicity = 2

                         Standard orientation:
 ---------------------------------------------------------------------
 Center     Atomic      Atomic             Coordinates (Angstroms)
 Number     Number       Type             X           Y           Z
 ---------------------------------------------------------------------
      1          6           0        1.422949    3.274949    0.334300
      2          6           0        0.462372    2.448208   -0.520933
      3          7           0        0.365444    1.060577   -0.051708
      4          6           0       -0.808790    0.693451    0.722416
      5          6           0       -2.083482    0.620479   -0.121455
      6          8           0       -3.026919   -0.120675    0.637397
      7          6           0       -4.262693   -0.255495   -0.028812
      8          6           0        1.358323    0.201506   -0.447055
      9          8           0        2.244704    0.568332   -1.217276
     10          6           0        1.387535   -1.218507    0.104988
     11          6           0        2.680207   -1.607151    0.774268
     12          6           0        1.430001   -1.457506    1.600807
     13          6           0        0.759988   -2.269761   -0.795930
     14          7           0       -0.680077   -2.068308   -0.972437
     15          1           0        1.107860    3.284509    1.384101
     16          1           0        1.461024    4.311114   -0.020795
     17          1           0        2.429373    2.852298    0.273538
     18          1           0       -0.541984    2.880911   -0.497149
     19          1           0        0.802320    2.433051   -1.558707
     20          1           0       -0.655138   -0.288324    1.161496
     21          1           0       -0.940206    1.403666    1.548863
     22          1           0       -2.482747    1.623560   -0.345988
     23          1           0       -1.853618    0.106385   -1.062533
     24          1           0       -4.734230    0.723140   -0.214250
     25          1           0       -4.148119   -0.770535   -0.995967
     26          1           0       -4.917384   -0.847489    0.616500
     27          1           0        3.063480   -2.607243    0.589949
     28          1           0        3.445481   -0.841904    0.850885
     29          1           0        1.362432   -0.596180    2.259597
     30          1           0        0.949713   -2.352761    1.990360
     31          1           0        1.229703   -2.190792   -1.783415
     32          1           0        1.025643   -3.262794   -0.390963
     33          1           0       -1.046348   -2.746286   -1.637497
     34          1           0       -1.175558   -2.222499   -0.095539
 ---------------------------------------------------------------------

 SCF Done:  E(UB3LYP) =  -653.250626455     A.U. after   32 cycles

 The electronic state is 2-A.
 Alpha  occ. eigenvalues --  -19.02782 -18.98603 -14.24530 -14.19095 -10.17213
 Alpha  occ. eigenvalues --  -10.11093 -10.10975 -10.10762 -10.10634 -10.10071
 Alpha  occ. eigenvalues --  -10.09752 -10.08612 -10.08215 -10.07014  -0.94088
 Alpha  occ. eigenvalues --   -0.93825  -0.83888  -0.79580  -0.76206  -0.67711
 Alpha  occ. eigenvalues --   -0.65099  -0.59486  -0.58052  -0.55920  -0.52347
 Alpha  occ. eigenvalues --   -0.51590  -0.49583  -0.44026  -0.42559  -0.40902
 Alpha  occ. eigenvalues --   -0.38982  -0.38541  -0.37305  -0.37144  -0.35989
 Alpha  occ. eigenvalues --   -0.35342  -0.34331  -0.33253  -0.32156  -0.31968
 Alpha  occ. eigenvalues --   -0.29904  -0.28725  -0.28160  -0.27798  -0.27241
 Alpha  occ. eigenvalues --   -0.26803  -0.26361  -0.25405  -0.22873  -0.20935
 Alpha  occ. eigenvalues --   -0.20269  -0.16742  -0.15591  -0.14765  -0.14189
 Alpha  occ. eigenvalues --    0.04323
 Alpha virt. eigenvalues --    0.06120   0.06662   0.07757   0.08307   0.08712
 Alpha virt. eigenvalues --    0.09047   0.09662   0.10485   0.10630   0.10986
 Alpha virt. eigenvalues --    0.11611   0.11970   0.12159   0.12528   0.13204

  Beta  occ. eigenvalues --  -19.02770 -18.98601 -14.24530 -14.19052 -10.17209
  Beta  occ. eigenvalues --  -10.11078 -10.10934 -10.10751 -10.10623 -10.10049
  Beta  occ. eigenvalues --  -10.09753 -10.08595 -10.08209 -10.06994  -0.94077
  Beta  occ. eigenvalues --   -0.93815  -0.83880  -0.79539  -0.76162  -0.67687
  Beta  occ. eigenvalues --   -0.65075  -0.59428  -0.57992  -0.55877  -0.52287
  Beta  occ. eigenvalues --   -0.51553  -0.49546  -0.43999  -0.42535  -0.40871
  Beta  occ. eigenvalues --   -0.38947  -0.38508  -0.37271  -0.37107  -0.35942
  Beta  occ. eigenvalues --   -0.35306  -0.34270  -0.33230  -0.32130  -0.31938
  Beta  occ. eigenvalues --   -0.29875  -0.28701  -0.28136  -0.27768  -0.27218
  Beta  occ. eigenvalues --   -0.26780  -0.26340  -0.25388  -0.22810  -0.20918
  Beta  occ. eigenvalues --   -0.20254  -0.16717  -0.15580  -0.14755  -0.14151
  Beta virt. eigenvalues --    0.06451   0.07136   0.07348   0.08235   0.08756
  Beta virt. eigenvalues --    0.09086   0.09573   0.09849   0.10755   0.10793
  Beta virt. eigenvalues --    0.11398   0.11794   0.12129   0.12481   0.12804

 Mulliken charges and spin densities:
               1          2
     1  C    0.306117  -0.758771
     2  C   -0.315841   0.212384
     3  N    0.236428   0.037074
     4  C   -0.001560  -0.325078
     5  C   -0.722835   0.104645
     6  O   -0.160354   0.057200
     7  C    0.981946  -1.235170
     8  C   -1.190405   0.361094
     9  O   -0.276110  -0.000185
    10  C   -0.106177   0.926309
    11  C    0.273525  -0.601186
    12  C    0.290112  -0.680304
    13  C    1.000639  -1.488268
    14  N   -0.450008   0.075888
    15  H   -0.051909   0.182720
    16  H   -0.122070   0.259828
    17  H    0.074765   0.100391
    18  H   -0.266948   0.401756
    19  H    0.156873   0.035726
    20  H    0.415166  -0.225220
    21  H   -0.141376   0.313390
    22  H    0.002404   0.108912
    23  H    0.356036  -0.067247
    24  H   -0.373344   0.497926
    25  H   -0.281373   0.414811
    26  H   -0.359435   0.498318
    27  H    0.108799   0.037734
    28  H    0.158264   0.027035
    29  H    0.125918   0.042075
    30  H   -0.212631   0.378806
    31  H    0.112344   0.077306
    32  H   -0.454407   0.604809
    33  H   -0.131219   0.409036
    34  H    0.018665   0.216256
 Sum of Mulliken charges =  -1.00000   1.00000

 Dipole moment (field-independent basis, Debye):
    X=              4.8906    Y=              2.0208    Z=              1.3579  Tot=              5.4631
 Quadrupole moment (field-independent basis, Debye-Ang):
   XX=           -155.3035   YY=           -146.8940   ZZ=           -119.6692
   XY=             -5.0342   XZ=              2.7240   YZ=             -2.5525

 Summary of Natural Population Analysis:

                                       Natural Population
                Natural  -----------------------------------------------
    Atom  No    Charge         Core      Valence    Rydberg      Total
 -----------------------------------------------------------------------
      C    1   -0.29081      0.99966     2.28622    0.00493     3.29081
      C    2   -0.08792      0.99962     2.07733    0.01097     3.08792
      N    3   -0.25026      0.99963     2.73921    0.01142     3.75026
      C    4   -0.09144      0.99958     2.08001    0.01185     3.09144
      C    5   -0.01741      0.99957     2.00553    0.01230     3.01741
      O    6   -0.29891      0.99988     3.28936    0.00967     4.29891
      C    7   -0.09363      0.99962     2.08584    0.00817     3.09363
      C    8    0.35607      0.99957     1.62055    0.02381     2.64393
      O    9   -0.33055      0.99988     3.32582    0.00485     4.33055
      C   10   -0.08468      0.99950     2.07135    0.01383     3.08468
      C   11   -0.18368      0.99959     2.17518    0.00890     3.18368
      C   12   -0.19997      0.99959     2.19119    0.00919     3.19997
      C   13   -0.07994      0.99957     2.06751    0.01285     3.07994
      N   14   -0.42695      0.99977     2.91531    0.01188     3.92695
      H   15    0.09648      0.00000     0.40249    0.00104     0.40352
      H   16    0.09818      0.00000     0.40098    0.00084     0.40182
      H   17    0.10476      0.00000     0.39431    0.00093     0.39524
      H   18    0.09522      0.00000     0.40332    0.00146     0.40478
      H   19    0.10657      0.00000     0.39232    0.00111     0.39343
      H   20    0.11036      0.00000     0.38679    0.00285     0.38964
      H   21    0.09390      0.00000     0.40471    0.00139     0.40610
      H   22    0.07572      0.00000     0.42249    0.00179     0.42428
      H   23    0.09599      0.00000     0.40198    0.00203     0.40401
      H   24    0.07688      0.00000     0.42080    0.00232     0.42312
      H   25    0.08020      0.00000     0.41745    0.00235     0.41980
      H   26    0.08972      0.00000     0.40869    0.00159     0.41028
      H   27    0.10157      0.00000     0.39750    0.00093     0.39843
      H   28    0.10684      0.00000     0.39234    0.00082     0.39316
      H   29    0.10483      0.00000     0.39415    0.00103     0.39517
      H   30    0.10604      0.00000     0.39268    0.00128     0.39396
      H   31    0.09684      0.00000     0.40194    0.00122     0.40316
      H   32    0.08178      0.00000     0.41604    0.00219     0.41822
      H   33    0.18084      0.00000     0.31623    0.00293     0.31916
      H   34    0.17738      0.00000     0.31963    0.00299     0.32262
 =======================================================================
   * Total *   -0.00000     13.99505    40.81725    0.18770    55.00000

 Normal termination of Gaussian 16 at Thu Dec 10 11:12:44 2020.
