 Gaussian 16, Revision A.03,

 -----------------------------------------------------------
 # opt freq B3LYP/6-31G(d) empiricaldispersion=gd3bj scf=xqc
 -----------------------------------------------------------

 ------------------------------
 CID_81317214_JID_8938_neutraal
 ------------------------------
 Symbolic Z-matrix:
 Charge =  0 Multiplicity = 1

 SCF Done:  E(RB3LYP) =  -815.357221104     A.U. after   15 cycles
 SCF Done:  E(RB3LYP) =  -815.362976868     A.U. after   13 cycles
 SCF Done:  E(RB3LYP) =  -815.363402920     A.U. after   12 cycles
 SCF Done:  E(RB3LYP) =  -815.363608729     A.U. after   11 cycles
 SCF Done:  E(RB3LYP) =  -815.363692410     A.U. after   11 cycles
 SCF Done:  E(RB3LYP) =  -815.363694142     A.U. after   10 cycles
 SCF Done:  E(RB3LYP) =  -815.363718711     A.U. after   10 cycles
 SCF Done:  E(RB3LYP) =  -815.363725247     A.U. after   10 cycles
 SCF Done:  E(RB3LYP) =  -815.363728188     A.U. after   10 cycles
 SCF Done:  E(RB3LYP) =  -815.363731788     A.U. after   10 cycles
 SCF Done:  E(RB3LYP) =  -815.363744482     A.U. after    9 cycles
 SCF Done:  E(RB3LYP) =  -815.363744826     A.U. after    9 cycles
 SCF Done:  E(RB3LYP) =  -815.363745171     A.U. after    9 cycles
 SCF Done:  E(RB3LYP) =  -815.363745295     A.U. after    7 cycles
 SCF Done:  E(RB3LYP) =  -815.363745310     A.U. after    7 cycles
 Optimization completed.
    -- Stationary point found.
 Normal termination of Gaussian 16 at Fri Dec 11 23:10:38 2020.

 --------------------------------------------------------------------
 #N Geom=AllCheck Guess=TCheck SCRF=Check GenChk RB3LYP/6-31G(d) Freq
 --------------------------------------------------------------------

 Structure from the checkpoint file:  "JID_8938.chk"
 ------------------------------
 CID_81317214_JID_8938_neutraal
 ------------------------------
 Charge =  0 Multiplicity = 1

 SCF Done:  E(RB3LYP) =  -815.363745310     A.U. after    1 cycles

  Exact polarizability: 215.940 -12.981 170.345   5.936  -4.859  92.056
 Approx polarizability: 281.982 -20.848 300.933   6.731  -6.936 146.943

                      1                      2                      3
                      A                      A                      A
 Frequencies --     12.4783                24.0463                30.7946
 Red. masses --      4.3540                 4.0341                 5.1821
 Frc consts  --      0.0004                 0.0014                 0.0029
 IR Inten    --      4.0875                 2.5495                 1.4148

                      4                      5                      6
                      A                      A                      A
 Frequencies --     44.8057                64.1534                97.5915
 Red. masses --      1.0666                 5.7511                 5.1690
 Frc consts  --      0.0013                 0.0139                 0.0290
 IR Inten    --      0.1063                 2.8874                 0.9914

                      7                      8                      9
                      A                      A                      A
 Frequencies --    110.9585               129.2794               173.4584
 Red. masses --      6.4104                 5.9345                 2.8209
 Frc consts  --      0.0465                 0.0584                 0.0500
 IR Inten    --      0.1987                 1.6975                 3.6681

                     10                     11                     12
                      A                      A                      A
 Frequencies --    192.2571               224.1227               238.2435
 Red. masses --      3.3610                 4.6909                 4.8007
 Frc consts  --      0.0732                 0.1388                 0.1605
 IR Inten    --      0.3393                 6.4104                 5.1081

                     13                     14                     15
                      A                      A                      A
 Frequencies --    297.6107               318.2686               324.6457
 Red. masses --      4.4601                 1.0656                 2.1722
 Frc consts  --      0.2328                 0.0636                 0.1349
 IR Inten    --      4.5459                21.0269                 0.6334

                     16                     17                     18
                      A                      A                      A
 Frequencies --    369.3139               385.4089               420.7311
 Red. masses --      6.9045                 3.6030                 2.9477
 Frc consts  --      0.5548                 0.3153                 0.3074
 IR Inten    --      0.3913                 7.0670                 2.7228

                     19                     20                     21
                      A                      A                      A
 Frequencies --    427.1506               458.2982               503.5783
 Red. masses --      3.5540                 3.1298                 2.2949
 Frc consts  --      0.3821                 0.3873                 0.3429
 IR Inten    --      3.5165                 4.9398                98.2656

                     22                     23                     24
                      A                      A                      A
 Frequencies --    569.0030               593.4432               604.1191
 Red. masses --      2.5137                 2.5883                 5.5144
 Frc consts  --      0.4795                 0.5371                 1.1858
 IR Inten    --    319.0361                71.5019                 5.3174

                     25                     26                     27
                      A                      A                      A
 Frequencies --    634.3294               645.3958               660.1470
 Red. masses --      4.0652                 3.2750                 3.8772
 Frc consts  --      0.9638                 0.8037                 0.9955
 IR Inten    --      1.5369                 3.1322                 6.3713

                     28                     29                     30
                      A                      A                      A
 Frequencies --    671.2372               709.8614               712.6692
 Red. masses --      2.4552                 1.4830                 3.0583
 Frc consts  --      0.6518                 0.4403                 0.9152
 IR Inten    --     12.2980                21.4056                26.2303

                     31                     32                     33
                      A                      A                      A
 Frequencies --    721.4115               737.5630               747.5350
 Red. masses --      3.6471                 1.9655                 3.3225
 Frc consts  --      1.1183                 0.6300                 1.0939
 IR Inten    --     10.7390                66.5500                 1.7581

                     34                     35                     36
                      A                      A                      A
 Frequencies --    794.4937               843.0016               862.3295
 Red. masses --      5.8772                 1.2944                 4.0505
 Frc consts  --      2.1858                 0.5420                 1.7746
 IR Inten    --     24.6684                 5.2190                 3.8265

                     37                     38                     39
                      A                      A                      A
 Frequencies --    867.1551               902.8998               908.4507
 Red. masses --      1.7824                 1.4040                 2.3910
 Frc consts  --      0.7897                 0.6744                 1.1626
 IR Inten    --     21.8607                 4.7075                27.0659

                     40                     41                     42
                      A                      A                      A
 Frequencies --    939.2912               987.9867               997.1066
 Red. masses --      5.5039                 2.2204                 1.3117
 Frc consts  --      2.8610                 1.2770                 0.7684
 IR Inten    --      5.6771                 3.0179                 0.6493

                     43                     44                     45
                      A                      A                      A
 Frequencies --   1040.8314              1050.7462              1071.1391
 Red. masses --      2.9941                 1.9915                 1.7727
 Frc consts  --      1.9111                 1.2955                 1.1984
 IR Inten    --     10.5152                18.2680                 1.8918

                     46                     47                     48
                      A                      A                      A
 Frequencies --   1101.1211              1112.0926              1117.4779
 Red. masses --      1.4830                 1.3031                 2.5342
 Frc consts  --      1.0594                 0.9496                 1.8645
 IR Inten    --      7.3034                13.2715                11.5950

                     49                     50                     51
                      A                      A                      A
 Frequencies --   1158.2203              1159.6209              1179.6046
 Red. masses --      1.3002                 1.2775                 2.1104
 Frc consts  --      1.0277                 1.0122                 1.7302
 IR Inten    --      0.5131                30.8799                12.1614

                     52                     53                     54
                      A                      A                      A
 Frequencies --   1209.0316              1224.4014              1254.3425
 Red. masses --      2.5102                 2.9563                 1.3174
 Frc consts  --      2.1619                 2.6112                 1.2213
 IR Inten    --     11.1330                11.5442                12.9054

                     55                     56                     57
                      A                      A                      A
 Frequencies --   1281.6116              1325.0069              1326.6012
 Red. masses --      1.4518                 1.9551                 2.3821
 Frc consts  --      1.4049                 2.0223                 2.4699
 IR Inten    --     11.6846                14.2101                18.7850

                     58                     59                     60
                      A                      A                      A
 Frequencies --   1337.8821              1347.1258              1371.7905
 Red. masses --      2.3983                 4.2701                 1.4403
 Frc consts  --      2.5293                 4.5656                 1.5970
 IR Inten    --    117.4265                 1.1306                 5.8787

                     61                     62                     63
                      A                      A                      A
 Frequencies --   1375.0096              1400.7235              1430.9601
 Red. masses --      1.3538                 3.8968                 3.8885
 Frc consts  --      1.5081                 4.5047                 4.6912
 IR Inten    --     45.2972                13.6888               378.9728

                     64                     65                     66
                      A                      A                      A
 Frequencies --   1462.4190              1469.5742              1496.6638
 Red. masses --      1.6768                 2.9464                 1.4230
 Frc consts  --      2.1129                 3.7491                 1.8781
 IR Inten    --     29.3308                49.2091                 5.8555

                     67                     68                     69
                      A                      A                      A
 Frequencies --   1508.5156              1515.7516              1525.4994
 Red. masses --      1.6829                 1.0597                 1.3406
 Frc consts  --      2.2563                 1.4344                 1.8381
 IR Inten    --     19.6651                10.3580                23.3774

                     70                     71                     72
                      A                      A                      A
 Frequencies --   1532.8796              1539.2223              1542.6429
 Red. masses --      1.6918                 1.7998                 1.7712
 Frc consts  --      2.3422                 2.5123                 2.4834
 IR Inten    --     78.8427                10.1781                 1.7709

                     73                     74                     75
                      A                      A                      A
 Frequencies --   1547.6789              1576.5584              1619.4201
 Red. masses --      1.6867                 4.1015                 6.0863
 Frc consts  --      2.3803                 6.0064                 9.4042
 IR Inten    --     57.3995                10.2564                14.0966

                     76                     77                     78
                      A                      A                      A
 Frequencies --   1653.2031              1693.8369              1749.2860
 Red. masses --      4.2273                 1.2444                 6.8514
 Frc consts  --      6.8072                 2.1035                12.3524
 IR Inten    --     49.4126               122.1507               342.5369

                     79                     80                     81
                      A                      A                      A
 Frequencies --   3035.9748              3063.0693              3072.0730
 Red. masses --      1.0729                 1.0358                 1.0593
 Frc consts  --      5.8266                 5.7259                 5.8903
 IR Inten    --     32.2681                25.9476                26.5456

                     82                     83                     84
                      A                      A                      A
 Frequencies --   3118.2348              3124.6151              3130.8031
 Red. masses --      1.1026                 1.1060                 1.0927
 Frc consts  --      6.3165                 6.3622                 6.3106
 IR Inten    --     17.2405                17.7890                25.6529

                     85                     86                     87
                      A                      A                      A
 Frequencies --   3142.0021              3163.9849              3182.5436
 Red. masses --      1.0895                 1.1023                 1.0905
 Frc consts  --      6.3370                 6.5017                 6.5075
 IR Inten    --     40.0755                10.3810                21.4073

                     88                     89                     90
                      A                      A                      A
 Frequencies --   3247.1006              3264.2255              3289.2379
 Red. masses --      1.0924                 1.0910                 1.1047
 Frc consts  --      6.7862                 6.8494                 7.0418
 IR Inten    --      1.1346                 6.1533                 5.7692

                     91                     92                     93
                      A                      A                      A
 Frequencies --   3501.5312              3559.5027              3659.4314
 Red. masses --      1.0769                 1.0474                 1.0992
 Frc consts  --      7.7797                 7.8191                 8.6723
 IR Inten    --    227.4357                25.2629                12.5134

 - Thermochemistry -
 -------------------
 Temperature   298.150 Kelvin.  Pressure   1.00000 Atm.
 Atom     1 has atomic number  6 and mass  12.00000

 Molecular mass:   245.12766 amu.
 Principal axes and moments of inertia in atomic units:
                           1         2         3
     Eigenvalues --  1810.58795********************
           X            0.99998   0.00519   0.00245
           Y           -0.00517   0.99997  -0.00631
           Z           -0.00248   0.00629   0.99998
 This molecule is an asymmetric top.
 Rotational symmetry number  1.
 Warning -- assumption of classical behavior for rotation
           may cause significant error
 Rotational temperatures (Kelvin)      0.04784     0.00856     0.00766
 Rotational constants (GHZ):           0.99677     0.17832     0.15962
 Zero-point vibrational energy     710698.1 (Joules/Mol)
                                  169.86093 (Kcal/Mol)
 Warning -- explicit consideration of  24 degrees of freedom as
           vibrations may cause significant error
 Vibrational temperatures:     17.95    34.60    44.31    64.47    92.30
          (Kelvin)            140.41   159.64   186.00   249.57   276.62
                              322.46   342.78   428.20   457.92   467.09
                              531.36   554.52   605.34   614.57   659.39
                              724.54   818.67   853.83   869.19   912.66
                              928.58   949.80   965.76  1021.33  1025.37
                             1037.95  1061.19  1075.54  1143.10  1212.89
                             1240.70  1247.64  1299.07  1307.06  1351.43
                             1421.49  1434.61  1497.52  1511.79  1541.13
                             1584.27  1600.05  1607.80  1666.42  1668.44
                             1697.19  1739.53  1761.64  1804.72  1843.95
                             1906.39  1908.68  1924.91  1938.21  1973.70
                             1978.33  2015.33  2058.83  2104.09  2114.39
                             2153.37  2170.42  2180.83  2194.85  2205.47
                             2214.60  2219.52  2226.76  2268.32  2329.98
                             2378.59  2437.05  2516.83  4368.09  4407.07
                             4420.03  4486.44  4495.62  4504.53  4520.64
                             4552.27  4578.97  4671.85  4696.49  4732.48
                             5037.92  5121.33  5265.11

 Zero-point correction=                           0.270691 (Hartree/Particle)
 Thermal correction to Energy=                    0.287571
 Thermal correction to Enthalpy=                  0.288515
 Thermal correction to Gibbs Free Energy=         0.222476
 Sum of electronic and zero-point Energies=           -815.093055
 Sum of electronic and thermal Energies=              -815.076174
 Sum of electronic and thermal Enthalpies=            -815.075230
 Sum of electronic and thermal Free Energies=         -815.141269

                     E (Thermal)             CV                S
                      KCal/Mol        Cal/Mol-Kelvin    Cal/Mol-Kelvin
 Total                  180.453             62.782            138.991
 Electronic               0.000              0.000              0.000
 Translational            0.889              2.981             42.391
 Rotational               0.889              2.981             33.693
 Vibrational            178.676             56.821             62.907
 Vibration     1          0.593              1.987              7.571
 Vibration     2          0.593              1.985              6.268
 Vibration     3          0.594              1.984              5.778
 Vibration     4          0.595              1.979              5.034
 Vibration     5          0.597              1.971              4.325
 Vibration     6          0.603              1.951              3.502
 Vibration     7          0.607              1.940              3.252
 Vibration     8          0.612              1.924              2.957
 Vibration     9          0.627              1.875              2.398
 Vibration    10          0.634              1.851              2.206
 Vibration    11          0.649              1.804              1.926
 Vibration    12          0.656              1.782              1.816
 Vibration    13          0.691              1.678              1.430
 Vibration    14          0.705              1.639              1.319
 Vibration    15          0.709              1.626              1.287
 Vibration    16          0.742              1.535              1.083
 Vibration    17          0.754              1.501              1.018
 Vibration    18          0.783              1.425              0.889
 Vibration    19          0.789              1.411              0.868
 Vibration    20          0.816              1.343              0.771
 Vibration    21          0.859              1.242              0.649
 Vibration    22          0.925              1.098              0.506
 Vibration    23          0.951              1.046              0.461
 Vibration    24          0.963              1.023              0.443

 Optimization completed.
    -- Stationary point found.
 Normal termination of Gaussian 16 at Fri Dec 11 23:21:21 2020.

 ----------------------------------------------------------------------
 # B3LYP/6-311++G(d,p) empiricaldispersion=gd3bj scf=xqc pop=npa geom=c
 heck
 ----------------------------------------------------------------------

 --------------------------------------
 CID_81317214_JID_8938_Energie_neutraal
 --------------------------------------
 Structure from the checkpoint file:  "JID_8938.chk"
 Charge =  0 Multiplicity = 1

 SCF Done:  E(RB3LYP) =  -815.593385287     A.U. after   16 cycles
 Normal termination of Gaussian 16 at Fri Dec 11 23:26:14 2020.

 ----------------------------------------------------------------------
 # B3LYP/6-311++G(d,p) empiricaldispersion=gd3bj scf=xqc pop=npa geom=c
 heck
 ----------------------------------------------------------------------

 ------------------------------------
 CID_81317214_JID_8938_Energie_kation
 ------------------------------------
 Structure from the checkpoint file:  "JID_8938.chk"
 Charge =  1 Multiplicity = 2

 SCF Done:  E(UB3LYP) =  -815.312494522     A.U. after   29 cycles
 Normal termination of Gaussian 16 at Fri Dec 11 23:38:18 2020.
 Gaussian 16:  ES64L-G16RevA.03 25-Dec-2016

 ----------------------------------------------------------------------
 # B3LYP/6-311++G(d,p) empiricaldispersion=gd3bj scf=xqc pop=npa geom=c
 heck
 ----------------------------------------------------------------------

 -----------------------------------
 CID_81317214_JID_8938_Energie_anion
 -----------------------------------
 Structure from the checkpoint file:  "JID_8938.chk"
 Charge = -1 Multiplicity = 2

                         Standard orientation:
 ---------------------------------------------------------------------
 Center     Atomic      Atomic             Coordinates (Angstroms)
 Number     Number       Type             X           Y           Z
 ---------------------------------------------------------------------
      1          6           0       -3.842272   -2.315797   -0.504303
      2          7           0       -3.878613   -0.871120   -0.356776
      3          6           0       -4.663035    0.005121   -1.087860
      4          6           0       -4.349231    1.257747   -0.628141
      5          7           0       -3.399516    1.177051    0.365647
      6          6           0       -3.136142   -0.112495    0.512089
      7          6           0       -2.079755   -0.655407    1.419686
      8          6           0       -0.669592   -0.575575    0.801538
      9          7           0       -0.366471    0.812158    0.485546
     10          6           0        0.797743    1.422327    0.122276
     11          8           0        0.820413    2.631958   -0.116780
     12          6           0        2.071707    0.629986    0.015832
     13          7           0        2.065978   -0.708725    0.103215
     14          6           0        3.216426   -1.363930   -0.019826
     15          6           0        4.456916   -0.736436   -0.238246
     16          6           0        4.453808    0.664745   -0.330151
     17          6           0        3.255380    1.347587   -0.206032
     18          7           0        5.615727   -1.481229   -0.411114
     19          1           0       -4.114982   -2.811297    0.432868
     20          1           0       -4.558679   -2.609060   -1.273399
     21          1           0       -2.845928   -2.652375   -0.807614
     22          1           0       -5.355788   -0.349466   -1.836220
     23          1           0       -4.750597    2.209039   -0.948479
     24          1           0       -2.095800   -0.071228    2.345261
     25          1           0       -2.285569   -1.698251    1.684162
     26          1           0        0.060537   -0.974038    1.507843
     27          1           0       -0.615274   -1.209528   -0.093447
     28          1           0       -1.166858    1.440289    0.434489
     29          1           0        3.169107   -2.451205    0.052883
     30          1           0        5.384232    1.200854   -0.502455
     31          1           0        3.198558    2.426916   -0.277014
     32          1           0        5.600132   -2.413351   -0.017362
     33          1           0        6.482140   -0.997138   -0.214071
 ---------------------------------------------------------------------

 SCF Done:  E(UB3LYP) =  -815.592368356     A.U. after   33 cycles
 SCF Done:  E(UB3LYP) =  -815.592368356     a.u. after    1 cycles

 The electronic state is 2-A.
 Alpha  occ. eigenvalues --  -18.97046 -14.29101 -14.23115 -14.22397 -14.20960
 Alpha  occ. eigenvalues --  -14.20959 -10.16048 -10.14468 -10.13370 -10.12419
 Alpha  occ. eigenvalues --  -10.11584 -10.11358 -10.10424 -10.10176 -10.10063
 Alpha  occ. eigenvalues --  -10.10010 -10.08564 -10.08174  -0.93842  -0.92410
 Alpha  occ. eigenvalues --   -0.85334  -0.82270  -0.81430  -0.80378  -0.70696
 Alpha  occ. eigenvalues --   -0.69643  -0.65811  -0.65221  -0.62815  -0.55979
 Alpha  occ. eigenvalues --   -0.54798  -0.54071  -0.52240  -0.48466  -0.47324
 Alpha  occ. eigenvalues --   -0.44443  -0.43709  -0.42582  -0.40869  -0.40180
 Alpha  occ. eigenvalues --   -0.38107  -0.37068  -0.36702  -0.36203  -0.35137
 Alpha  occ. eigenvalues --   -0.34068  -0.32887  -0.32826  -0.32417  -0.31586
 Alpha  occ. eigenvalues --   -0.30747  -0.29968  -0.29784  -0.29056  -0.27427
 Alpha  occ. eigenvalues --   -0.27245  -0.23873  -0.19433  -0.19283  -0.18545
 Alpha  occ. eigenvalues --   -0.16970  -0.15054  -0.14494  -0.14151  -0.12535
 Alpha  occ. eigenvalues --    0.03132
 Alpha virt. eigenvalues --    0.04328   0.05426   0.06469   0.06897   0.07349
 Alpha virt. eigenvalues --    0.07704   0.07837   0.09018   0.09289   0.10082
 Alpha virt. eigenvalues --    0.10684   0.10884   0.11611   0.11878   0.12296

  Beta  occ. eigenvalues --  -18.96992 -14.29099 -14.23040 -14.22390 -14.20960
  Beta  occ. eigenvalues --  -14.20838 -10.16017 -10.14467 -10.13310 -10.12327
  Beta  occ. eigenvalues --  -10.11574 -10.11353 -10.10441 -10.10175 -10.10053
  Beta  occ. eigenvalues --  -10.09961 -10.08531 -10.08184  -0.93836  -0.92319
  Beta  occ. eigenvalues --   -0.85181  -0.82151  -0.81374  -0.80363  -0.70679
  Beta  occ. eigenvalues --   -0.69541  -0.65699  -0.65157  -0.62772  -0.55908
  Beta  occ. eigenvalues --   -0.54651  -0.54022  -0.52225  -0.48396  -0.47278
  Beta  occ. eigenvalues --   -0.44391  -0.43645  -0.42478  -0.40800  -0.40146
  Beta  occ. eigenvalues --   -0.38066  -0.37032  -0.36619  -0.36173  -0.35095
  Beta  occ. eigenvalues --   -0.34031  -0.32835  -0.32698  -0.32290  -0.31500
  Beta  occ. eigenvalues --   -0.30676  -0.29932  -0.29640  -0.29025  -0.27370
  Beta  occ. eigenvalues --   -0.27097  -0.23509  -0.19425  -0.19273  -0.18321
  Beta  occ. eigenvalues --   -0.16857  -0.14999  -0.14364  -0.14085  -0.12225
  Beta virt. eigenvalues --    0.05488   0.05973   0.06277   0.06914   0.07023
  Beta virt. eigenvalues --    0.07824   0.07953   0.08195   0.09227   0.09561
  Beta virt. eigenvalues --    0.10363   0.10867   0.11157   0.11698   0.12071

 Mulliken charges and spin densities:
               1          2
     1  C    1.095628  -1.436897
     2  N   -0.070347   0.182204
     3  C   -0.061664   0.137464
     4  C    0.159922  -0.258716
     5  N   -0.080163   0.017817
     6  C   -0.562181   0.331316
     7  C   -0.410926  -0.730127
     8  C   -0.254827   0.145605
     9  N   -0.158489   0.001788
    10  C    0.172960  -0.271791
    11  O   -0.371070   0.018337
    12  C    0.341960  -0.204166
    13  N    0.055120   0.064753
    14  C   -0.102503   0.047056
    15  C    0.396456  -0.591609
    16  C   -0.303618   0.019750
    17  C   -0.222981   0.153959
    18  N   -0.274158  -0.050738
    19  H   -0.327761   0.516476
    20  H   -0.534524   0.684786
    21  H   -0.226780   0.408897
    22  H   -0.149309   0.313068
    23  H    0.149624  -0.000035
    24  H    0.166887   0.042516
    25  H    0.083043   0.069633
    26  H    0.204883   0.029494
    27  H    0.312629  -0.090128
    28  H    0.403791  -0.019324
    29  H   -0.212554   0.376190
    30  H   -0.029372   0.187025
    31  H    0.200420   0.019684
    32  H   -0.134082   0.379224
    33  H   -0.256015   0.506488
 Sum of Mulliken charges =  -1.00000   1.00000

 Dipole moment (field-independent basis, Debye):
    X=             -3.2717    Y=              1.6036    Z=              1.1380  Tot=              3.8172
 Quadrupole moment (field-independent basis, Debye-Ang):
   XX=           -215.7579   YY=           -158.9772   ZZ=           -127.6038
   XY=             -0.5965   XZ=             -1.2039   YZ=             -5.5659

 Summary of Natural Population Analysis:

                                       Natural Population
                Natural  -----------------------------------------------
    Atom  No    Charge         Core      Valence    Rydberg      Total
 -----------------------------------------------------------------------
      C    1   -0.17460      0.99964     2.16707    0.00789     3.17460
      N    2   -0.20648      0.99961     2.69651    0.01036     3.70648
      C    3   -0.03714      0.99955     2.02581    0.01178     3.03714
      C    4   -0.03356      0.99958     2.02127    0.01270     3.03356
      N    5   -0.26794      0.99969     2.75963    0.00862     3.76794
      C    6    0.19499      0.99960     1.78699    0.01842     2.80501
      C    7   -0.21760      0.99959     2.20917    0.00884     3.21760
      C    8   -0.07877      0.99962     2.06882    0.01033     3.07877
      N    9   -0.32264      0.99966     2.81436    0.00862     3.82264
      C   10    0.33185      0.99963     1.64727    0.02125     2.66815
      O   11   -0.32964      0.99988     3.32457    0.00519     4.32964
      C   12    0.04225      0.99949     1.94510    0.01316     2.95775
      N   13   -0.21097      0.99968     2.70053    0.01076     3.71097
      C   14   -0.00218      0.99955     1.98813    0.01450     3.00218
      C   15    0.08558      0.99949     1.90378    0.01115     2.91442
      C   16   -0.11036      0.99953     2.10091    0.00992     3.11036
      C   17   -0.09137      0.99954     2.08340    0.00843     3.09137
      N   18   -0.39017      0.99971     2.88004    0.01042     3.89017
      H   19    0.10164      0.00000     0.39673    0.00163     0.39836
      H   20    0.10628      0.00000     0.39171    0.00201     0.39372
      H   21    0.10294      0.00000     0.39571    0.00135     0.39706
      H   22    0.10346      0.00000     0.39568    0.00087     0.39654
      H   23    0.09688      0.00000     0.40233    0.00079     0.40312
      H   24    0.11167      0.00000     0.38709    0.00123     0.38833
      H   25    0.10868      0.00000     0.39041    0.00091     0.39132
      H   26    0.10585      0.00000     0.39297    0.00118     0.39415
      H   27    0.09433      0.00000     0.40418    0.00149     0.40567
      H   28    0.20548      0.00000     0.29132    0.00320     0.29452
      H   29    0.08719      0.00000     0.41156    0.00125     0.41281
      H   30    0.09991      0.00000     0.39928    0.00081     0.40009
      H   31    0.11607      0.00000     0.38286    0.00107     0.38393
      H   32    0.18890      0.00000     0.30727    0.00383     0.31110
      H   33    0.18946      0.00000     0.30522    0.00532     0.31054
 =======================================================================
   * Total *   -0.00000     17.99305    46.77767    0.22929    65.00000

 Normal termination of Gaussian 16 at Fri Dec 11 23:52:11 2020.
