 Gaussian 16, Revision A.03,

 -----------------------------------------------------------
 # opt freq B3LYP/6-31G(d) empiricaldispersion=gd3bj scf=xqc
 -----------------------------------------------------------

 -------------------------------
 CID_103551233_JID_7440_neutraal
 -------------------------------
 Symbolic Z-matrix:
 Charge =  0 Multiplicity = 1

 SCF Done:  E(RB3LYP) =  -854.088911337     A.U. after   15 cycles
 SCF Done:  E(RB3LYP) =  -854.095867847     A.U. after   13 cycles
 SCF Done:  E(RB3LYP) =  -854.096972198     A.U. after   12 cycles
 SCF Done:  E(RB3LYP) =  -854.097361293     A.U. after   12 cycles
 SCF Done:  E(RB3LYP) =  -854.097641000     A.U. after   11 cycles
 SCF Done:  E(RB3LYP) =  -854.097750843     A.U. after   11 cycles
 SCF Done:  E(RB3LYP) =  -854.097793296     A.U. after   11 cycles
 SCF Done:  E(RB3LYP) =  -854.097834294     A.U. after   10 cycles
 SCF Done:  E(RB3LYP) =  -854.097864544     A.U. after   11 cycles
 SCF Done:  E(RB3LYP) =  -854.097882000     A.U. after   11 cycles
 SCF Done:  E(RB3LYP) =  -854.097944920     A.U. after   10 cycles
 SCF Done:  E(RB3LYP) =  -854.097946018     A.U. after    9 cycles
 SCF Done:  E(RB3LYP) =  -854.097946679     A.U. after   10 cycles
 SCF Done:  E(RB3LYP) =  -854.097947470     A.U. after    9 cycles
 SCF Done:  E(RB3LYP) =  -854.097947489     A.U. after    8 cycles
 Optimization completed.
    -- Stationary point found.
 Normal termination of Gaussian 16 at Fri Dec 11 12:09:26 2020.

 --------------------------------------------------------------------
 #N Geom=AllCheck Guess=TCheck SCRF=Check GenChk RB3LYP/6-31G(d) Freq
 --------------------------------------------------------------------

 Structure from the checkpoint file:  "JID_7440.chk"
 -------------------------------
 CID_103551233_JID_7440_neutraal
 -------------------------------
 Charge =  0 Multiplicity = 1

 SCF Done:  E(RB3LYP) =  -854.097947489     A.U. after    1 cycles

  Exact polarizability: 154.287 -12.463 138.856  -2.177  -6.441  94.228
 Approx polarizability: 206.264 -17.850 223.922  -5.895 -15.961 143.746

                      1                      2                      3
                      A                      A                      A
 Frequencies --     17.8850                31.4198                37.1683
 Red. masses --      6.0035                 6.9129                11.3526
 Frc consts  --      0.0011                 0.0040                 0.0092
 IR Inten    --      0.6100                 0.1375                 1.3099

                      4                      5                      6
                      A                      A                      A
 Frequencies --     60.8518                78.4684                84.6520
 Red. masses --      4.1116                 4.2395                 6.2893
 Frc consts  --      0.0090                 0.0154                 0.0266
 IR Inten    --      0.3138                 0.2077                 0.7617

                      7                      8                      9
                      A                      A                      A
 Frequencies --    132.4559               142.0458               169.4560
 Red. masses --      3.2457                 1.1159                 4.2473
 Frc consts  --      0.0336                 0.0133                 0.0719
 IR Inten    --      0.4338                 0.1831                 0.6853

                     10                     11                     12
                      A                      A                      A
 Frequencies --    213.7878               256.1485               263.7347
 Red. masses --      4.3675                 3.2698                 3.3265
 Frc consts  --      0.1176                 0.1264                 0.1363
 IR Inten    --      3.1271                 0.3161                 7.3569

                     13                     14                     15
                      A                      A                      A
 Frequencies --    270.9287               305.1197               359.9171
 Red. masses --      3.6280                 3.7903                 6.4782
 Frc consts  --      0.1569                 0.2079                 0.4944
 IR Inten    --      6.5986                 3.2293                 0.8996

                     16                     17                     18
                      A                      A                      A
 Frequencies --    374.3585               403.5642               425.6399
 Red. masses --      3.8611                 5.6814                 7.0650
 Frc consts  --      0.3188                 0.5452                 0.7541
 IR Inten    --      7.0464                 1.0843                 8.1112

                     19                     20                     21
                      A                      A                      A
 Frequencies --    515.9570               595.0935               615.0971
 Red. masses --      2.5886                 3.2364                 1.3252
 Frc consts  --      0.4060                 0.6753                 0.2954
 IR Inten    --      6.2415                46.8354                79.5778

                     22                     23                     24
                      A                      A                      A
 Frequencies --    627.5378               643.8731               659.1371
 Red. masses --      1.4610                 4.6162                 3.2743
 Frc consts  --      0.3390                 1.1276                 0.8381
 IR Inten    --     37.3720                19.3891                 1.0290

                     25                     26                     27
                      A                      A                      A
 Frequencies --    664.9522               684.1598               730.6329
 Red. masses --      2.4747                 4.5482                 3.9026
 Frc consts  --      0.6447                 1.2543                 1.2274
 IR Inten    --     16.9059                17.6931                69.4685

                     28                     29                     30
                      A                      A                      A
 Frequencies --    751.5847               776.9617               784.6785
 Red. masses --      8.0060                 3.2858                 3.9644
 Frc consts  --      2.6645                 1.1687                 1.4382
 IR Inten    --      2.0481                17.5863                 6.8291

                     31                     32                     33
                      A                      A                      A
 Frequencies --    837.0946               865.5519               893.4565
 Red. masses --      3.6954                 2.6149                 4.1027
 Frc consts  --      1.5257                 1.1542                 1.9296
 IR Inten    --      8.4343                 4.2155                 7.3444

                     34                     35                     36
                      A                      A                      A
 Frequencies --    898.3062               950.4978               966.1268
 Red. masses --      6.8654                 2.7398                 1.6871
 Frc consts  --      3.2641                 1.4584                 0.9278
 IR Inten    --      5.2473                 6.6502                20.7304

                     37                     38                     39
                      A                      A                      A
 Frequencies --    976.4232               991.8680              1010.5650
 Red. masses --      2.7791                 2.3944                 2.6334
 Frc consts  --      1.5611                 1.3879                 1.5845
 IR Inten    --      7.6964                 1.5214                 4.8216

                     40                     41                     42
                      A                      A                      A
 Frequencies --   1046.9402              1058.5076              1071.4446
 Red. masses --      1.7838                 2.6129                 3.1774
 Frc consts  --      1.1520                 1.7249                 2.1491
 IR Inten    --      0.8942                 3.5432                 4.4977

                     43                     44                     45
                      A                      A                      A
 Frequencies --   1083.9161              1094.3749              1109.8307
 Red. masses --      1.5506                 2.4180                 6.6510
 Frc consts  --      1.0734                 1.7062                 4.8267
 IR Inten    --      4.0426                20.6028                14.2911

                     46                     47                     48
                      A                      A                      A
 Frequencies --   1144.0517              1203.9859              1224.5588
 Red. masses --      1.9573                 2.5248                 1.6181
 Frc consts  --      1.5094                 2.1564                 1.4296
 IR Inten    --    129.6639               129.8597                68.6675

                     49                     50                     51
                      A                      A                      A
 Frequencies --   1244.8606              1250.9992              1277.3258
 Red. masses --      1.3264                 1.6444                 2.2267
 Frc consts  --      1.2111                 1.5163                 2.1405
 IR Inten    --     47.6986                26.6096               155.6238

                     52                     53                     54
                      A                      A                      A
 Frequencies --   1299.7235              1322.8188              1337.6596
 Red. masses --      1.2865                 1.2501                 1.3626
 Frc consts  --      1.2804                 1.2889                 1.4365
 IR Inten    --     12.2557                 7.9690                17.8333

                     55                     56                     57
                      A                      A                      A
 Frequencies --   1348.9278              1357.4861              1375.6011
 Red. masses --      1.3245                 1.4440                 1.7091
 Frc consts  --      1.4200                 1.5678                 1.9055
 IR Inten    --     13.1716                27.3011               101.8595

                     58                     59                     60
                      A                      A                      A
 Frequencies --   1381.8967              1385.4669              1438.2521
 Red. masses --      1.9403                 2.3563                 1.6877
 Frc consts  --      2.1831                 2.6648                 2.0569
 IR Inten    --      9.8398                90.6647                59.1319

                     61                     62                     63
                      A                      A                      A
 Frequencies --   1448.0968              1499.6684              1503.8597
 Red. masses --      1.5855                 1.2688                 1.0437
 Frc consts  --      1.9589                 1.6813                 1.3907
 IR Inten    --     33.5077                18.4060                 9.0400

                     64                     65                     66
                      A                      A                      A
 Frequencies --   1518.1882              1521.3403              1529.1186
 Red. masses --      1.0874                 1.0831                 2.1268
 Frc consts  --      1.4767                 1.4770                 2.9299
 IR Inten    --      2.2499                 5.7145               172.7525

                     67                     68                     69
                      A                      A                      A
 Frequencies --   1538.2871              1615.3633              1661.6355
 Red. masses --      1.1080                 4.7833                10.8751
 Frc consts  --      1.5447                 7.3539                17.6912
 IR Inten    --      2.0776               102.3249               348.2817

                     70                     71                     72
                      A                      A                      A
 Frequencies --   1812.5326              1848.5968              3068.8387
 Red. masses --      9.1037                 9.5163                 1.0661
 Frc consts  --     17.6213                19.1604                 5.9156
 IR Inten    --    294.7055               324.1999                22.8466

                     73                     74                     75
                      A                      A                      A
 Frequencies --   3069.3961              3083.9405              3086.1201
 Red. masses --      1.0368                 1.0663                 1.0638
 Frc consts  --      5.7550                 5.9752                 5.9697
 IR Inten    --      7.8469                15.9206                12.0615

                     76                     77                     78
                      A                      A                      A
 Frequencies --   3097.4576              3118.7474              3125.2722
 Red. masses --      1.0793                 1.0946                 1.0928
 Frc consts  --      6.1008                 6.2728                 6.2886
 IR Inten    --      2.6701                16.1638                 9.7735

                     79                     80                     81
                      A                      A                      A
 Frequencies --   3129.6250              3138.3248              3155.3066
 Red. masses --      1.1015                 1.1041                 1.1014
 Frc consts  --      6.3566                 6.4071                 6.4604
 IR Inten    --      6.6619                21.9563                11.1441

                     82                     83                     84
                      A                      A                      A
 Frequencies --   3168.0471              3585.4243              3692.1136
 Red. masses --      1.1024                 1.0763                 1.0642
 Frc consts  --      6.5192                 8.1519                 8.5469
 IR Inten    --      5.5588                67.1315                55.6199

 - Thermochemistry -
 -------------------
 Temperature   298.150 Kelvin.  Pressure   1.00000 Atm.
 Atom     1 has atomic number  6 and mass  12.00000

 Molecular mass:   239.09061 amu.
 Principal axes and moments of inertia in atomic units:
                           1         2         3
     Eigenvalues --  2322.697057144.811808463.98392
           X            0.99978  -0.02105  -0.00198
           Y            0.02102   0.99971  -0.01195
           Z            0.00223   0.01190   0.99993
 This molecule is an asymmetric top.
 Rotational symmetry number  1.
 Warning -- assumption of classical behavior for rotation
           may cause significant error
 Rotational temperatures (Kelvin)      0.03729     0.01212     0.01023
 Rotational constants (GHZ):           0.77700     0.25259     0.21323
 Zero-point vibrational energy     628883.4 (Joules/Mol)
                                  150.30673 (Kcal/Mol)
 Warning -- explicit consideration of  21 degrees of freedom as
           vibrations may cause significant error
 Vibrational temperatures:     25.73    45.21    53.48    87.55   112.90
          (Kelvin)            121.80   190.57   204.37   243.81   307.59
                              368.54   379.46   389.81   439.00   517.84
                              538.62   580.64   612.40   742.35   856.21
                              884.99   902.89   926.39   948.35   956.72
                              984.35  1051.22  1081.36  1117.87  1128.98
                             1204.39  1245.34  1285.48  1292.46  1367.55
                             1390.04  1404.86  1427.08  1453.98  1506.31
                             1522.96  1541.57  1559.51  1574.56  1596.80
                             1646.04  1732.27  1761.87  1791.08  1799.91
                             1837.79  1870.01  1903.24  1924.59  1940.81
                             1953.12  1979.18  1988.24  1993.38  2069.32
                             2083.49  2157.69  2163.72  2184.33  2188.87
                             2200.06  2213.25  2324.15  2390.72  2607.83
                             2659.72  4415.37  4416.18  4437.10  4440.24
                             4456.55  4487.18  4496.57  4502.83  4515.35
                             4539.78  4558.11  5158.63  5312.13

 Zero-point correction=                           0.239529 (Hartree/Particle)
 Thermal correction to Energy=                    0.255297
 Thermal correction to Enthalpy=                  0.256241
 Thermal correction to Gibbs Free Energy=         0.193256
 Sum of electronic and zero-point Energies=           -853.858418
 Sum of electronic and thermal Energies=              -853.842650
 Sum of electronic and thermal Enthalpies=            -853.841706
 Sum of electronic and thermal Free Energies=         -853.904692

                     E (Thermal)             CV                S
                      KCal/Mol        Cal/Mol-Kelvin    Cal/Mol-Kelvin
 Total                  160.201             57.742            132.565
 Electronic               0.000              0.000              0.000
 Translational            0.889              2.981             42.316
 Rotational               0.889              2.981             33.307
 Vibrational            158.424             51.781             56.941
 Vibration     1          0.593              1.986              6.856
 Vibration     2          0.594              1.983              5.738
 Vibration     3          0.594              1.982              5.405
 Vibration     4          0.597              1.973              4.429
 Vibration     5          0.600              1.964              3.929
 Vibration     6          0.601              1.960              3.780
 Vibration     7          0.613              1.921              2.910
 Vibration     8          0.616              1.911              2.776
 Vibration     9          0.625              1.880              2.442
 Vibration    10          0.644              1.820              2.011
 Vibration    11          0.666              1.752              1.688
 Vibration    12          0.670              1.739              1.637
 Vibration    13          0.675              1.727              1.590
 Vibration    14          0.696              1.664              1.389
 Vibration    15          0.734              1.555              1.122
 Vibration    16          0.745              1.525              1.062
 Vibration    17          0.769              1.462              0.950
 Vibration    18          0.787              1.414              0.873
 Vibration    19          0.871              1.215              0.619
 Vibration    20          0.953              1.042              0.458
 Vibration    21          0.975              1.000              0.424

                           ! Non-Optimized Parameters !
 Normal termination of Gaussian 16 at Fri Dec 11 12:18:48 2020.

 ----------------------------------------------------------------------
 # B3LYP/6-311++G(d,p) empiricaldispersion=gd3bj scf=xqc pop=npa geom=c
 heck
 ----------------------------------------------------------------------

 ---------------------------------------
 CID_103551233_JID_7440_Energie_neutraal
 ---------------------------------------
 Structure from the checkpoint file:  "JID_7440.chk"
 Charge =  0 Multiplicity = 1

 SCF Done:  E(RB3LYP) =  -854.348953395     A.U. after   15 cycles
 Normal termination of Gaussian 16 at Fri Dec 11 12:22:30 2020.

 ----------------------------------------------------------------------
 # B3LYP/6-311++G(d,p) empiricaldispersion=gd3bj scf=xqc pop=npa geom=c
 heck
 ----------------------------------------------------------------------

 -------------------------------------
 CID_103551233_JID_7440_Energie_kation
 -------------------------------------
 Structure from the checkpoint file:  "JID_7440.chk"
 Charge =  1 Multiplicity = 2

 SCF Done:  E(UB3LYP) =  -854.009058783     A.U. after   32 cycles
 Normal termination of Gaussian 16 at Fri Dec 11 12:33:00 2020.
 Gaussian 16:  ES64L-G16RevA.03 25-Dec-2016

 ----------------------------------------------------------------------
 # B3LYP/6-311++G(d,p) empiricaldispersion=gd3bj scf=xqc pop=npa geom=c
 heck
 ----------------------------------------------------------------------

 ------------------------------------
 CID_103551233_JID_7440_Energie_anion
 ------------------------------------
 Structure from the checkpoint file:  "JID_7440.chk"
 Charge = -1 Multiplicity = 2

                         Standard orientation:
 ---------------------------------------------------------------------
 Center     Atomic      Atomic             Coordinates (Angstroms)
 Number     Number       Type             X           Y           Z
 ---------------------------------------------------------------------
      1          6           0        3.593093   -2.609385    0.542743
      2          6           0        3.342455   -1.209260    0.099329
      3          7           0        4.269858   -0.485101   -0.473661
      4          8           0        3.601964    0.752021   -0.721672
      5          6           0        2.352366    0.593601   -0.257487
      6          7           0        2.120167   -0.583703    0.258637
      7          7           0        1.531972    1.676007   -0.400431
      8          6           0        0.192808    1.878651   -0.007641
      9          8           0       -0.303692    2.960454   -0.254822
     10          6           0       -0.536118    0.734597    0.653377
     11          6           0       -1.800553    1.172515    1.398854
     12          6           0       -2.549779   -0.150076    1.604686
     13          6           0       -2.262094   -0.994589    0.322274
     14          6           0       -1.068513   -0.284027   -0.388592
     15          6           0       -3.470825   -1.099774   -0.577812
     16          8           0       -3.992790   -2.126009   -0.952430
     17          8           0       -3.941713    0.125313   -0.938269
     18          1           0        3.421050   -2.700210    1.620202
     19          1           0        2.903771   -3.293651    0.037387
     20          1           0        4.620672   -2.899954    0.315918
     21          1           0        1.943156    2.485403   -0.853047
     22          1           0        0.147246    0.207291    1.325796
     23          1           0       -1.581844    1.691460    2.337235
     24          1           0       -2.376192    1.852189    0.764416
     25          1           0       -3.618752   -0.003976    1.781232
     26          1           0       -2.146012   -0.683380    2.472206
     27          1           0       -1.998825   -2.020505    0.584800
     28          1           0       -1.423812    0.256085   -1.271441
     29          1           0       -0.295859   -0.988711   -0.699484
     30          1           0       -4.715782   -0.040208   -1.507887
 ---------------------------------------------------------------------

 SCF Done:  E(UB3LYP) =  -854.344740022     A.U. after   33 cycles
 SCF Done:  E(UB3LYP) =  -854.344740022     a.u. after    1 cycles

 The electronic state is 2-A.
 Alpha  occ. eigenvalues --  -19.09500 -19.06770 -19.01461 -18.97921 -14.25973
 Alpha  occ. eigenvalues --  -14.24616 -14.20103 -10.20177 -10.18813 -10.15485
 Alpha  occ. eigenvalues --  -10.13452 -10.08767 -10.08600 -10.07298 -10.07257
 Alpha  occ. eigenvalues --  -10.07037 -10.06023  -1.04954  -1.00838  -0.93820
 Alpha  occ. eigenvalues --   -0.91966  -0.84879  -0.82911  -0.74800  -0.74323
 Alpha  occ. eigenvalues --   -0.65136  -0.64210  -0.62064  -0.56005  -0.53823
 Alpha  occ. eigenvalues --   -0.51893  -0.49550  -0.47493  -0.45384  -0.43425
 Alpha  occ. eigenvalues --   -0.40200  -0.39606  -0.39342  -0.37905  -0.36788
 Alpha  occ. eigenvalues --   -0.36029  -0.35550  -0.33646  -0.32460  -0.32115
 Alpha  occ. eigenvalues --   -0.31273  -0.30905  -0.30284  -0.29797  -0.26561
 Alpha  occ. eigenvalues --   -0.25761  -0.25129  -0.24398  -0.23855  -0.23601
 Alpha  occ. eigenvalues --   -0.22773  -0.22622  -0.22244  -0.21286  -0.18807
 Alpha  occ. eigenvalues --   -0.17863  -0.15482  -0.14702   0.04537
 Alpha virt. eigenvalues --    0.06308   0.06533   0.07755   0.09016   0.09284
 Alpha virt. eigenvalues --    0.09519   0.09840   0.10520   0.11187   0.11557
 Alpha virt. eigenvalues --    0.11859   0.12359   0.12708   0.13167   0.14380

  Beta  occ. eigenvalues --  -19.09322 -19.06726 -19.01426 -18.97657 -14.26065
  Beta  occ. eigenvalues --  -14.24464 -14.20104 -10.20144 -10.18531 -10.15182
  Beta  occ. eigenvalues --  -10.13429 -10.08759 -10.08586 -10.07274 -10.07274
  Beta  occ. eigenvalues --  -10.07007 -10.06008  -1.04656  -1.00757  -0.93358
  Beta  occ. eigenvalues --   -0.91891  -0.84685  -0.82776  -0.74720  -0.74149
  Beta  occ. eigenvalues --   -0.65003  -0.64131  -0.61993  -0.55602  -0.53684
  Beta  occ. eigenvalues --   -0.51756  -0.49383  -0.47416  -0.45219  -0.43340
  Beta  occ. eigenvalues --   -0.40083  -0.39480  -0.38707  -0.37827  -0.36693
  Beta  occ. eigenvalues --   -0.35868  -0.35440  -0.33387  -0.32284  -0.31662
  Beta  occ. eigenvalues --   -0.31151  -0.30826  -0.29877  -0.29622  -0.26437
  Beta  occ. eigenvalues --   -0.25664  -0.25058  -0.24168  -0.23752  -0.23446
  Beta  occ. eigenvalues --   -0.22667  -0.22383  -0.21519  -0.20683  -0.18712
  Beta  occ. eigenvalues --   -0.17806  -0.15266  -0.14081
  Beta virt. eigenvalues --    0.06619   0.07253   0.08213   0.08988   0.09086
  Beta virt. eigenvalues --    0.09574   0.09742   0.10266   0.10653   0.11337
  Beta virt. eigenvalues --    0.11827   0.12234   0.12442   0.12986   0.13270

 Mulliken charges and spin densities:
               1          2
     1  C    0.328775  -0.845401
     2  C    0.347455   0.328643
     3  N   -0.376689   0.084541
     4  O    0.110724   0.026496
     5  C   -0.443068   0.286193
     6  N   -0.124284   0.019020
     7  N   -0.403815  -0.054225
     8  C   -0.378303   0.125495
     9  O   -0.318865   0.088880
    10  C    0.439123   0.145464
    11  C   -0.734466   0.174870
    12  C    0.461705  -0.961087
    13  C    0.143294   0.493314
    14  C   -0.281243  -0.553467
    15  C   -0.074895  -0.305801
    16  O   -0.292306   0.014209
    17  O   -0.193195   0.033375
    18  H   -0.032644   0.192815
    19  H   -0.053740   0.216202
    20  H    0.082618   0.065067
    21  H    0.300963   0.019500
    22  H    0.136247   0.112147
    23  H    0.062699   0.089880
    24  H    0.196750   0.025555
    25  H    0.028920   0.163770
    26  H   -0.129589   0.269525
    27  H    0.022200   0.253551
    28  H    0.073811   0.140432
    29  H    0.260911  -0.101998
    30  H   -0.159090   0.453036
 Sum of Mulliken charges =  -1.00000   1.00000

 Dipole moment (field-independent basis, Debye):
    X=              2.4135    Y=              0.2408    Z=              1.2136  Tot=              2.7122
 Quadrupole moment (field-independent basis, Debye-Ang):
   XX=           -176.6630   YY=           -138.4113   ZZ=           -119.4566
   XY=             -1.3386   XZ=             -3.4486   YZ=              0.2399

 Summary of Natural Population Analysis:

                                       Natural Population
                Natural  -----------------------------------------------
    Atom  No    Charge         Core      Valence    Rydberg      Total
 -----------------------------------------------------------------------
      C    1   -0.30229      0.99962     2.29790    0.00477     3.30229
      C    2    0.17977      0.99968     1.80305    0.01750     2.82023
      N    3   -0.09256      0.99966     2.58034    0.01255     3.59256
      O    4   -0.17414      0.99985     3.16591    0.00838     4.17414
      C    5    0.40223      0.99964     1.57978    0.01835     2.59777
      N    6   -0.30607      0.99966     2.79693    0.00948     3.80607
      N    7   -0.32838      0.99963     2.82101    0.00774     3.82838
      C    8    0.39543      0.99965     1.58211    0.02281     2.60457
      O    9   -0.28671      0.99987     3.28124    0.00560     4.28671
      C   10   -0.16176      0.99955     2.15171    0.01050     3.16176
      C   11   -0.18610      0.99962     2.17834    0.00813     3.18610
      C   12   -0.18522      0.99963     2.17666    0.00893     3.18522
      C   13   -0.15591      0.99955     2.14505    0.01131     3.15591
      C   14   -0.17660      0.99960     2.16989    0.00711     3.17660
      C   15    0.41553      0.99967     1.55848    0.02632     2.58447
      O   16   -0.30818      0.99987     3.30204    0.00627     4.30818
      O   17   -0.34982      0.99988     3.34303    0.00692     4.34982
      H   18    0.10792      0.00000     0.39073    0.00135     0.39208
      H   19    0.10911      0.00000     0.38931    0.00157     0.39089
      H   20    0.10704      0.00000     0.39155    0.00141     0.39296
      H   21    0.20266      0.00000     0.29427    0.00308     0.29734
      H   22    0.11792      0.00000     0.37999    0.00209     0.38208
      H   23    0.10004      0.00000     0.39908    0.00089     0.39996
      H   24    0.10981      0.00000     0.38858    0.00161     0.39019
      H   25    0.10236      0.00000     0.39662    0.00102     0.39764
      H   26    0.09842      0.00000     0.40034    0.00125     0.40158
      H   27    0.11118      0.00000     0.38769    0.00113     0.38882
      H   28    0.10275      0.00000     0.39563    0.00163     0.39725
      H   29    0.11118      0.00000     0.38769    0.00112     0.38882
      H   30    0.24040      0.00000     0.25152    0.00809     0.25960
 =======================================================================
   * Total *    0.00000     16.99464    45.78648    0.21889    63.00000

 Normal termination of Gaussian 16 at Fri Dec 11 12:48:01 2020.
