 Gaussian 16, Revision A.03,

 -----------------------------------------------------------
 # opt freq B3LYP/6-31G(d) empiricaldispersion=gd3bj scf=xqc
 -----------------------------------------------------------

 ------------------------------
 CID_2728486_JID_10898_neutraal
 ------------------------------
 Symbolic Z-matrix:
 Charge =  0 Multiplicity = 1

 SCF Done:  E(RB3LYP) =  -917.657721393     A.U. after   15 cycles
 SCF Done:  E(RB3LYP) =  -917.664027722     A.U. after   16 cycles
 SCF Done:  E(RB3LYP) =  -917.666678445     A.U. after   14 cycles
 SCF Done:  E(RB3LYP) =  -917.670285116     A.U. after   13 cycles
 SCF Done:  E(RB3LYP) =  -917.671302605     A.U. after   13 cycles
 SCF Done:  E(RB3LYP) =  -917.671517962     A.U. after   14 cycles
 SCF Done:  E(RB3LYP) =  -917.671812804     A.U. after   13 cycles
 SCF Done:  E(RB3LYP) =  -917.672137012     A.U. after   13 cycles
 SCF Done:  E(RB3LYP) =  -917.672402753     A.U. after   12 cycles
 SCF Done:  E(RB3LYP) =  -917.672474131     A.U. after   11 cycles
 SCF Done:  E(RB3LYP) =  -917.672496721     A.U. after   11 cycles
 SCF Done:  E(RB3LYP) =  -917.672504260     A.U. after   10 cycles
 SCF Done:  E(RB3LYP) =  -917.672505177     A.U. after    8 cycles
 SCF Done:  E(RB3LYP) =  -917.672505373     A.U. after    8 cycles
 SCF Done:  E(RB3LYP) =  -917.672505397     A.U. after    7 cycles
 Optimization completed.
    -- Stationary point found.
 Normal termination of Gaussian 16 at Sun Dec 13 13:33:31 2020.

 --------------------------------------------------------------------
 #N Geom=AllCheck Guess=TCheck SCRF=Check GenChk RB3LYP/6-31G(d) Freq
 --------------------------------------------------------------------

 Structure from the checkpoint file:  "JID_10898.chk"
 ------------------------------
 CID_2728486_JID_10898_neutraal
 ------------------------------
 Charge =  0 Multiplicity = 1

 SCF Done:  E(RB3LYP) =  -917.672505397     A.U. after    1 cycles

  Exact polarizability: 193.181 -16.154 209.794 -10.925 -10.310 128.104
 Approx polarizability: 257.563 -25.235 346.985 -27.844 -28.384 195.304

                      1                      2                      3
                      A                      A                      A
 Frequencies --     27.3140                37.8447                41.5271
 Red. masses --      4.5708                 4.2559                 4.3278
 Frc consts  --      0.0020                 0.0036                 0.0044
 IR Inten    --      0.0374                 0.2283                 0.2868

                      4                      5                      6
                      A                      A                      A
 Frequencies --     58.7603                66.0436                80.2522
 Red. masses --      4.3512                 3.8935                 4.0227
 Frc consts  --      0.0089                 0.0100                 0.0153
 IR Inten    --      1.9299                 0.3217                 1.6353

                      7                      8                      9
                      A                      A                      A
 Frequencies --     90.6341               110.4483               121.2448
 Red. masses --      3.8460                 2.9230                 3.5106
 Frc consts  --      0.0186                 0.0210                 0.0304
 IR Inten    --      1.3213                 0.2513                 1.3247

                     10                     11                     12
                      A                      A                      A
 Frequencies --    133.6792               152.3773               162.6064
 Red. masses --      6.4629                 1.1362                 1.5812
 Frc consts  --      0.0680                 0.0155                 0.0246
 IR Inten    --      2.1090                 0.4714                 0.4238

                     13                     14                     15
                      A                      A                      A
 Frequencies --    172.3289               192.1204               216.9224
 Red. masses --      1.5116                 2.7157                 3.2119
 Frc consts  --      0.0264                 0.0591                 0.0890
 IR Inten    --      0.6690                 0.5149                 7.3585

                     16                     17                     18
                      A                      A                      A
 Frequencies --    229.5057               266.3165               270.5951
 Red. masses --      1.5719                 5.5915                 3.0043
 Frc consts  --      0.0488                 0.2337                 0.1296
 IR Inten    --      1.2142                 6.7520                 0.7260

                     19                     20                     21
                      A                      A                      A
 Frequencies --    304.0193               316.7109               328.3347
 Red. masses --      2.9719                 2.7711                 2.5769
 Frc consts  --      0.1618                 0.1638                 0.1637
 IR Inten    --      0.9132                 1.9231                 3.1641

                     22                     23                     24
                      A                      A                      A
 Frequencies --    353.9167               405.2861               414.7074
 Red. masses --      3.3368                 3.5527                 2.8207
 Frc consts  --      0.2463                 0.3438                 0.2858
 IR Inten    --      9.7976                 4.5855                 3.5257

                     25                     26                     27
                      A                      A                      A
 Frequencies --    422.7867               438.5825               457.9175
 Red. masses --      4.5681                 3.9169                 5.0756
 Frc consts  --      0.4811                 0.4439                 0.6271
 IR Inten    --      3.0549                 3.9893                 0.9061

                     28                     29                     30
                      A                      A                      A
 Frequencies --    506.0015               515.0066               548.1898
 Red. masses --      2.9565                 4.9651                 4.7063
 Frc consts  --      0.4460                 0.7759                 0.8333
 IR Inten    --      4.4284                 1.7432                 5.0080

                     31                     32                     33
                      A                      A                      A
 Frequencies --    577.8262               596.0495               603.7001
 Red. masses --      3.6232                 5.2800                 3.4905
 Frc consts  --      0.7127                 1.1052                 0.7495
 IR Inten    --      0.5908                 2.4648                 7.4311

                     34                     35                     36
                      A                      A                      A
 Frequencies --    636.3653               659.9291               677.4926
 Red. masses --      2.9426                 3.7555                 4.7971
 Frc consts  --      0.7021                 0.9636                 1.2973
 IR Inten    --     16.3221                 4.3619                 8.3727

                     37                     38                     39
                      A                      A                      A
 Frequencies --    714.8270               745.1124               783.3554
 Red. masses --      4.0064                 5.0258                 6.6044
 Frc consts  --      1.2062                 1.6440                 2.3878
 IR Inten    --      8.0932                13.3310                 9.7183

                     40                     41                     42
                      A                      A                      A
 Frequencies --    799.7225               862.5031               870.0192
 Red. masses --      1.3652                 3.1338                 2.6127
 Frc consts  --      0.5144                 1.3735                 1.1652
 IR Inten    --      7.9498                 0.4029                11.1515

                     43                     44                     45
                      A                      A                      A
 Frequencies --    919.8581               934.4796               941.3534
 Red. masses --      1.6299                 2.5846                 1.4278
 Frc consts  --      0.8126                 1.3298                 0.7455
 IR Inten    --      7.1002                10.5287                35.0980

                     46                     47                     48
                      A                      A                      A
 Frequencies --    947.5637               984.7025              1026.3630
 Red. masses --      2.1888                 3.0198                 2.1820
 Frc consts  --      1.1579                 1.7252                 1.3543
 IR Inten    --      5.5380                 5.9393                 3.0939

                     49                     50                     51
                      A                      A                      A
 Frequencies --   1030.6530              1052.0802              1061.6255
 Red. masses --      1.1298                 2.7822                 1.6378
 Frc consts  --      0.7071                 1.8144                 1.0876
 IR Inten    --      8.9464                32.3849                11.3634

                     52                     53                     54
                      A                      A                      A
 Frequencies --   1066.7897              1071.4160              1072.8073
 Red. masses --      3.0190                 1.5892                 1.7159
 Frc consts  --      2.0243                 1.0748                 1.1635
 IR Inten    --     25.6617                 4.2002                 8.6931

                     55                     56                     57
                      A                      A                      A
 Frequencies --   1104.9119              1133.9151              1147.6216
 Red. masses --      2.4985                 1.9879                 2.1191
 Frc consts  --      1.7972                 1.5059                 1.6444
 IR Inten    --     53.4287                38.7845                28.4099

                     58                     59                     60
                      A                      A                      A
 Frequencies --   1158.9324              1211.9468              1246.4290
 Red. masses --      4.8022                 1.7376                 3.4209
 Frc consts  --      3.8002                 1.5037                 3.1313
 IR Inten    --     91.7648                 3.3623                12.1011

                     61                     62                     63
                      A                      A                      A
 Frequencies --   1255.9263              1283.5877              1311.3248
 Red. masses --      1.6989                 2.0705                 1.5172
 Frc consts  --      1.5789                 2.0099                 1.5372
 IR Inten    --      5.6615               154.1867               115.5700

                     64                     65                     66
                      A                      A                      A
 Frequencies --   1331.8288              1337.0130              1341.8038
 Red. masses --      1.5035                 3.1892                 1.1815
 Frc consts  --      1.5713                 3.3590                 1.2533
 IR Inten    --      7.8369                 7.5052                23.5473

                     67                     68                     69
                      A                      A                      A
 Frequencies --   1349.5480              1371.5509              1404.8788
 Red. masses --      1.3981                 2.0573                 2.2658
 Frc consts  --      1.5002                 2.2802                 2.6348
 IR Inten    --     15.1508               140.6766                 5.2459

                     70                     71                     72
                      A                      A                      A
 Frequencies --   1420.3802              1433.6148              1444.2956
 Red. masses --      1.3199                 1.4980                 1.3242
 Frc consts  --      1.5689                 1.8139                 1.6275
 IR Inten    --      7.1106                 8.7262                 7.9864

                     73                     74                     75
                      A                      A                      A
 Frequencies --   1445.7838              1459.1097              1467.8042
 Red. masses --      1.2611                 2.3526                 2.9823
 Frc consts  --      1.5532                 2.9510                 3.7857
 IR Inten    --      1.2676               105.4354                20.4298

                     76                     77                     78
                      A                      A                      A
 Frequencies --   1474.8171              1493.1718              1512.2214
 Red. masses --      1.3051                 1.1339                 1.3381
 Frc consts  --      1.6725                 1.4896                 1.8028
 IR Inten    --      3.5554                 5.5362               120.0714

                     79                     80                     81
                      A                      A                      A
 Frequencies --   1515.2903              1516.1576              1520.9479
 Red. masses --      1.0596                 1.0583                 1.0711
 Frc consts  --      1.4335                 1.4334                 1.4598
 IR Inten    --     13.7722                 4.0437                18.4142

                     82                     83                     84
                      A                      A                      A
 Frequencies --   1521.4577              1522.5849              1530.5349
 Red. masses --      1.0796                 1.1748                 1.1275
 Frc consts  --      1.4724                 1.6046                 1.5561
 IR Inten    --      1.0630                37.7127                21.5850

                     85                     86                     87
                      A                      A                      A
 Frequencies --   1534.9914              1618.1829              1631.3794
 Red. masses --      1.0659                 6.4264                 8.2514
 Frc consts  --      1.4797                 9.9145                12.9387
 IR Inten    --     18.4717               171.6290               111.4652

                     88                     89                     90
                      A                      A                      A
 Frequencies --   1729.0306              1833.2700              2346.3235
 Red. masses --      4.4445                11.3530                12.6765
 Frc consts  --      7.8285                22.4809                41.1174
 IR Inten    --     10.3259               211.7379                41.9864

                     91                     92                     93
                      A                      A                      A
 Frequencies --   3050.6107              3056.4397              3062.3468
 Red. masses --      1.0424                 1.0441                 1.0523
 Frc consts  --      5.7158                 5.7466                 5.8141
 IR Inten    --      8.7268                 4.1038                10.0490

                     94                     95                     96
                      A                      A                      A
 Frequencies --   3062.5274              3099.4870              3100.5252
 Red. masses --      1.0417                 1.0592                 1.1005
 Frc consts  --      5.7562                 5.9954                 6.2330
 IR Inten    --     30.9084                24.7092                 9.0961

                     97                     98                     99
                      A                      A                      A
 Frequencies --   3102.9261              3110.6708              3112.0463
 Red. masses --      1.0574                 1.0952                 1.0985
 Frc consts  --      5.9982                 6.2439                 6.2684
 IR Inten    --     21.2551                 8.0421                 8.9054

                    100                    101                    102
                      A                      A                      A
 Frequencies --   3130.0851              3142.5901              3151.1223
 Red. masses --      1.1012                 1.1037                 1.0747
 Frc consts  --      6.3569                 6.4223                 6.2874
 IR Inten    --     35.8130                 9.1387                19.0678

                    103                    104                    105
                      A                      A                      A
 Frequencies --   3157.5798              3160.4530              3162.4670
 Red. masses --      1.1087                 1.0758                 1.0994
 Frc consts  --      6.5127                 6.3311                 6.4783
 IR Inten    --      4.4656                 3.3221                 4.2651

                    106                    107                    108
                      A                      A                      A
 Frequencies --   3162.8202              3166.2691              3240.0048
 Red. masses --      1.1083                 1.1011                 1.1156
 Frc consts  --      6.5324                 6.5041                 6.9000
 IR Inten    --     21.5385                 6.5852                16.8726

 - Thermochemistry -
 -------------------
 Temperature   298.150 Kelvin.  Pressure   1.00000 Atm.
 Atom     1 has atomic number  6 and mass  12.00000

 Molecular mass:   274.13174 amu.
 Principal axes and moments of inertia in atomic units:
                           1         2         3
     Eigenvalues --  4016.201447064.021369313.94732
           X            0.99997  -0.00492   0.00637
           Y            0.00488   0.99996   0.00694
           Z           -0.00640  -0.00691   0.99996
 This molecule is an asymmetric top.
 Rotational symmetry number  1.
 Warning -- assumption of classical behavior for rotation
           may cause significant error
 Rotational temperatures (Kelvin)      0.02157     0.01226     0.00930
 Rotational constants (GHZ):           0.44937     0.25548     0.19377
 Zero-point vibrational energy     815088.3 (Joules/Mol)
                                  194.81077 (Kcal/Mol)
 Warning -- explicit consideration of  33 degrees of freedom as
           vibrations may cause significant error
 Vibrational temperatures:     39.30    54.45    59.75    84.54    95.02
          (Kelvin)            115.47   130.40   158.91   174.44   192.33
                              219.24   233.95   247.94   276.42   312.10
                              330.21   383.17   389.33   437.42   455.68
                              472.40   509.21   583.12   596.67   608.30
                              631.02   658.84   728.02   740.98   788.72
                              831.36   857.58   868.59   915.59   949.49
                              974.76  1028.48  1072.05  1127.07  1150.62
                             1240.95  1251.76  1323.47  1344.51  1354.40
                             1363.33  1416.77  1476.71  1482.88  1513.71
                             1527.44  1534.87  1541.53  1543.53  1589.72
                             1631.45  1651.17  1667.45  1743.72  1793.33
                             1807.00  1846.80  1886.70  1916.20  1923.66
                             1930.56  1941.70  1973.36  2021.31  2043.61
                             2062.65  2078.02  2080.16  2099.33  2111.84
                             2121.93  2148.34  2175.75  2180.16  2181.41
                             2188.30  2189.04  2190.66  2202.10  2208.51
                             2328.20  2347.19  2487.69  2637.67  3375.84
                             4389.15  4397.54  4406.03  4406.29  4459.47
                             4460.96  4464.42  4475.56  4477.54  4503.49
                             4521.49  4533.76  4543.05  4547.19  4550.08
                             4550.59  4555.55  4661.64

 Zero-point correction=                           0.310451 (Hartree/Particle)
 Thermal correction to Energy=                    0.331226
 Thermal correction to Enthalpy=                  0.332170
 Thermal correction to Gibbs Free Energy=         0.259706
 Sum of electronic and zero-point Energies=           -917.362055
 Sum of electronic and thermal Energies=              -917.341279
 Sum of electronic and thermal Enthalpies=            -917.340335
 Sum of electronic and thermal Free Energies=         -917.412799

                     E (Thermal)             CV                S
                      KCal/Mol        Cal/Mol-Kelvin    Cal/Mol-Kelvin
 Total                  207.848             75.601            152.514
 Electronic               0.000              0.000              0.000
 Translational            0.889              2.981             42.724
 Rotational               0.889              2.981             33.935
 Vibrational            206.070             69.639             75.856
 Vibration     1          0.593              1.984              6.016
 Vibration     2          0.594              1.982              5.369
 Vibration     3          0.594              1.981              5.185
 Vibration     4          0.596              1.974              4.498
 Vibration     5          0.597              1.970              4.268
 Vibration     6          0.600              1.963              3.885
 Vibration     7          0.602              1.956              3.646
 Vibration     8          0.606              1.941              3.261
 Vibration     9          0.609              1.931              3.080
 Vibration    10          0.613              1.920              2.892
 Vibration    11          0.619              1.900              2.642
 Vibration    12          0.623              1.888              2.519
 Vibration    13          0.626              1.877              2.410
 Vibration    14          0.634              1.851              2.207
 Vibration    15          0.646              1.815              1.985
 Vibration    16          0.652              1.796              1.883
 Vibration    17          0.672              1.735              1.620
 Vibration    18          0.674              1.727              1.592
 Vibration    19          0.695              1.666              1.395
 Vibration    20          0.704              1.642              1.327
 Vibration    21          0.712              1.619              1.268
 Vibration    22          0.730              1.567              1.149
 Vibration    23          0.770              1.459              0.943
 Vibration    24          0.778              1.438              0.910
 Vibration    25          0.785              1.421              0.883
 Vibration    26          0.799              1.386              0.831
 Vibration    27          0.816              1.343              0.772
 Vibration    28          0.861              1.237              0.643
 Vibration    29          0.870              1.217              0.622
 Vibration    30          0.903              1.144              0.548
 Vibration    31          0.934              1.079              0.489
 Vibration    32          0.954              1.040              0.456
 Vibration    33          0.962              1.024              0.443

 Optimization completed.
    -- Stationary point found.
 Normal termination of Gaussian 16 at Sun Dec 13 13:53:41 2020.

 ----------------------------------------------------------------------
 # B3LYP/6-311++G(d,p) empiricaldispersion=gd3bj scf=xqc pop=npa geom=c
 heck
 ----------------------------------------------------------------------

 --------------------------------------
 CID_2728486_JID_10898_Energie_neutraal
 --------------------------------------
 Structure from the checkpoint file:  "JID_10898.chk"
 Charge =  0 Multiplicity = 1

 SCF Done:  E(RB3LYP) =  -917.925008119     A.U. after   15 cycles
 Normal termination of Gaussian 16 at Sun Dec 13 14:02:33 2020.

 ----------------------------------------------------------------------
 # B3LYP/6-311++G(d,p) empiricaldispersion=gd3bj scf=xqc pop=npa geom=c
 heck
 ----------------------------------------------------------------------

 ------------------------------------
 CID_2728486_JID_10898_Energie_kation
 ------------------------------------
 Structure from the checkpoint file:  "JID_10898.chk"
 Charge =  1 Multiplicity = 2

 SCF Done:  E(UB3LYP) =  -917.616493774     A.U. after   24 cycles
 Normal termination of Gaussian 16 at Sun Dec 13 14:22:42 2020.
 Gaussian 16:  ES64L-G16RevA.03 25-Dec-2016

 ----------------------------------------------------------------------
 # B3LYP/6-311++G(d,p) empiricaldispersion=gd3bj scf=xqc pop=npa geom=c
 heck
 ----------------------------------------------------------------------

 -----------------------------------
 CID_2728486_JID_10898_Energie_anion
 -----------------------------------
 Structure from the checkpoint file:  "JID_10898.chk"
 Charge = -1 Multiplicity = 2

                         Standard orientation:
 ---------------------------------------------------------------------
 Center     Atomic      Atomic             Coordinates (Angstroms)
 Number     Number       Type             X           Y           Z
 ---------------------------------------------------------------------
      1          6           0       -2.122168   -2.066470   -1.860698
      2          6           0       -3.281256   -1.100845   -1.670830
      3          8           0       -2.949344   -0.101242   -0.678788
      4          6           0       -3.119278   -0.460414    0.603484
      5          8           0       -3.653309   -1.477481    0.984767
      6          6           0       -2.616595    0.608657    1.565909
      7          8           0       -1.638523    1.488096    1.014917
      8          6           0       -0.485637    0.920005    0.609798
      9          6           0        0.478330    1.761282    0.016978
     10          6           0        1.677511    1.180420   -0.434440
     11          6           0        1.850761   -0.207139   -0.278493
     12          6           0        0.831154   -0.943802    0.347303
     13          7           0       -0.309148   -0.377634    0.778280
     14          6           0        0.940098   -2.428235    0.571798
     15          6           0        3.127734   -0.895180   -0.725710
     16          6           0        4.125416   -1.019172    0.401355
     17          6           0        4.660997   -2.165524    0.820086
     18          6           0        2.738220    2.037115   -1.076707
     19          6           0        0.218052    3.157907   -0.116132
     20          7           0        0.028137    4.299916   -0.233632
     21          1           0       -1.208832   -1.524515   -2.125504
     22          1           0       -2.354043   -2.775002   -2.663713
     23          1           0       -1.941155   -2.629665   -0.941464
     24          1           0       -3.483063   -0.525921   -2.576945
     25          1           0       -4.188980   -1.621630   -1.357849
     26          1           0       -3.448038    1.259377    1.848188
     27          1           0       -2.236178    0.096396    2.451978
     28          1           0        0.069745   -2.771562    1.133278
     29          1           0        0.976152   -2.971660   -0.380974
     30          1           0        1.852254   -2.679564    1.123140
     31          1           0        2.904135   -1.890921   -1.121990
     32          1           0        3.578839   -0.331422   -1.550352
     33          1           0        4.394336   -0.087377    0.899404
     34          1           0        5.373645   -2.198841    1.639191
     35          1           0        4.412238   -3.115181    0.350716
     36          1           0        2.871049    1.766598   -2.131144
     37          1           0        2.477251    3.095820   -1.033349
     38          1           0        3.707097    1.902485   -0.584519
 ---------------------------------------------------------------------

 SCF Done:  E(UB3LYP) =  -917.934103601     A.U. after   28 cycles

 The electronic state is 2-A.
 Alpha  occ. eigenvalues --  -19.06448 -19.03801 -19.00903 -14.15256 -14.14240
 Alpha  occ. eigenvalues --  -10.19913 -10.13601 -10.12913 -10.12652 -10.08036
 Alpha  occ. eigenvalues --  -10.07127 -10.06769 -10.06745 -10.04917 -10.04785
 Alpha  occ. eigenvalues --  -10.04413 -10.03872 -10.03767 -10.03751 -10.03461
 Alpha  occ. eigenvalues --   -1.00842  -0.96229  -0.92143  -0.79858  -0.74716
 Alpha  occ. eigenvalues --   -0.70764  -0.68685  -0.67782  -0.65600  -0.62640
 Alpha  occ. eigenvalues --   -0.59629  -0.58690  -0.56150  -0.54386  -0.49243
 Alpha  occ. eigenvalues --   -0.47109  -0.46252  -0.45473  -0.41943  -0.40946
 Alpha  occ. eigenvalues --   -0.40163  -0.38889  -0.37373  -0.36549  -0.35242
 Alpha  occ. eigenvalues --   -0.34972  -0.33591  -0.33333  -0.31117  -0.30413
 Alpha  occ. eigenvalues --   -0.30168  -0.29822  -0.29286  -0.28489  -0.28280
 Alpha  occ. eigenvalues --   -0.28011  -0.26782  -0.26089  -0.25377  -0.25086
 Alpha  occ. eigenvalues --   -0.24402  -0.23911  -0.22655  -0.21220  -0.21117
 Alpha  occ. eigenvalues --   -0.20802  -0.19923  -0.18139  -0.17513  -0.16681
 Alpha  occ. eigenvalues --   -0.13375  -0.12934  -0.09584   0.04751
 Alpha virt. eigenvalues --    0.07061   0.07589   0.08711   0.08793   0.09123
 Alpha virt. eigenvalues --    0.09368   0.09945   0.10461   0.10683   0.11452
 Alpha virt. eigenvalues --    0.11656   0.12106   0.12335   0.12869   0.13422

  Beta  occ. eigenvalues --  -19.06431 -19.03809 -19.00887 -14.15107 -14.13941
  Beta  occ. eigenvalues --  -10.19886 -10.13601 -10.12914 -10.12672 -10.08033
  Beta  occ. eigenvalues --  -10.07125 -10.06769 -10.06738 -10.04792 -10.04451
  Beta  occ. eigenvalues --  -10.04373 -10.04049 -10.03810 -10.03524 -10.02938
  Beta  occ. eigenvalues --   -1.00806  -0.96217  -0.92111  -0.79388  -0.74268
  Beta  occ. eigenvalues --   -0.70651  -0.68599  -0.67280  -0.65390  -0.62474
  Beta  occ. eigenvalues --   -0.59427  -0.58456  -0.56108  -0.54205  -0.49045
  Beta  occ. eigenvalues --   -0.46697  -0.46191  -0.45350  -0.41775  -0.40779
  Beta  occ. eigenvalues --   -0.40066  -0.38754  -0.37269  -0.36493  -0.35173
  Beta  occ. eigenvalues --   -0.34834  -0.33508  -0.33208  -0.30942  -0.30092
  Beta  occ. eigenvalues --   -0.29965  -0.29416  -0.29027  -0.28375  -0.28156
  Beta  occ. eigenvalues --   -0.27935  -0.26615  -0.26008  -0.25371  -0.25035
  Beta  occ. eigenvalues --   -0.24197  -0.23769  -0.22382  -0.20713  -0.20676
  Beta  occ. eigenvalues --   -0.20366  -0.18945  -0.17930  -0.17344  -0.16626
  Beta  occ. eigenvalues --   -0.12724  -0.11535  -0.08238
  Beta virt. eigenvalues --    0.07022   0.07541   0.08690   0.08801   0.09107
  Beta virt. eigenvalues --    0.09370   0.09982   0.10299   0.10611   0.11430
  Beta virt. eigenvalues --    0.11689   0.11751   0.12106   0.12476   0.12958

 Mulliken charges and spin densities:
               1          2
     1  C   -0.455815  -0.006267
     2  C   -0.132525  -0.002278
     3  O    0.060113   0.004126
     4  C   -0.139508   0.022182
     5  O   -0.246744   0.006854
     6  C   -0.113552  -0.011928
     7  O   -0.009198   0.009088
     8  C   -0.850772  -0.043996
     9  C    1.329192   0.265244
    10  C    0.713359   0.296596
    11  C    0.368433  -0.116864
    12  C   -0.743257   0.342170
    13  N    0.228714   0.051398
    14  C   -0.681500  -0.035518
    15  C   -0.120101   0.009760
    16  C   -0.035522   0.005855
    17  C   -0.599349   0.004074
    18  C   -0.290329  -0.010052
    19  C   -1.601061  -0.067781
    20  N   -0.332458   0.149237
    21  H    0.169074   0.001822
    22  H    0.110395   0.002320
    23  H    0.190703  -0.001446
    24  H    0.149388   0.004942
    25  H    0.150228   0.000757
    26  H    0.171058   0.003541
    27  H    0.218513   0.009407
    28  H    0.137482   0.010720
    29  H    0.118360   0.022530
    30  H    0.142603   0.029376
    31  H    0.159747  -0.003488
    32  H    0.131384  -0.000903
    33  H    0.157758   0.000898
    34  H    0.108246   0.000137
    35  H    0.103896  -0.000434
    36  H    0.133281   0.032754
    37  H    0.168860   0.000260
    38  H    0.130902   0.014905
 Sum of Mulliken charges =  -1.00000   1.00000

 Dipole moment (field-independent basis, Debye):
    X=             -0.2809    Y=             -6.6929    Z=             -1.8471  Tot=              6.9488
 Quadrupole moment (field-independent basis, Debye-Ang):
   XX=           -146.5859   YY=           -177.2981   ZZ=           -125.3265
   XY=             -1.6946   XZ=              5.2231   YZ=              8.9006

 Summary of Natural Population Analysis:

                                       Natural Population
                Natural  -----------------------------------------------
    Atom  No    Charge         Core      Valence    Rydberg      Total
 -----------------------------------------------------------------------
      C    1   -0.30032      0.99966     2.29615    0.00451     3.30032
      C    2   -0.01594      0.99959     2.00668    0.00967     3.01594
      O    3   -0.27481      0.99985     3.26503    0.00993     4.27481
      C    4    0.40777      0.99971     1.56713    0.02539     2.59223
      O    5   -0.31589      0.99987     3.30955    0.00647     4.31589
      C    6   -0.05439      0.99952     2.04275    0.01212     3.05439
      O    7   -0.26922      0.99985     3.26105    0.00832     4.26922
      C    8    0.27628      0.99948     1.70311    0.02113     2.72372
      C    9   -0.05060      0.99933     2.03997    0.01130     3.05060
      C   10    0.10460      0.99952     1.88283    0.01305     2.89540
      C   11   -0.08934      0.99943     2.08025    0.00966     3.08934
      C   12    0.21188      0.99951     1.77513    0.01348     2.78812
      N   13   -0.27464      0.99962     2.76348    0.01155     3.77464
      C   14   -0.30711      0.99965     2.30291    0.00456     3.30711
      C   15   -0.21301      0.99959     2.20479    0.00863     3.21301
      C   16   -0.06504      0.99957     2.05629    0.00918     3.06504
      C   17   -0.21242      0.99957     2.20550    0.00735     3.21242
      C   18   -0.30375      0.99965     2.29957    0.00454     3.30375
      C   19    0.13542      0.99972     1.84361    0.02124     2.86458
      N   20   -0.17282      0.99978     2.66149    0.01155     3.67282
      H   21    0.10850      0.00000     0.39055    0.00095     0.39150
      H   22    0.09349      0.00000     0.40567    0.00084     0.40651
      H   23    0.10965      0.00000     0.38932    0.00103     0.39035
      H   24    0.08728      0.00000     0.41171    0.00101     0.41272
      H   25    0.09076      0.00000     0.40779    0.00145     0.40924
      H   26    0.09883      0.00000     0.40017    0.00100     0.40117
      H   27    0.10405      0.00000     0.39480    0.00115     0.39595
      H   28    0.10551      0.00000     0.39353    0.00096     0.39449
      H   29    0.09791      0.00000     0.40118    0.00091     0.40209
      H   30    0.10495      0.00000     0.39402    0.00103     0.39505
      H   31    0.09843      0.00000     0.39999    0.00158     0.40157
      H   32    0.10464      0.00000     0.39412    0.00124     0.39536
      H   33    0.09166      0.00000     0.40716    0.00118     0.40834
      H   34    0.08928      0.00000     0.40953    0.00119     0.41072
      H   35    0.08777      0.00000     0.41107    0.00116     0.41223
      H   36    0.10217      0.00000     0.39684    0.00098     0.39783
      H   37    0.11087      0.00000     0.38822    0.00090     0.38913
      H   38    0.09914      0.00000     0.39982    0.00104     0.40086
 =======================================================================
   * Total *    0.00153     19.99247    52.76278    0.24323    72.99847

 Normal termination of Gaussian 16 at Sun Dec 13 14:46:04 2020.
