 Gaussian 16, Revision A.03,

 -----------------------------------------------------------
 # opt freq B3LYP/6-31G(d) empiricaldispersion=gd3bj scf=xqc
 -----------------------------------------------------------

 -------------------------------
 CID_151379747_JID_2737_neutraal
 -------------------------------
 Symbolic Z-matrix:
 Charge =  0 Multiplicity = 1

 SCF Done:  E(RB3LYP) =  -639.871805678     A.U. after   16 cycles
 SCF Done:  E(RB3LYP) =  -639.877116299     A.U. after   16 cycles
 SCF Done:  E(RB3LYP) =  -639.872719740     A.U. after   16 cycles
 SCF Done:  E(RB3LYP) =  -639.877580820     A.U. after   15 cycles
 SCF Done:  E(RB3LYP) =  -639.879070549     A.U. after   12 cycles
 SCF Done:  E(RB3LYP) =  -639.880478759     A.U. after   15 cycles
 SCF Done:  E(RB3LYP) =  -639.881127388     A.U. after   15 cycles
 SCF Done:  E(RB3LYP) =  -639.881862689     A.U. after   15 cycles
 SCF Done:  E(RB3LYP) =  -639.882705086     A.U. after   17 cycles
 SCF Done:  E(RB3LYP) =  -639.882880386     A.U. after   17 cycles
 SCF Done:  E(RB3LYP) =  -639.887355963     A.U. after   12 cycles
 SCF Done:  E(RB3LYP) =  -639.887356100     A.U. after   12 cycles
 SCF Done:  E(RB3LYP) =  -639.887363206     A.U. after   11 cycles
 SCF Done:  E(RB3LYP) =  -639.887363460     A.U. after   10 cycles
 SCF Done:  E(RB3LYP) =  -639.887363559     A.U. after    9 cycles
 Optimization completed.
    -- Stationary point found.
 Normal termination of Gaussian 16 at Wed Dec  9 18:08:34 2020.

 --------------------------------------------------------------------
 #N Geom=AllCheck Guess=TCheck SCRF=Check GenChk RB3LYP/6-31G(d) Freq
 --------------------------------------------------------------------

 Structure from the checkpoint file:  "JID_2737.chk"
 -------------------------------
 CID_151379747_JID_2737_neutraal
 -------------------------------
 Charge =  0 Multiplicity = 1

 SCF Done:  E(RB3LYP) =  -639.887363559     A.U. after    1 cycles

  Exact polarizability: 119.506 -11.160  73.765  -0.802  -2.025  63.836
 Approx polarizability: 201.065 -31.478 120.664 -10.444  -6.215 101.623

                      1                      2                      3
                      A                      A                      A
 Frequencies --     42.6645                49.5390                77.7933
 Red. masses --      7.3560                 7.4121                 3.4909
 Frc consts  --      0.0079                 0.0107                 0.0124
 IR Inten    --      0.1126                 0.3651                 1.2869

                      4                      5                      6
                      A                      A                      A
 Frequencies --    101.4092               185.0508               209.2140
 Red. masses --      9.1560                 5.0640                 3.3636
 Frc consts  --      0.0555                 0.1022                 0.0867
 IR Inten    --      1.1839                 0.6838                 4.8938

                      7                      8                      9
                      A                      A                      A
 Frequencies --    226.2509               315.9218               324.0642
 Red. masses --      5.9563                 3.2361                 3.7869
 Frc consts  --      0.1796                 0.1903                 0.2343
 IR Inten    --      6.1575                 3.4010                 5.5605

                     10                     11                     12
                      A                      A                      A
 Frequencies --    374.7418               398.3714               410.8983
 Red. masses --      2.9506                 6.9853                 6.8885
 Frc consts  --      0.2441                 0.6532                 0.6852
 IR Inten    --      4.7710                 0.7529                 2.8111

                     13                     14                     15
                      A                      A                      A
 Frequencies --    561.0642               571.4897               622.1128
 Red. masses --     10.5617                 3.5446                 2.1850
 Frc consts  --      1.9589                 0.6821                 0.4982
 IR Inten    --     21.8453                 9.1555                 9.1772

                     16                     17                     18
                      A                      A                      A
 Frequencies --    667.1908               731.1347               736.8328
 Red. masses --      5.6475                 6.5001                 5.9281
 Frc consts  --      1.4812                 2.0472                 1.8963
 IR Inten    --      6.1359                 6.2213                16.2324

                     19                     20                     21
                      A                      A                      A
 Frequencies --    812.2641               860.9715               893.5588
 Red. masses --      2.8169                 6.0775                 1.9146
 Frc consts  --      1.0950                 2.6543                 0.9007
 IR Inten    --      5.7466                15.4641                 5.5443

                     22                     23                     24
                      A                      A                      A
 Frequencies --    899.9948               943.4221               952.9909
 Red. masses --      2.2060                 2.5126                 4.0272
 Frc consts  --      1.0528                 1.3176                 2.1549
 IR Inten    --     11.0404                 5.0538                19.8486

                     25                     26                     27
                      A                      A                      A
 Frequencies --    998.9617              1027.6072              1037.7065
 Red. masses --      2.4441                 2.9633                 1.8636
 Frc consts  --      1.4370                 1.8436                 1.1824
 IR Inten    --     18.2489                19.2570                 3.7976

                     28                     29                     30
                      A                      A                      A
 Frequencies --   1124.1417              1158.0400              1188.1164
 Red. masses --      3.5576                 2.3528                 1.7179
 Frc consts  --      2.6488                 1.8590                 1.4288
 IR Inten    --    114.3987                19.8232                 7.5895

                     31                     32                     33
                      A                      A                      A
 Frequencies --   1230.2473              1262.1754              1288.4402
 Red. masses --      1.3815                 1.3058                 1.4937
 Frc consts  --      1.2319                 1.2256                 1.4610
 IR Inten    --      6.0519                 8.4259                13.2427

                     34                     35                     36
                      A                      A                      A
 Frequencies --   1307.7424              1353.0882              1359.0712
 Red. masses --      1.7703                 1.6946                 1.3138
 Frc consts  --      1.7838                 1.8280                 1.4297
 IR Inten    --     46.9296                 5.5971                 0.5913

                     37                     38                     39
                      A                      A                      A
 Frequencies --   1376.1659              1385.4914              1406.2832
 Red. masses --      2.9545                 1.5528                 1.4131
 Frc consts  --      3.2967                 1.7562                 1.6466
 IR Inten    --    118.0457                13.2727                 2.8477

                     40                     41                     42
                      A                      A                      A
 Frequencies --   1425.1223              1501.6428              1513.3385
 Red. masses --      6.2838                 1.0856                 1.0873
 Frc consts  --      7.5193                 1.4423                 1.4672
 IR Inten    --     66.5279                25.9994                 3.1880

                     43                     44                     45
                      A                      A                      A
 Frequencies --   1526.7641              1547.2170              1662.3239
 Red. masses --      1.0944                 1.1126                12.1923
 Frc consts  --      1.5031                 1.5692                19.8503
 IR Inten    --      7.2370                 7.8657               233.3635

                     46                     47                     48
                      A                      A                      A
 Frequencies --   2282.7199              3076.6389              3080.1241
 Red. masses --     13.7295                 1.0673                 1.0606
 Frc consts  --     42.1513                 5.9522                 5.9286
 IR Inten    --    496.5193                26.2465                24.9778

                     49                     50                     51
                      A                      A                      A
 Frequencies --   3091.5344              3119.0324              3133.4575
 Red. masses --      1.0587                 1.0623                 1.0990
 Frc consts  --      5.9615                 6.0888                 6.3578
 IR Inten    --     19.2548                 5.7058                13.4674

                     52                     53                     54
                      A                      A                      A
 Frequencies --   3147.8848              3148.4238              3169.2911
 Red. masses --      1.1069                 1.1082                 1.1069
 Frc consts  --      6.4626                 6.4722                 6.5507
 IR Inten    --     23.6876                 6.0630                 5.0455

 - Thermochemistry -
 -------------------
 Temperature   298.150 Kelvin.  Pressure   1.00000 Atm.
 Atom     1 has atomic number  6 and mass  12.00000

 Molecular mass:   172.05964 amu.
 Principal axes and moments of inertia in atomic units:
                           1         2         3
     Eigenvalues --  1003.467702566.884613034.53666
           X            0.99980  -0.01722  -0.00983
           Y            0.01730   0.99982   0.00794
           Z            0.00969  -0.00810   0.99992
 This molecule is an asymmetric top.
 Rotational symmetry number  1.
 Warning -- assumption of classical behavior for rotation
           may cause significant error
 Rotational temperatures (Kelvin)      0.08631     0.03374     0.02854
 Rotational constants (GHZ):           1.79850     0.70309     0.59473
 Zero-point vibrational energy     400137.3 (Joules/Mol)
                                   95.63512 (Kcal/Mol)
 Warning -- explicit consideration of  14 degrees of freedom as
           vibrations may cause significant error
 Vibrational temperatures:     61.38    71.28   111.93   145.91   266.25
          (Kelvin)            301.01   325.52   454.54   466.26   539.17
                              573.17   591.19   807.25   822.25   895.08
                              959.94  1051.94  1060.14  1168.67  1238.75
                             1285.63  1294.89  1357.37  1371.14  1437.28
                             1478.50  1493.03  1617.39  1666.16  1709.43
                             1770.05  1815.99  1853.78  1881.55  1946.79
                             1955.40  1980.00  1993.41  2023.33  2050.43
                             2160.53  2177.36  2196.67  2226.10  2391.71
                             3284.32  4426.60  4431.61  4448.03  4487.59
                             4508.35  4529.10  4529.88  4559.90

 Zero-point correction=                           0.152404 (Hartree/Particle)
 Thermal correction to Energy=                    0.163272
 Thermal correction to Enthalpy=                  0.164216
 Thermal correction to Gibbs Free Energy=         0.114417
 Sum of electronic and zero-point Energies=           -639.734959
 Sum of electronic and thermal Energies=              -639.724092
 Sum of electronic and thermal Enthalpies=            -639.723148
 Sum of electronic and thermal Free Energies=         -639.772947

                     E (Thermal)             CV                S
                      KCal/Mol        Cal/Mol-Kelvin    Cal/Mol-Kelvin
 Total                  102.455             39.142            104.811
 Electronic               0.000              0.000              0.000
 Translational            0.889              2.981             41.336
 Rotational               0.889              2.981             30.437
 Vibrational            100.677             33.180             33.039
 Vibration     1          0.595              1.980              5.131
 Vibration     2          0.595              1.978              4.836
 Vibration     3          0.599              1.964              3.946
 Vibration     4          0.604              1.948              3.427
 Vibration     5          0.631              1.860              2.277
 Vibration     6          0.642              1.827              2.051
 Vibration     7          0.650              1.801              1.908
 Vibration     8          0.703              1.643              1.331
 Vibration     9          0.709              1.627              1.290
 Vibration    10          0.746              1.524              1.060
 Vibration    11          0.765              1.474              0.969
 Vibration    12          0.775              1.447              0.923
 Vibration    13          0.917              1.116              0.522
 Vibration    14          0.928              1.093              0.501

 Optimization completed.
    -- Stationary point found.
 Normal termination of Gaussian 16 at Wed Dec  9 18:13:29 2020.

 ----------------------------------------------------------------------
 # B3LYP/6-311++G(d,p) empiricaldispersion=gd3bj scf=xqc pop=npa geom=c
 heck
 ----------------------------------------------------------------------

 ---------------------------------------
 CID_151379747_JID_2737_Energie_neutraal
 ---------------------------------------
 Structure from the checkpoint file:  "JID_2737.chk"
 Charge =  0 Multiplicity = 1

 SCF Done:  E(RB3LYP) =  -640.073252664     A.U. after   15 cycles
 Normal termination of Gaussian 16 at Wed Dec  9 18:16:26 2020.

 ----------------------------------------------------------------------
 # B3LYP/6-311++G(d,p) empiricaldispersion=gd3bj scf=xqc pop=npa geom=c
 heck
 ----------------------------------------------------------------------

 -------------------------------------
 CID_151379747_JID_2737_Energie_kation
 -------------------------------------
 Structure from the checkpoint file:  "JID_2737.chk"
 Charge =  1 Multiplicity = 2

 SCF Done:  E(UB3LYP) =  -639.725430869     A.U. after   27 cycles
 Normal termination of Gaussian 16 at Wed Dec  9 18:21:26 2020.
 Gaussian 16:  ES64L-G16RevA.03 25-Dec-2016

 ----------------------------------------------------------------------
 # B3LYP/6-311++G(d,p) empiricaldispersion=gd3bj scf=xqc pop=npa geom=c
 heck
 ----------------------------------------------------------------------

 ------------------------------------
 CID_151379747_JID_2737_Energie_anion
 ------------------------------------
 Structure from the checkpoint file:  "JID_2737.chk"
 Charge = -1 Multiplicity = 2

                         Standard orientation:
 ---------------------------------------------------------------------
 Center     Atomic      Atomic             Coordinates (Angstroms)
 Number     Number       Type             X           Y           Z
 ---------------------------------------------------------------------
      1          6           0       -2.527826    1.071960    0.645140
      2          6           0       -1.092266    0.732744    1.091202
      3          6           0       -0.457473    0.155046   -0.190614
      4          8           0       -1.458792    0.028225   -1.155719
      5          6           0       -2.748162    0.098026   -0.509666
      6          6           0        0.688617    0.966922   -0.789458
      7          7           0        1.727428    1.271433    0.204931
      8          7           0        2.767429    0.602440    0.139053
      9          7           0        3.779071    0.082409    0.190874
     10          7           0        0.032851   -1.305096    0.087135
     11          8           0        1.137857   -1.636621   -0.327692
     12          8           0       -0.766690   -2.048079    0.646307
     13          1           0       -3.257783    0.947871    1.449156
     14          1           0       -2.586561    2.103782    0.283426
     15          1           0       -1.095644   -0.021782    1.878621
     16          1           0       -0.527278    1.596430    1.445799
     17          1           0       -3.032321   -0.899439   -0.157697
     18          1           0       -3.460063    0.438078   -1.264446
     19          1           0        1.082418    0.459336   -1.672947
     20          1           0        0.253436    1.921037   -1.098659
 ---------------------------------------------------------------------

 SCF Done:  E(UB3LYP) =  -640.086203340     A.U. after   33 cycles
 SCF Done:  E(UB3LYP) =  -640.086203340     a.u. after    1 cycles

 The electronic state is 2-A.
 Alpha  occ. eigenvalues --  -19.01161 -18.94628 -18.94532 -14.34673 -14.30040
 Alpha  occ. eigenvalues --  -14.24553 -14.22927 -10.13449 -10.10328 -10.09341
 Alpha  occ. eigenvalues --  -10.06251 -10.05178  -1.02399  -1.00742  -0.93566
 Alpha  occ. eigenvalues --   -0.85562  -0.84858  -0.68005  -0.66915  -0.59147
 Alpha  occ. eigenvalues --   -0.52546  -0.49589  -0.43763  -0.40514  -0.40221
 Alpha  occ. eigenvalues --   -0.39108  -0.38021  -0.36020  -0.35108  -0.33872
 Alpha  occ. eigenvalues --   -0.32653  -0.32094  -0.30251  -0.29109  -0.28642
 Alpha  occ. eigenvalues --   -0.25061  -0.24522  -0.22920  -0.21343  -0.17939
 Alpha  occ. eigenvalues --   -0.17611  -0.13615  -0.13244  -0.10534  -0.10372
 Alpha  occ. eigenvalues --    0.05059
 Alpha virt. eigenvalues --    0.07363   0.08460   0.09572   0.09918   0.11128
 Alpha virt. eigenvalues --    0.12138   0.12924   0.13095   0.13781   0.14188
 Alpha virt. eigenvalues --    0.15133   0.17359   0.18159   0.19054   0.19324

  Beta  occ. eigenvalues --  -19.01086 -18.94148 -18.94108 -14.34580 -14.29113
  Beta  occ. eigenvalues --  -14.24390 -14.22947 -10.13489 -10.10320 -10.09313
  Beta  occ. eigenvalues --  -10.06230 -10.05160  -1.01219  -1.00497  -0.93390
  Beta  occ. eigenvalues --   -0.85060  -0.84382  -0.67883  -0.66828  -0.58974
  Beta  occ. eigenvalues --   -0.51738  -0.49480  -0.43382  -0.40388  -0.39807
  Beta  occ. eigenvalues --   -0.38845  -0.37673  -0.35778  -0.34509  -0.32364
  Beta  occ. eigenvalues --   -0.31808  -0.31472  -0.30019  -0.28510  -0.27698
  Beta  occ. eigenvalues --   -0.24872  -0.24468  -0.22837  -0.21250  -0.17666
  Beta  occ. eigenvalues --   -0.17427  -0.13234  -0.10470  -0.10110  -0.10014
  Beta virt. eigenvalues --    0.07593   0.09098   0.09757   0.10256   0.11211
  Beta virt. eigenvalues --    0.12141   0.12981   0.13003   0.13396   0.13907
  Beta virt. eigenvalues --    0.15025   0.15192   0.17295   0.18139   0.18980

 Mulliken charges and spin densities:
               1          2
     1  C    0.509803  -0.789510
     2  C   -0.496521   0.092903
     3  C   -0.553291   0.649247
     4  O   -0.029983  -0.004382
     5  C   -0.372735   0.081798
     6  C    0.154413  -0.783503
     7  N   -0.199999   0.014461
     8  N    0.419798   0.073353
     9  N   -0.275120   0.084925
    10  N   -0.188954   0.282646
    11  O   -0.192665   0.185422
    12  O   -0.205033   0.163336
    13  H   -0.070509   0.186154
    14  H   -0.106496   0.244413
    15  H    0.130910   0.092137
    16  H   -0.000902   0.160266
    17  H    0.224554  -0.044168
    18  H    0.015727   0.120176
    19  H    0.281284  -0.045337
    20  H   -0.044281   0.235663
 Sum of Mulliken charges =  -1.00000   1.00000

 Dipole moment (field-independent basis, Debye):
    X=             -2.5162    Y=              4.1058    Z=             -0.9228  Tot=              4.9031
 Quadrupole moment (field-independent basis, Debye-Ang):
   XX=           -101.0779   YY=            -99.5036   ZZ=            -80.4719
   XY=              4.6000   XZ=             -0.0867   YZ=              0.3238

 Summary of Natural Population Analysis:

                                       Natural Population
                Natural  -----------------------------------------------
    Atom  No    Charge         Core      Valence    Rydberg      Total
 -----------------------------------------------------------------------
      C    1   -0.20584      0.99964     2.19806    0.00814     3.20584
      C    2   -0.21061      0.99957     2.20064    0.01039     3.21061
      C    3    0.20286      0.99952     1.77614    0.02148     2.79714
      O    4   -0.29745      0.99986     3.28840    0.00919     4.29745
      C    5   -0.01321      0.99958     2.00068    0.01295     3.01321
      C    6   -0.10887      0.99949     2.09275    0.01663     3.10887
      N    7   -0.20089      0.99970     2.68716    0.01404     3.70089
      N    8    0.13161      0.99970     2.35213    0.01656     3.36839
      N    9   -0.02935      0.99981     2.51687    0.01267     3.52935
      N   10    0.33752      0.99973     2.13363    0.02913     3.16248
      O   11   -0.19811      0.99990     3.18928    0.00893     4.19811
      O   12   -0.20915      0.99990     3.20140    0.00785     4.20915
      H   13    0.10102      0.00000     0.39795    0.00103     0.39898
      H   14    0.09506      0.00000     0.40339    0.00156     0.40494
      H   15    0.11761      0.00000     0.38071    0.00167     0.38239
      H   16    0.10622      0.00000     0.39228    0.00150     0.39378
      H   17    0.09145      0.00000     0.40722    0.00134     0.40855
      H   18    0.08433      0.00000     0.41446    0.00120     0.41567
      H   19    0.10920      0.00000     0.38940    0.00139     0.39080
      H   20    0.09662      0.00000     0.40140    0.00198     0.40338
 =======================================================================
   * Total *   -0.00000     11.99640    32.82396    0.17964    45.00000

 Normal termination of Gaussian 16 at Wed Dec  9 18:27:13 2020.
