 Gaussian 16, Revision A.03,

 -----------------------------------------------------------
 # opt freq B3LYP/6-31G(d) empiricaldispersion=gd3bj scf=xqc
 -----------------------------------------------------------

 ------------------------------
 CID_43404371_JID_9018_neutraal
 ------------------------------
 Symbolic Z-matrix:
 Charge =  0 Multiplicity = 1

 SCF Done:  E(RB3LYP) =  -896.839243860     A.U. after   15 cycles
 SCF Done:  E(RB3LYP) =  -896.844497950     A.U. after   13 cycles
 SCF Done:  E(RB3LYP) =  -896.844412490     A.U. after   13 cycles
 SCF Done:  E(RB3LYP) =  -896.844983044     A.U. after   13 cycles
 SCF Done:  E(RB3LYP) =  -896.846029908     A.U. after   12 cycles
 SCF Done:  E(RB3LYP) =  -896.846067894     A.U. after   12 cycles
 SCF Done:  E(RB3LYP) =  -896.846107979     A.U. after   11 cycles
 SCF Done:  E(RB3LYP) =  -896.846139450     A.U. after   10 cycles
 SCF Done:  E(RB3LYP) =  -896.846147077     A.U. after   10 cycles
 SCF Done:  E(RB3LYP) =  -896.846154074     A.U. after   10 cycles
 SCF Done:  E(RB3LYP) =  -896.846774868     A.U. after    8 cycles
 SCF Done:  E(RB3LYP) =  -896.846774927     A.U. after    7 cycles
 SCF Done:  E(RB3LYP) =  -896.846774964     A.U. after    7 cycles
 SCF Done:  E(RB3LYP) =  -896.846774966     A.U. after    7 cycles
 Optimization completed.
    -- Stationary point found.
 Normal termination of Gaussian 16 at Mon Dec 14 17:11:35 2020.

 --------------------------------------------------------------------
 #N Geom=AllCheck Guess=TCheck SCRF=Check GenChk RB3LYP/6-31G(d) Freq
 --------------------------------------------------------------------

 Structure from the checkpoint file:  "JID_9018.chk"
 ------------------------------
 CID_43404371_JID_9018_neutraal
 ------------------------------
 Charge =  0 Multiplicity = 1

 SCF Done:  E(RB3LYP) =  -896.846774966     A.U. after    1 cycles

  Exact polarizability: 210.585 -12.895 122.340   7.498  -8.562 155.810
 Approx polarizability: 273.812 -19.512 167.616   0.326 -23.157 279.753

                      1                      2                      3
                      A                      A                      A
 Frequencies --     15.2690                28.9811                45.7496
 Red. masses --      4.6877                 4.4174                 3.3877
 Frc consts  --      0.0006                 0.0022                 0.0042
 IR Inten    --      0.0592                 0.6685                 1.5766

                      4                      5                      6
                      A                      A                      A
 Frequencies --     55.3846                65.0488                66.8214
 Red. masses --      4.2051                 2.4608                 1.3802
 Frc consts  --      0.0076                 0.0061                 0.0036
 IR Inten    --      0.2595                 1.5748                 0.0989

                      7                      8                      9
                      A                      A                      A
 Frequencies --     76.4224                88.6641               110.3060
 Red. masses --      3.8267                 3.7462                 3.9427
 Frc consts  --      0.0132                 0.0174                 0.0283
 IR Inten    --      0.1393                 0.5645                 0.3623

                     10                     11                     12
                      A                      A                      A
 Frequencies --    133.5631               149.5428               179.9402
 Red. masses --      1.2572                 3.3742                 3.2317
 Frc consts  --      0.0132                 0.0445                 0.0617
 IR Inten    --      0.5628                 0.6245                 1.8243

                     13                     14                     15
                      A                      A                      A
 Frequencies --    202.9425               209.5233               241.2378
 Red. masses --      3.7235                 4.4203                 1.0988
 Frc consts  --      0.0904                 0.1143                 0.0377
 IR Inten    --      1.3501                 2.7160                 0.3318

                     16                     17                     18
                      A                      A                      A
 Frequencies --    261.3907               278.3856               283.1037
 Red. masses --      1.9607                 2.7218                 2.1044
 Frc consts  --      0.0789                 0.1243                 0.0994
 IR Inten    --      2.1293                 2.8165                 1.5325

                     19                     20                     21
                      A                      A                      A
 Frequencies --    304.6958               341.7614               355.5887
 Red. masses --      3.6761                 3.2319                 3.4995
 Frc consts  --      0.2011                 0.2224                 0.2607
 IR Inten    --     10.4024                 9.8804                 2.7116

                     22                     23                     24
                      A                      A                      A
 Frequencies --    383.7965               393.6816               417.1342
 Red. masses --      3.6553                 2.6752                 3.6690
 Frc consts  --      0.3172                 0.2443                 0.3761
 IR Inten    --      1.0255                 0.3408                15.4464

                     25                     26                     27
                      A                      A                      A
 Frequencies --    432.4100               433.5683               477.4818
 Red. masses --      1.9216                 5.9428                 3.7657
 Frc consts  --      0.2117                 0.6582                 0.5058
 IR Inten    --      0.1621                 1.6841                 3.3626

                     28                     29                     30
                      A                      A                      A
 Frequencies --    554.0525               571.2946               606.4902
 Red. masses --      4.9977                 4.0384                 6.2052
 Frc consts  --      0.9039                 0.7766                 1.3448
 IR Inten    --     13.9583                11.2665                16.1681

                     31                     32                     33
                      A                      A                      A
 Frequencies --    615.9487               666.5117               683.9036
 Red. masses --      1.5194                 7.3917                 4.2680
 Frc consts  --      0.3396                 1.9347                 1.1762
 IR Inten    --     80.1954                 1.7868                 2.0255

                     34                     35                     36
                      A                      A                      A
 Frequencies --    725.9321               735.6355               766.9686
 Red. masses --      4.6016                 4.4929                 3.1761
 Frc consts  --      1.4287                 1.4325                 1.1008
 IR Inten    --     33.4173                34.5957                18.7792

                     37                     38                     39
                      A                      A                      A
 Frequencies --    799.4394               829.0848               868.7170
 Red. masses --      4.2918                 3.6708                 2.7696
 Frc consts  --      1.6161                 1.4867                 1.2315
 IR Inten    --      6.3386                16.3980                10.9629

                     40                     41                     42
                      A                      A                      A
 Frequencies --    877.7704               917.5071               923.8392
 Red. masses --      5.1613                 2.4435                 1.4466
 Frc consts  --      2.3430                 1.2119                 0.7274
 IR Inten    --      2.2535                 6.0191                 2.9438

                     43                     44                     45
                      A                      A                      A
 Frequencies --    945.7700               956.0644               982.4630
 Red. masses --      1.2735                 1.7345                 1.5950
 Frc consts  --      0.6712                 0.9341                 0.9071
 IR Inten    --      3.3542                 1.8801                 1.4381

                     46                     47                     48
                      A                      A                      A
 Frequencies --    984.0839              1006.2145              1021.1200
 Red. masses --      1.3943                 2.0479                 1.5012
 Frc consts  --      0.7956                 1.2217                 0.9222
 IR Inten    --      0.7915                13.1575                 0.8000

                     49                     50                     51
                      A                      A                      A
 Frequencies --   1049.0302              1058.9769              1074.2695
 Red. masses --      4.2932                 3.3846                 1.6036
 Frc consts  --      2.7836                 2.2363                 1.0904
 IR Inten    --     12.0157                52.4190                 6.7909

                     52                     53                     54
                      A                      A                      A
 Frequencies --   1145.1233              1149.2343              1178.0268
 Red. masses --      2.1473                 3.1857                 2.3791
 Frc consts  --      1.6590                 2.4790                 1.9452
 IR Inten    --     20.5631               112.4025                 9.7243

                     55                     56                     57
                      A                      A                      A
 Frequencies --   1187.5804              1204.5088              1212.1459
 Red. masses --      1.2772                 2.0459                 2.0759
 Frc consts  --      1.0613                 1.7488                 1.7971
 IR Inten    --      0.8744                 6.7711                15.7714

                     58                     59                     60
                      A                      A                      A
 Frequencies --   1224.2694              1260.9273              1266.0827
 Red. masses --      1.7491                 6.0483                 2.2906
 Frc consts  --      1.5446                 5.6658                 2.1634
 IR Inten    --      9.5803                43.6919               210.2981

                     61                     62                     63
                      A                      A                      A
 Frequencies --   1281.4176              1288.0437              1304.0748
 Red. masses --      2.3889                 1.6444                 1.5809
 Frc consts  --      2.3112                 1.6074                 1.5840
 IR Inten    --     29.4819               112.3874                69.6441

                     64                     65                     66
                      A                      A                      A
 Frequencies --   1330.2805              1340.3275              1359.0614
 Red. masses --      1.3236                 1.5179                 3.8193
 Frc consts  --      1.3800                 1.6066                 4.1563
 IR Inten    --      7.4980                81.4117                64.6478

                     67                     68                     69
                      A                      A                      A
 Frequencies --   1361.5637              1396.7571              1414.9166
 Red. masses --      1.2816                 1.3866                 1.4809
 Frc consts  --      1.3998                 1.5939                 1.7468
 IR Inten    --      9.7194                12.6426                 3.6427

                     70                     71                     72
                      A                      A                      A
 Frequencies --   1432.2614              1437.5509              1442.4430
 Red. masses --      1.3062                 1.7557                 1.8628
 Frc consts  --      1.5787                 2.1377                 2.2836
 IR Inten    --     19.6674                49.8749                84.9760

                     73                     74                     75
                      A                      A                      A
 Frequencies --   1453.0543              1491.7099              1500.5841
 Red. masses --      1.2384                 1.2217                 1.6258
 Frc consts  --      1.5405                 1.6017                 2.1570
 IR Inten    --      0.9672                 2.5644                66.1541

                     76                     77                     78
                      A                      A                      A
 Frequencies --   1504.2604              1512.0728              1513.6449
 Red. masses --      1.0447                 1.0501                 1.1001
 Frc consts  --      1.3928                 1.4146                 1.4850
 IR Inten    --      6.2363                 6.4571                 3.0060

                     79                     80                     81
                      A                      A                      A
 Frequencies --   1514.4750              1523.1168              1523.3454
 Red. masses --      1.1182                 1.0482                 1.0487
 Frc consts  --      1.5112                 1.4327                 1.4338
 IR Inten    --     14.3107                 7.3349                 2.1440

                     82                     83                     84
                      A                      A                      A
 Frequencies --   1528.1186              1530.6929              1537.2245
 Red. masses --      1.0677                 2.7859                 1.0617
 Frc consts  --      1.4690                 3.8458                 1.4782
 IR Inten    --      4.9929                14.6660                 8.1733

                     85                     86                     87
                      A                      A                      A
 Frequencies --   1547.9658              1588.0418              1630.4935
 Red. masses --      1.0473                 8.3049                 5.4688
 Frc consts  --      1.4785                12.3399                 8.5661
 IR Inten    --     13.1395                 2.4065                34.6278

                     88                     89                     90
                      A                      A                      A
 Frequencies --   1751.9493              1828.4664              3034.2022
 Red. masses --      8.0808                11.4364                 1.0824
 Frc consts  --     14.6133                22.5275                 5.8710
 IR Inten    --    365.5597               160.0094                 8.2498

                     91                     92                     93
                      A                      A                      A
 Frequencies --   3039.5012              3049.5009              3060.0679
 Red. masses --      1.0361                 1.0368                 1.0359
 Frc consts  --      5.6396                 5.6806                 5.7154
 IR Inten    --     27.7143                24.7060                11.8889

                     94                     95                     96
                      A                      A                      A
 Frequencies --   3067.3633              3082.0614              3103.0274
 Red. masses --      1.0595                 1.0292                 1.1023
 Frc consts  --      5.8734                 5.7602                 6.2537
 IR Inten    --     16.6706                32.0042                 9.4690

                     97                     98                     99
                      A                      A                      A
 Frequencies --   3108.8223              3112.9721              3114.9320
 Red. masses --      1.1031                 1.1011                 1.0859
 Frc consts  --      6.2817                 6.2865                 6.2080
 IR Inten    --      3.1391                27.9517                34.7170

                    100                    101                    102
                      A                      A                      A
 Frequencies --   3115.7858              3120.9254              3124.0177
 Red. masses --      1.0998                 1.1009                 1.1001
 Frc consts  --      6.2909                 6.3176                 6.3260
 IR Inten    --     64.7956                 7.8414                34.4348

                    103                    104                    105
                      A                      A                      A
 Frequencies --   3143.1818              3160.3789              3181.4603
 Red. masses --      1.1032                 1.1077                 1.0917
 Frc consts  --      6.4216                 6.5186                 6.5103
 IR Inten    --     11.5717                17.3520                25.9525

                    106                    107                    108
                      A                      A                      A
 Frequencies --   3191.3216              3229.4416              3603.1143
 Red. masses --      1.1078                 1.0921                 1.0751
 Frc consts  --      6.6475                 6.7106                 8.2231
 IR Inten    --     12.8758                 0.9196                62.5690

 - Thermochemistry -
 -------------------
 Temperature   298.150 Kelvin.  Pressure   1.00000 Atm.
 Atom     1 has atomic number  6 and mass  12.00000

 Molecular mass:   265.14264 amu.
 Principal axes and moments of inertia in atomic units:
                           1         2         3
     Eigenvalues --  2992.509278887.900199412.09591
           X            0.99987   0.00105   0.01603
           Y           -0.00170   0.99916   0.04101
           Z           -0.01597  -0.04104   0.99903
 This molecule is an asymmetric top.
 Rotational symmetry number  1.
 Warning -- assumption of classical behavior for rotation
           may cause significant error
 Rotational temperatures (Kelvin)      0.02894     0.00975     0.00920
 Rotational constants (GHZ):           0.60309     0.20306     0.19175
 Zero-point vibrational energy     834941.8 (Joules/Mol)
                                  199.55589 (Kcal/Mol)
 Warning -- explicit consideration of  31 degrees of freedom as
           vibrations may cause significant error
 Vibrational temperatures:     21.97    41.70    65.82    79.69    93.59
          (Kelvin)             96.14   109.95   127.57   158.71   192.17
                              215.16   258.89   291.99   301.46   347.09
                              376.08   400.53   407.32   438.39   491.72
                              511.61   552.20   566.42   600.16   622.14
                              623.81   686.99   797.16   821.97   872.60
                              886.21   958.96   983.98  1044.45  1058.42
                             1103.50  1150.21  1192.87  1249.89  1262.92
                             1320.09  1329.20  1360.75  1375.56  1413.55
                             1415.88  1447.72  1469.16  1509.32  1523.63
                             1545.63  1647.58  1653.49  1694.92  1708.66
                             1733.02  1744.01  1761.45  1814.19  1821.61
                             1843.67  1853.21  1876.27  1913.98  1928.43
                             1955.39  1958.99  2009.62  2035.75  2060.70
                             2068.32  2075.35  2090.62  2146.24  2159.01
                             2164.30  2175.54  2177.80  2178.99  2191.43
                             2191.75  2198.62  2202.33  2211.72  2227.18
                             2284.84  2345.92  2520.66  2630.76  4365.54
                             4373.16  4387.55  4402.76  4413.25  4434.40
                             4464.56  4472.90  4478.87  4481.69  4482.92
                             4490.32  4494.76  4522.34  4547.08  4577.41
                             4591.60  4646.45  5184.08

 Zero-point correction=                           0.318013 (Hartree/Particle)
 Thermal correction to Energy=                    0.338128
 Thermal correction to Enthalpy=                  0.339073
 Thermal correction to Gibbs Free Energy=         0.266751
 Sum of electronic and zero-point Energies=           -896.528762
 Sum of electronic and thermal Energies=              -896.508647
 Sum of electronic and thermal Enthalpies=            -896.507702
 Sum of electronic and thermal Free Energies=         -896.580024

                     E (Thermal)             CV                S
                      KCal/Mol        Cal/Mol-Kelvin    Cal/Mol-Kelvin
 Total                  212.179             72.549            152.214
 Electronic               0.000              0.000              0.000
 Translational            0.889              2.981             42.625
 Rotational               0.889              2.981             33.881
 Vibrational            210.401             66.588             75.709
 Vibration     1          0.593              1.986              7.170
 Vibration     2          0.593              1.984              5.898
 Vibration     3          0.595              1.979              4.993
 Vibration     4          0.596              1.975              4.615
 Vibration     5          0.597              1.971              4.298
 Vibration     6          0.598              1.970              4.245
 Vibration     7          0.599              1.965              3.981
 Vibration     8          0.601              1.957              3.689
 Vibration     9          0.606              1.941              3.264
 Vibration    10          0.613              1.920              2.894
 Vibration    11          0.618              1.903              2.678
 Vibration    12          0.629              1.867              2.329
 Vibration    13          0.639              1.836              2.106
 Vibration    14          0.642              1.826              2.048
 Vibration    15          0.658              1.777              1.794
 Vibration    16          0.669              1.743              1.652
 Vibration    17          0.679              1.713              1.544
 Vibration    18          0.682              1.705              1.515
 Vibration    19          0.696              1.665              1.391
 Vibration    20          0.721              1.592              1.204
 Vibration    21          0.731              1.564              1.141
 Vibration    22          0.753              1.505              1.024
 Vibration    23          0.761              1.484              0.986
 Vibration    24          0.780              1.433              0.902
 Vibration    25          0.793              1.400              0.851
 Vibration    26          0.794              1.397              0.847
 Vibration    27          0.834              1.300              0.717
 Vibration    28          0.909              1.131              0.536
 Vibration    29          0.927              1.093              0.502
 Vibration    30          0.965              1.018              0.439
 Vibration    31          0.976              0.998              0.423

 Optimization completed.
    -- Stationary point found.
 Normal termination of Gaussian 16 at Mon Dec 14 17:31:49 2020.

 ----------------------------------------------------------------------
 # B3LYP/6-311++G(d,p) empiricaldispersion=gd3bj scf=xqc pop=npa geom=c
 heck
 ----------------------------------------------------------------------

 --------------------------------------
 CID_43404371_JID_9018_Energie_neutraal
 --------------------------------------
 Structure from the checkpoint file:  "JID_9018.chk"
 Charge =  0 Multiplicity = 1

 SCF Done:  E(RB3LYP) =  -897.100082518     A.U. after   17 cycles
 Normal termination of Gaussian 16 at Mon Dec 14 17:41:56 2020.

 ----------------------------------------------------------------------
 # B3LYP/6-311++G(d,p) empiricaldispersion=gd3bj scf=xqc pop=npa geom=c
 heck
 ----------------------------------------------------------------------

 ------------------------------------
 CID_43404371_JID_9018_Energie_kation
 ------------------------------------
 Structure from the checkpoint file:  "JID_9018.chk"
 Charge =  1 Multiplicity = 2

 SCF Done:  E(UB3LYP) =  -896.779003646     A.U. after   33 cycles
 SCF Done:  E(UB3LYP) =  -896.779003646     a.u. after    2 cycles
 Normal termination of Gaussian 16 at Mon Dec 14 18:38:46 2020.
 Gaussian 16:  ES64L-G16RevA.03 25-Dec-2016

 ----------------------------------------------------------------------
 # B3LYP/6-311++G(d,p) empiricaldispersion=gd3bj scf=xqc pop=npa geom=c
 heck
 ----------------------------------------------------------------------

 -----------------------------------
 CID_43404371_JID_9018_Energie_anion
 -----------------------------------
 Structure from the checkpoint file:  "JID_9018.chk"
 Charge = -1 Multiplicity = 2

                         Standard orientation:
 ---------------------------------------------------------------------
 Center     Atomic      Atomic             Coordinates (Angstroms)
 Number     Number       Type             X           Y           Z
 ---------------------------------------------------------------------
      1          6           0       -5.446161    0.227946   -1.303217
      2          6           0       -4.134523   -0.058845   -0.629509
      3          6           0       -2.949683   -0.244204   -1.353558
      4          7           0       -1.778915   -0.488745   -0.762587
      5          6           0       -1.775928   -0.563484    0.573766
      6          6           0       -2.962277   -0.390119    1.302550
      7          7           0       -4.129256   -0.132472    0.712822
      8          6           0       -0.521249   -0.878232    1.345148
      9          8           0       -0.618079   -1.192990    2.531112
     10          7           0        0.696200   -0.844192    0.731406
     11          6           0        1.104870   -0.299324   -0.558863
     12          6           0        0.994034    1.241319   -0.653982
     13          6           0        1.579838    2.041316    0.519812
     14          6           0        3.085896    1.816469    0.710762
     15          6           0        1.278708    3.532263    0.318843
     16          6           0        2.508755   -0.760055   -0.931796
     17          8           0        3.056962   -0.431152   -1.959905
     18          8           0        3.074520   -1.569888   -0.011020
     19          6           0        4.410201   -2.006650   -0.318208
     20          1           0       -6.179984   -0.543995   -1.047153
     21          1           0       -5.850594    1.184215   -0.953883
     22          1           0       -5.341374    0.266703   -2.391099
     23          1           0       -2.947945   -0.190520   -2.440175
     24          1           0       -2.943938   -0.467911    2.384563
     25          1           0        1.443181   -1.100550    1.364901
     26          1           0        0.451521   -0.709854   -1.331844
     27          1           0        1.472167    1.542695   -1.593302
     28          1           0       -0.070810    1.478207   -0.748325
     29          1           0        1.069977    1.715620    1.436934
     30          1           0        3.636073    2.035819   -0.212238
     31          1           0        3.475940    2.468875    1.500073
     32          1           0        3.313645    0.785801    1.000997
     33          1           0        0.202710    3.711224    0.209234
     34          1           0        1.634084    4.123923    1.169996
     35          1           0        1.774741    3.912577   -0.583192
     36          1           0        4.420352   -2.556397   -1.261903
     37          1           0        5.078545   -1.145713   -0.397181
     38          1           0        4.703398   -2.651015    0.510115
 ---------------------------------------------------------------------

 SCF Done:  E(UB3LYP) =  -897.119391964     A.U. after   33 cycles
 SCF Done:  E(UB3LYP) =  -897.119391964     a.u. after    1 cycles

 The electronic state is 2-A.
 Alpha  occ. eigenvalues --  -19.09080 -19.02434 -18.92874 -14.19684 -14.14127
 Alpha  occ. eigenvalues --  -14.13585 -10.21270 -10.15374 -10.11417 -10.11004
 Alpha  occ. eigenvalues --  -10.07686 -10.06906 -10.06858 -10.05993 -10.04933
 Alpha  occ. eigenvalues --  -10.04861 -10.04376 -10.03766 -10.03538  -1.02876
 Alpha  occ. eigenvalues --   -0.93829  -0.88704  -0.81099  -0.79414  -0.73886
 Alpha  occ. eigenvalues --   -0.71184  -0.66813  -0.63769  -0.63126  -0.59614
 Alpha  occ. eigenvalues --   -0.57514  -0.55379  -0.49620  -0.49107  -0.48998
 Alpha  occ. eigenvalues --   -0.46411  -0.44280  -0.43182  -0.41131  -0.39503
 Alpha  occ. eigenvalues --   -0.37167  -0.36903  -0.36024  -0.35683  -0.34231
 Alpha  occ. eigenvalues --   -0.33905  -0.32428  -0.31340  -0.30299  -0.29945
 Alpha  occ. eigenvalues --   -0.29766  -0.29372  -0.28938  -0.28837  -0.26976
 Alpha  occ. eigenvalues --   -0.26771  -0.26414  -0.25924  -0.24252  -0.23517
 Alpha  occ. eigenvalues --   -0.23188  -0.22753  -0.22678  -0.21909  -0.19553
 Alpha  occ. eigenvalues --   -0.17047  -0.14327  -0.12348  -0.11721  -0.10813
 Alpha  occ. eigenvalues --   -0.08144   0.04222
 Alpha virt. eigenvalues --    0.05908   0.07214   0.08706   0.08937   0.09087
 Alpha virt. eigenvalues --    0.09378   0.10082   0.10135   0.11006   0.11354
 Alpha virt. eigenvalues --    0.11657   0.12230   0.12534   0.12909   0.12985

  Beta  occ. eigenvalues --  -19.09077 -19.02434 -18.92619 -14.19652 -14.13735
  Beta  occ. eigenvalues --  -14.12876 -10.21269 -10.15373 -10.11299 -10.11008
  Beta  occ. eigenvalues --  -10.07685 -10.06904 -10.06857 -10.05982 -10.05033
  Beta  occ. eigenvalues --  -10.04964 -10.04052 -10.03797 -10.03305  -1.02872
  Beta  occ. eigenvalues --   -0.93828  -0.88308  -0.80344  -0.79256  -0.72864
  Beta  occ. eigenvalues --   -0.71164  -0.66782  -0.63372  -0.63094  -0.59610
  Beta  occ. eigenvalues --   -0.57154  -0.55353  -0.49494  -0.48983  -0.48449
  Beta  occ. eigenvalues --   -0.46321  -0.44085  -0.43110  -0.41107  -0.39436
  Beta  occ. eigenvalues --   -0.37093  -0.36757  -0.35889  -0.35630  -0.34110
  Beta  occ. eigenvalues --   -0.33791  -0.32236  -0.31318  -0.30041  -0.29787
  Beta  occ. eigenvalues --   -0.29444  -0.29167  -0.28862  -0.28681  -0.26785
  Beta  occ. eigenvalues --   -0.26394  -0.25983  -0.25682  -0.23918  -0.23421
  Beta  occ. eigenvalues --   -0.22815  -0.22699  -0.22305  -0.21481  -0.19527
  Beta  occ. eigenvalues --   -0.14484  -0.13584  -0.11759  -0.11200  -0.09375
  Beta  occ. eigenvalues --   -0.07565
  Beta virt. eigenvalues --    0.05855   0.07154   0.08670   0.08927   0.09030
  Beta virt. eigenvalues --    0.09307   0.10046   0.10079   0.10970   0.11284
  Beta virt. eigenvalues --    0.11394   0.12002   0.12208   0.12612   0.12921

 Mulliken charges and spin densities:
               1          2
     1  C   -0.491840  -0.028995
     2  C   -0.027720   0.214513
     3  C   -0.138765  -0.053890
     4  N   -0.078269   0.330661
     5  C    0.087495   0.159634
     6  C   -0.140373  -0.047992
     7  N   -0.119585   0.189950
     8  C   -0.374099   0.059378
     9  O   -0.391689   0.088118
    10  N   -0.194984   0.002947
    11  C    0.593744   0.068129
    12  C   -0.295634  -0.029371
    13  C    0.259422   0.049283
    14  C   -0.625358  -0.042555
    15  C   -0.660653  -0.015937
    16  C   -1.137097  -0.037656
    17  O   -0.194553   0.000059
    18  O    0.026681   0.001913
    19  C   -0.229117  -0.016676
    20  H    0.110399   0.025847
    21  H    0.114667   0.024489
    22  H    0.111008  -0.000536
    23  H    0.113390   0.001845
    24  H    0.199933   0.003790
    25  H    0.368486  -0.004210
    26  H    0.317198  -0.006862
    27  H    0.171867   0.002421
    28  H    0.163520   0.000518
    29  H    0.227432   0.001920
    30  H    0.142409   0.004907
    31  H    0.125822   0.017304
    32  H    0.116715   0.012404
    33  H    0.144621  -0.000183
    34  H    0.119311   0.004521
    35  H    0.118786   0.003596
    36  H    0.169821   0.003823
    37  H    0.160491   0.010860
    38  H    0.136520   0.002032
 Sum of Mulliken charges =  -1.00000   1.00000

 Dipole moment (field-independent basis, Debye):
    X=              9.7331    Y=              1.6892    Z=             -2.7417  Tot=             10.2520
 Quadrupole moment (field-independent basis, Debye-Ang):
   XX=           -164.5711   YY=           -124.9630   ZZ=           -142.2098
   XY=             -8.8459   XZ=             12.4979   YZ=              6.0933

 Summary of Natural Population Analysis:

                                       Natural Population
                Natural  -----------------------------------------------
    Atom  No    Charge         Core      Valence    Rydberg      Total
 -----------------------------------------------------------------------
      C    1   -0.29788      0.99965     2.29305    0.00518     3.29788
      C    2    0.13301      0.99956     1.85225    0.01517     2.86699
      C    3   -0.02320      0.99955     2.01069    0.01297     3.02320
      N    4   -0.13963      0.99967     2.62812    0.01183     3.63963
      C    5    0.05653      0.99949     1.92763    0.01634     2.94347
      C    6    0.01319      0.99956     1.97437    0.01287     2.98681
      N    7   -0.19196      0.99967     2.67874    0.01354     3.69196
      C    8    0.34734      0.99964     1.63196    0.02107     2.65266
      O    9   -0.31522      0.99988     3.30947    0.00586     4.31522
      N   10   -0.32671      0.99965     2.81423    0.01283     3.82671
      C   11   -0.06276      0.99953     2.04769    0.01555     3.06276
      C   12   -0.18883      0.99959     2.18120    0.00804     3.18883
      C   13   -0.11971      0.99962     2.11312    0.00698     3.11971
      C   14   -0.28845      0.99965     2.28398    0.00482     3.28845
      C   15   -0.28076      0.99966     2.27648    0.00462     3.28076
      C   16    0.41516      0.99966     1.56070    0.02449     2.58484
      O   17   -0.31433      0.99987     3.30842    0.00604     4.31433
      O   18   -0.28005      0.99985     3.27262    0.00757     4.28005
      C   19   -0.10645      0.99961     2.09855    0.00829     3.10645
      H   20    0.10214      0.00000     0.39671    0.00114     0.39786
      H   21    0.10180      0.00000     0.39706    0.00115     0.39820
      H   22    0.09129      0.00000     0.40780    0.00090     0.40871
      H   23    0.07806      0.00000     0.42045    0.00149     0.42194
      H   24    0.09559      0.00000     0.40300    0.00142     0.40441
      H   25    0.19429      0.00000     0.30400    0.00171     0.30571
      H   26    0.13934      0.00000     0.35942    0.00125     0.36066
      H   27    0.10019      0.00000     0.39877    0.00104     0.39981
      H   28    0.11581      0.00000     0.38300    0.00119     0.38419
      H   29    0.10234      0.00000     0.39597    0.00169     0.39766
      H   30    0.09620      0.00000     0.40259    0.00121     0.40380
      H   31    0.09533      0.00000     0.40390    0.00076     0.40467
      H   32    0.09810      0.00000     0.40049    0.00141     0.40190
      H   33    0.10170      0.00000     0.39752    0.00078     0.39830
      H   34    0.09389      0.00000     0.40531    0.00081     0.40611
      H   35    0.09214      0.00000     0.40694    0.00092     0.40786
      H   36    0.09166      0.00000     0.40728    0.00106     0.40834
      H   37    0.09042      0.00000     0.40852    0.00105     0.40958
      H   38    0.09044      0.00000     0.40883    0.00074     0.40956
 =======================================================================
   * Total *    0.00000     18.99336    51.77083    0.23581    71.00000

 Normal termination of Gaussian 16 at Mon Dec 14 19:07:14 2020.
