 Gaussian 16, Revision A.03,

 -----------------------------------------------------------
 # opt freq B3LYP/6-31G(d) empiricaldispersion=gd3bj scf=xqc
 -----------------------------------------------------------

 ------------------------------
 CID_90705272_JID_7076_neutraal
 ------------------------------
 Symbolic Z-matrix:
 Charge =  0 Multiplicity = 1

 SCF Done:  E(RB3LYP) =  -1144.67463812     A.U. after   15 cycles
 SCF Done:  E(RB3LYP) =  -1144.68249257     A.U. after   13 cycles
 SCF Done:  E(RB3LYP) =  -1144.67432096     A.U. after   15 cycles
 SCF Done:  E(RB3LYP) =  -1144.68109400     A.U. after   13 cycles
 SCF Done:  E(RB3LYP) =  -1144.68515138     A.U. after   11 cycles
 SCF Done:  E(RB3LYP) =  -1144.68601537     A.U. after   14 cycles
 SCF Done:  E(RB3LYP) =  -1144.68715168     A.U. after   13 cycles
 SCF Done:  E(RB3LYP) =  -1144.68704416     A.U. after   13 cycles
 SCF Done:  E(RB3LYP) =  -1144.68849635     A.U. after   12 cycles
 SCF Done:  E(RB3LYP) =  -1144.68906645     A.U. after   12 cycles
 SCF Done:  E(RB3LYP) =  -1144.69069641     A.U. after    9 cycles
 SCF Done:  E(RB3LYP) =  -1144.69069816     A.U. after    8 cycles
 SCF Done:  E(RB3LYP) =  -1144.69069915     A.U. after    8 cycles
 SCF Done:  E(RB3LYP) =  -1144.69069936     A.U. after    7 cycles
 SCF Done:  E(RB3LYP) =  -1144.69069946     A.U. after    7 cycles
 SCF Done:  E(RB3LYP) =  -1144.69069959     A.U. after    7 cycles
 Optimization completed.
    -- Stationary point found.
 Normal termination of Gaussian 16 at Sun Dec 13 16:47:11 2020.

 --------------------------------------------------------------------
 #N Geom=AllCheck Guess=TCheck SCRF=Check GenChk RB3LYP/6-31G(d) Freq
 --------------------------------------------------------------------

 Structure from the checkpoint file:  "JID_7076.chk"
 ------------------------------
 CID_90705272_JID_7076_neutraal
 ------------------------------
 Charge =  0 Multiplicity = 1

 SCF Done:  E(RB3LYP) =  -1144.69069959     A.U. after    1 cycles

  Exact polarizability: 180.377 -14.164 144.220   2.633  11.449 140.662
 Approx polarizability: 244.019 -14.388 209.019  13.537  24.908 232.954

                      1                      2                      3
                      A                      A                      A
 Frequencies --     25.9547                31.9804                44.4776
 Red. masses --      3.9785                 4.3956                 1.8535
 Frc consts  --      0.0016                 0.0026                 0.0022
 IR Inten    --      0.8505                 1.8036                 0.3859

                      4                      5                      6
                      A                      A                      A
 Frequencies --     45.6976                53.1884                88.5147
 Red. masses --      4.0675                 3.5706                 3.8334
 Frc consts  --      0.0050                 0.0060                 0.0177
 IR Inten    --      2.2944                 0.2997                 1.2172

                      7                      8                      9
                      A                      A                      A
 Frequencies --     91.5254               107.8832               117.5724
 Red. masses --      2.8746                 2.1948                 1.5179
 Frc consts  --      0.0142                 0.0151                 0.0124
 IR Inten    --      0.7817                 0.1521                 0.5378

                     10                     11                     12
                      A                      A                      A
 Frequencies --    131.3109               140.0309               153.9157
 Red. masses --      1.3953                 1.5372                 2.4624
 Frc consts  --      0.0142                 0.0178                 0.0344
 IR Inten    --      0.7186                 2.0783                 1.1376

                     13                     14                     15
                      A                      A                      A
 Frequencies --    167.6151               197.7599               200.5952
 Red. masses --      2.5511                 1.1211                 1.1206
 Frc consts  --      0.0422                 0.0258                 0.0266
 IR Inten    --      2.4396                 0.2523                 0.6507

                     16                     17                     18
                      A                      A                      A
 Frequencies --    205.6821               221.1018               251.9245
 Red. masses --      2.2724                 3.0249                 4.8161
 Frc consts  --      0.0566                 0.0871                 0.1801
 IR Inten    --      5.4126                 6.5115                 1.0974

                     19                     20                     21
                      A                      A                      A
 Frequencies --    273.2277               276.4760               317.0567
 Red. masses --      3.0250                 3.3168                 3.1145
 Frc consts  --      0.1331                 0.1494                 0.1845
 IR Inten    --      0.7571                 0.7733                 1.3590

                     22                     23                     24
                      A                      A                      A
 Frequencies --    332.0816               342.9846               362.5514
 Red. masses --      1.0346                 3.8359                 6.3086
 Frc consts  --      0.0672                 0.2659                 0.4886
 IR Inten    --      0.2543                 2.2460                 2.1926

                     25                     26                     27
                      A                      A                      A
 Frequencies --    423.8232               474.7413               500.1821
 Red. masses --      5.6960                 7.1581                 6.2425
 Frc consts  --      0.6028                 0.9505                 0.9202
 IR Inten    --      8.0201                15.5009                42.4953

                     28                     29                     30
                      A                      A                      A
 Frequencies --    527.6633               548.3788               599.8090
 Red. masses --      3.9176                 5.9872                 4.3885
 Frc consts  --      0.6427                 1.0608                 0.9302
 IR Inten    --      3.2448                40.7334                 3.8591

                     31                     32                     33
                      A                      A                      A
 Frequencies --    657.4524               667.0886               700.0201
 Red. masses --      4.8917                 2.2449                 4.5972
 Frc consts  --      1.2458                 0.5886                 1.3273
 IR Inten    --      2.0509                 9.9346                 3.2273

                     34                     35                     36
                      A                      A                      A
 Frequencies --    707.7862               761.8023               806.6565
 Red. masses --      5.7167                 7.1152                 3.7706
 Frc consts  --      1.6873                 2.4329                 1.4456
 IR Inten    --     18.9932                59.7309                87.1550

                     37                     38                     39
                      A                      A                      A
 Frequencies --    837.0560               838.4013               847.0328
 Red. masses --      1.0591                 1.0585                 2.7067
 Frc consts  --      0.4372                 0.4384                 1.1442
 IR Inten    --      4.8609                 7.6474                23.2187

                     40                     41                     42
                      A                      A                      A
 Frequencies --    894.7240               908.6598               946.1862
 Red. masses --      2.8402                 1.5432                 3.0884
 Frc consts  --      1.3396                 0.7507                 1.6291
 IR Inten    --      3.4581                 0.4464                 0.7373

                     43                     44                     45
                      A                      A                      A
 Frequencies --    994.4848               996.1457              1001.0396
 Red. masses --      1.3439                 1.4188                 2.3376
 Frc consts  --      0.7831                 0.8295                 1.3801
 IR Inten    --      2.7222                33.5986                 1.8761

                     46                     47                     48
                      A                      A                      A
 Frequencies --   1011.5284              1043.3477              1072.7104
 Red. masses --      3.2747                 3.1896                 1.6910
 Frc consts  --      1.9742                 2.0457                 1.1464
 IR Inten    --      0.1389                15.4089                 0.9186

                     49                     50                     51
                      A                      A                      A
 Frequencies --   1082.4123              1127.3394              1132.7376
 Red. masses --      2.8744                 3.8891                 7.6433
 Frc consts  --      1.9842                 2.9121                 5.7782
 IR Inten    --     13.3357                30.3695               116.0824

                     52                     53                     54
                      A                      A                      A
 Frequencies --   1159.3125              1162.7366              1168.3146
 Red. masses --      1.3395                 1.3725                 1.2926
 Frc consts  --      1.0607                 1.0933                 1.0395
 IR Inten    --      2.9638                13.0674                 0.3896

                     55                     56                     57
                      A                      A                      A
 Frequencies --   1204.2498              1223.9921              1236.6906
 Red. masses --      1.7058                 1.3734                 1.4565
 Frc consts  --      1.4575                 1.2123                 1.3124
 IR Inten    --      9.9147                 0.2176                 0.3837

                     58                     59                     60
                      A                      A                      A
 Frequencies --   1238.6307              1239.2856              1276.9362
 Red. masses --      1.3614                 1.3540                 2.4893
 Frc consts  --      1.2306                 1.2252                 2.3915
 IR Inten    --      1.2131                 0.2023                 8.0552

                     61                     62                     63
                      A                      A                      A
 Frequencies --   1313.5067              1325.7651              1335.7275
 Red. masses --      1.9028                 1.5133                 7.3912
 Frc consts  --      1.9343                 1.5672                 7.7696
 IR Inten    --     10.7266                 3.3203               156.1808

                     64                     65                     66
                      A                      A                      A
 Frequencies --   1347.9214              1369.2477              1379.1438
 Red. masses --      1.6548                 2.6049                 1.2217
 Frc consts  --      1.7715                 2.8774                 1.3691
 IR Inten    --     26.4254                16.2113                14.8210

                     67                     68                     69
                      A                      A                      A
 Frequencies --   1426.0794              1434.0854              1457.1540
 Red. masses --      3.8568                 1.2192                 1.2491
 Frc consts  --      4.6213                 1.4773                 1.5626
 IR Inten    --     67.3471                 0.3990                 0.6200

                     70                     71                     72
                      A                      A                      A
 Frequencies --   1466.7885              1472.7841              1483.6536
 Red. masses --      1.5589                 1.2527                 1.0598
 Frc consts  --      1.9760                 1.6009                 1.3744
 IR Inten    --     14.8491                 6.6555                 4.1256

                     73                     74                     75
                      A                      A                      A
 Frequencies --   1485.8918              1494.5783              1508.8992
 Red. masses --      1.2173                 1.7213                 1.1764
 Frc consts  --      1.5835                 2.2654                 1.5781
 IR Inten    --      0.5054                15.3495                 4.2668

                     76                     77                     78
                      A                      A                      A
 Frequencies --   1513.5969              1513.7172              1515.5979
 Red. masses --      1.4746                 1.0549                 1.2157
 Frc consts  --      1.9904                 1.4242                 1.6454
 IR Inten    --      3.3396                10.7559                 1.7951

                     79                     80                     81
                      A                      A                      A
 Frequencies --   1523.5819              1530.6763              1531.1309
 Red. masses --      1.5632                 1.0787                 1.0723
 Frc consts  --      2.1379                 1.4891                 1.4812
 IR Inten    --      9.5601                10.3172                 9.4965

                     82                     83                     84
                      A                      A                      A
 Frequencies --   1533.5796              1537.3247              1540.8892
 Red. masses --      1.0457                 1.1561                 1.0728
 Frc consts  --      1.4490                 1.6098                 1.5008
 IR Inten    --      2.6443                 0.1897                10.1700

                     85                     86                     87
                      A                      A                      A
 Frequencies --   1541.6685              1547.5773              1641.1256
 Red. masses --      1.1740                 1.0754                10.4615
 Frc consts  --      1.6440                 1.5175                16.6007
 IR Inten    --      2.5134                20.5506                38.3145

                     88                     89                     90
                      A                      A                      A
 Frequencies --   3023.9631              3040.0823              3046.9367
 Red. masses --      1.0703                 1.0694                 1.0363
 Frc consts  --      5.7663                 5.8230                 5.6687
 IR Inten    --     33.7956                34.4336                23.1368

                     91                     92                     93
                      A                      A                      A
 Frequencies --   3052.0676              3070.6179              3071.1530
 Red. masses --      1.0378                 1.0478                 1.0518
 Frc consts  --      5.6956                 5.8210                 5.8449
 IR Inten    --     23.0086                24.5204                24.8888

                     94                     95                     96
                      A                      A                      A
 Frequencies --   3076.3575              3090.9906              3092.8162
 Red. masses --      1.0334                 1.0899                 1.0297
 Frc consts  --      5.7621                 6.1354                 5.8030
 IR Inten    --     35.5694                28.0246                 0.6578

                     97                     98                     99
                      A                      A                      A
 Frequencies --   3097.8684              3102.9412              3103.9918
 Red. masses --      1.1011                 1.0928                 1.1006
 Frc consts  --      6.2258                 6.1993                 6.2476
 IR Inten    --      8.4619                30.0445                18.0474

                    100                    101                    102
                      A                      A                      A
 Frequencies --   3123.1137              3123.5957              3140.3846
 Red. masses --      1.1056                 1.1022                 1.1013
 Frc consts  --      6.3535                 6.3360                 6.3991
 IR Inten    --     32.7988               100.1373                29.3012

                    103                    104                    105
                      A                      A                      A
 Frequencies --   3142.0425              3146.6032              3172.6307
 Red. masses --      1.1039                 1.1039                 1.1039
 Frc consts  --      6.4209                 6.4397                 6.5467
 IR Inten    --     19.4274                 7.8051                 9.4844

                    106                    107                    108
                      A                      A                      A
 Frequencies --   3180.2761              3189.6547              3203.1387
 Red. masses --      1.1045                 1.1060                 1.1080
 Frc consts  --      6.5818                 6.6299                 6.6982
 IR Inten    --      7.4427                 0.9728                 1.0923

 - Thermochemistry -
 -------------------
 Temperature   298.150 Kelvin.  Pressure   1.00000 Atm.
 Atom     1 has atomic number  6 and mass  12.00000

 Molecular mass:   259.13545 amu.
 Principal axes and moments of inertia in atomic units:
                           1         2         3
     Eigenvalues --  3317.804705360.480156364.10117
           X            0.99944  -0.03129  -0.01147
           Y            0.03121   0.99948  -0.00760
           Z            0.01170   0.00724   0.99991
 This molecule is an asymmetric top.
 Rotational symmetry number  1.
 Warning -- assumption of classical behavior for rotation
           may cause significant error
 Rotational temperatures (Kelvin)      0.02611     0.01616     0.01361
 Rotational constants (GHZ):           0.54396     0.33668     0.28358
 Zero-point vibrational energy     850924.0 (Joules/Mol)
                                  203.37572 (Kcal/Mol)
 Warning -- explicit consideration of  30 degrees of freedom as
           vibrations may cause significant error
 Vibrational temperatures:     37.34    46.01    63.99    65.75    76.53
          (Kelvin)            127.35   131.68   155.22   169.16   188.93
                              201.47   221.45   241.16   284.53   288.61
                              295.93   318.12   362.46   393.11   397.79
                              456.17   477.79   493.48   521.63   609.79
                              683.05   719.65   759.19   788.99   862.99
                              945.93   959.79  1007.17  1018.35  1096.06
                             1160.60  1204.34  1206.27  1218.69  1287.31
                             1307.36  1361.35  1430.84  1433.23  1440.27
                             1455.36  1501.14  1543.39  1557.35  1621.99
                             1629.76  1667.99  1672.92  1680.94  1732.65
                             1761.05  1779.32  1782.11  1783.06  1837.23
                             1889.84  1907.48  1921.81  1939.36  1970.04
                             1984.28  2051.81  2063.33  2096.52  2110.38
                             2119.01  2134.65  2137.87  2150.36  2170.97
                             2177.73  2177.90  2180.61  2192.09  2202.30
                             2202.96  2206.48  2211.87  2217.00  2218.12
                             2226.62  2361.21  4350.81  4374.00  4383.86
                             4391.24  4417.93  4418.70  4426.19  4447.25
                             4449.87  4457.14  4464.44  4465.95  4493.46
                             4494.16  4518.31  4520.70  4527.26  4564.71
                             4575.71  4589.20  4608.60

 Zero-point correction=                           0.324100 (Hartree/Particle)
 Thermal correction to Energy=                    0.344707
 Thermal correction to Enthalpy=                  0.345652
 Thermal correction to Gibbs Free Energy=         0.273052
 Sum of electronic and zero-point Energies=          -1144.366600
 Sum of electronic and thermal Energies=             -1144.345992
 Sum of electronic and thermal Enthalpies=           -1144.345048
 Sum of electronic and thermal Free Energies=        -1144.417648

                     E (Thermal)             CV                S
                      KCal/Mol        Cal/Mol-Kelvin    Cal/Mol-Kelvin
 Total                  216.307             72.562            152.799
 Electronic               0.000              0.000              0.000
 Translational            0.889              2.981             42.556
 Rotational               0.889              2.981             33.092
 Vibrational            214.530             66.600             77.150
 Vibration     1          0.593              1.985              6.117
 Vibration     2          0.594              1.983              5.703
 Vibration     3          0.595              1.980              5.049
 Vibration     4          0.595              1.979              4.995
 Vibration     5          0.596              1.976              4.695
 Vibration     6          0.601              1.957              3.693
 Vibration     7          0.602              1.955              3.627
 Vibration     8          0.606              1.943              3.307
 Vibration     9          0.608              1.935              3.140
 Vibration    10          0.612              1.922              2.927
 Vibration    11          0.615              1.913              2.803
 Vibration    12          0.619              1.898              2.623
 Vibration    13          0.624              1.882              2.462
 Vibration    14          0.637              1.843              2.154
 Vibration    15          0.638              1.839              2.128
 Vibration    16          0.640              1.832              2.082
 Vibration    17          0.648              1.809              1.950
 Vibration    18          0.664              1.760              1.717
 Vibration    19          0.676              1.723              1.576
 Vibration    20          0.678              1.717              1.555
 Vibration    21          0.704              1.641              1.325
 Vibration    22          0.714              1.611              1.250
 Vibration    23          0.722              1.590              1.198
 Vibration    24          0.736              1.549              1.111
 Vibration    25          0.786              1.418              0.879
 Vibration    26          0.831              1.306              0.724
 Vibration    27          0.856              1.250              0.658
 Vibration    28          0.883              1.189              0.592
 Vibration    29          0.904              1.143              0.548
 Vibration    30          0.958              1.032              0.450

                           ! Non-Optimized Parameters !
 Normal termination of Gaussian 16 at Sun Dec 13 17:03:52 2020.

 ----------------------------------------------------------------------
 # B3LYP/6-311++G(d,p) empiricaldispersion=gd3bj scf=xqc pop=npa geom=c
 heck
 ----------------------------------------------------------------------

 --------------------------------------
 CID_90705272_JID_7076_Energie_neutraal
 --------------------------------------
 Structure from the checkpoint file:  "JID_7076.chk"
 Charge =  0 Multiplicity = 1

 SCF Done:  E(RB3LYP) =  -1144.92418568     A.U. after   16 cycles
 Normal termination of Gaussian 16 at Sun Dec 13 17:12:38 2020.

 ----------------------------------------------------------------------
 # B3LYP/6-311++G(d,p) empiricaldispersion=gd3bj scf=xqc pop=npa geom=c
 heck
 ----------------------------------------------------------------------

 ------------------------------------
 CID_90705272_JID_7076_Energie_kation
 ------------------------------------
 Structure from the checkpoint file:  "JID_7076.chk"
 Charge =  1 Multiplicity = 2

 SCF Done:  E(UB3LYP) =  -1144.61983606     A.U. after   28 cycles
 Normal termination of Gaussian 16 at Sun Dec 13 17:34:35 2020.
 Gaussian 16:  ES64L-G16RevA.03 25-Dec-2016

 ----------------------------------------------------------------------
 # B3LYP/6-311++G(d,p) empiricaldispersion=gd3bj scf=xqc pop=npa geom=c
 heck
 ----------------------------------------------------------------------

 -----------------------------------
 CID_90705272_JID_7076_Energie_anion
 -----------------------------------
 Structure from the checkpoint file:  "JID_7076.chk"
 Charge = -1 Multiplicity = 2

                         Standard orientation:
 ---------------------------------------------------------------------
 Center     Atomic      Atomic             Coordinates (Angstroms)
 Number     Number       Type             X           Y           Z
 ---------------------------------------------------------------------
      1          6           0        2.237814    2.642845   -0.997282
      2          6           0        0.976706    3.507339   -0.943341
      3          6           0       -0.274001    1.530679    2.096422
      4          7           0        0.534541    0.658797    1.271562
      5          6           0        0.150088    0.004770    0.124380
      6          6           0        1.197968   -0.831506   -0.214524
      7          6           0        1.685874   -1.811865   -1.240120
      8          6           0        2.919316   -2.442984   -0.508931
      9          6           0        3.407738   -1.408615    0.554689
     10          6           0        2.156922   -0.611127    0.787161
     11          7           0        1.766286    0.274133    1.701865
     12          7           0       -1.083163    0.296941   -0.500638
     13          6           0       -1.013781    0.381971   -1.971041
     14         16           0       -2.407814   -0.666682    0.066482
     15          8           0       -2.725959   -1.713626   -0.910537
     16          8           0       -2.117466   -0.995653    1.461691
     17          6           0       -3.735695    0.548873    0.035224
     18          1           0        3.107409    3.231539   -1.311043
     19          1           0        2.125293    1.814920   -1.706893
     20          1           0        2.458918    2.203817   -0.020029
     21          1           0        1.087681    4.325711   -0.222680
     22          1           0        0.752006    3.956408   -1.918300
     23          1           0        0.104467    2.918532   -0.638935
     24          1           0       -0.916854    2.133481    1.451145
     25          1           0        0.401835    2.178262    2.655609
     26          1           0       -0.895016    0.949312    2.784213
     27          1           0        1.994493   -1.303860   -2.165196
     28          1           0        0.948883   -2.571447   -1.521434
     29          1           0        2.589222   -3.350207    0.008259
     30          1           0        3.710667   -2.732186   -1.206525
     31          1           0        3.799550   -1.891020    1.455574
     32          1           0        4.207767   -0.771651    0.153303
     33          1           0       -0.757502   -0.576507   -2.433248
     34          1           0       -1.977376    0.713710   -2.364990
     35          1           0       -0.259332    1.129327   -2.220301
     36          1           0       -3.483448    1.352711    0.726982
     37          1           0       -3.861920    0.928651   -0.979637
     38          1           0       -4.641661    0.030250    0.355827
 ---------------------------------------------------------------------

 SCF Done:  E(UB3LYP) =  -1144.91694243     A.U. after   31 cycles

 The electronic state is 2-A.
 Alpha  occ. eigenvalues --  -88.96793 -19.02773 -19.02665 -14.29268 -14.26675
 Alpha  occ. eigenvalues --  -14.23354 -10.14785 -10.11277 -10.11077 -10.10884
 Alpha  occ. eigenvalues --  -10.09520 -10.09309 -10.09307 -10.09228 -10.07268
 Alpha  occ. eigenvalues --  -10.06315 -10.06212  -8.03072  -5.99351  -5.99303
 Alpha  occ. eigenvalues --   -5.99126  -1.02796  -0.95608  -0.91944  -0.85527
 Alpha  occ. eigenvalues --   -0.76983  -0.72185  -0.68860  -0.67078  -0.65868
 Alpha  occ. eigenvalues --   -0.62491  -0.60570  -0.59370  -0.54056  -0.52189
 Alpha  occ. eigenvalues --   -0.50887  -0.48179  -0.46417  -0.44269  -0.41764
 Alpha  occ. eigenvalues --   -0.39573  -0.39125  -0.37873  -0.37710  -0.36712
 Alpha  occ. eigenvalues --   -0.35586  -0.34384  -0.34031  -0.33891  -0.33640
 Alpha  occ. eigenvalues --   -0.32772  -0.32397  -0.31912  -0.30569  -0.29955
 Alpha  occ. eigenvalues --   -0.29882  -0.27488  -0.26887  -0.26815  -0.26135
 Alpha  occ. eigenvalues --   -0.25604  -0.25047  -0.24760  -0.23500  -0.22316
 Alpha  occ. eigenvalues --   -0.21592  -0.20983  -0.18515  -0.14683  -0.14188
 Alpha  occ. eigenvalues --    0.03966
 Alpha virt. eigenvalues --    0.05894   0.06903   0.07387   0.07730   0.08461
 Alpha virt. eigenvalues --    0.08820   0.09097   0.09271   0.10017   0.10539
 Alpha virt. eigenvalues --    0.10872   0.11393   0.11687   0.11999   0.12258

  Beta  occ. eigenvalues --  -88.96782 -19.02762 -19.02645 -14.29240 -14.26658
  Beta  occ. eigenvalues --  -14.23335 -10.14774 -10.11232 -10.11060 -10.10788
  Beta  occ. eigenvalues --  -10.09525 -10.09304 -10.09294 -10.09222 -10.07266
  Beta  occ. eigenvalues --  -10.06288 -10.06198  -8.03057  -5.99339  -5.99292
  Beta  occ. eigenvalues --   -5.99115  -1.02751  -0.95569  -0.91898  -0.85483
  Beta  occ. eigenvalues --   -0.76962  -0.72152  -0.68793  -0.67010  -0.65838
  Beta  occ. eigenvalues --   -0.62453  -0.60507  -0.59336  -0.53980  -0.52122
  Beta  occ. eigenvalues --   -0.50856  -0.48158  -0.46381  -0.44226  -0.41716
  Beta  occ. eigenvalues --   -0.39538  -0.39083  -0.37838  -0.37671  -0.36659
  Beta  occ. eigenvalues --   -0.35536  -0.34338  -0.33982  -0.33854  -0.33609
  Beta  occ. eigenvalues --   -0.32712  -0.32374  -0.31872  -0.30540  -0.29920
  Beta  occ. eigenvalues --   -0.29861  -0.27434  -0.26868  -0.26801  -0.26107
  Beta  occ. eigenvalues --   -0.25573  -0.25025  -0.24734  -0.23477  -0.22280
  Beta  occ. eigenvalues --   -0.21551  -0.20942  -0.18486  -0.14604  -0.14124
  Beta virt. eigenvalues --    0.05968   0.06813   0.07375   0.07726   0.07985
  Beta virt. eigenvalues --    0.08776   0.09082   0.09310   0.09528   0.10487
  Beta virt. eigenvalues --    0.11078   0.11175   0.11670   0.11830   0.12264

 Mulliken charges and spin densities:
               1          2
     1  C   -0.555451   0.060758
     2  C    0.281972  -0.705659
     3  C    0.136271  -0.451494
     4  N    0.225331   0.134024
     5  C   -1.211082   0.452153
     6  C    0.434338   0.168874
     7  C   -0.398692  -0.361084
     8  C   -0.313919  -0.138936
     9  C   -0.628467   0.245650
    10  C    0.025138  -0.275845
    11  N   -0.060614  -0.096466
    12  N    0.259020  -0.003278
    13  C    0.603773  -1.010677
    14  S    0.032535   0.173606
    15  O   -0.078556   0.023752
    16  O   -0.152475   0.012563
    17  C    1.365072  -1.810314
    18  H   -0.043377   0.184460
    19  H    0.143887  -0.001198
    20  H    0.162464  -0.006756
    21  H   -0.035250   0.164983
    22  H   -0.265199   0.399566
    23  H    0.134616   0.075110
    24  H   -0.000620   0.184776
    25  H    0.122912   0.043144
    26  H    0.098221   0.092303
    27  H   -0.084007   0.255161
    28  H    0.176559  -0.010390
    29  H    0.144204   0.008425
    30  H   -0.008414   0.161765
    31  H    0.152711   0.012125
    32  H    0.043408   0.104604
    33  H   -0.040471   0.262129
    34  H   -0.386239   0.595732
    35  H    0.096377   0.037251
    36  H   -0.505416   0.717572
    37  H   -0.591253   0.806866
    38  H   -0.279308   0.494746
 Sum of Mulliken charges =  -1.00000   1.00000

 Dipole moment (field-independent basis, Debye):
    X=              6.6128    Y=             -3.6115    Z=              1.9462  Tot=              7.7820
 Quadrupole moment (field-independent basis, Debye-Ang):
   XX=           -184.0738   YY=           -160.6315   ZZ=           -153.9180
   XY=              2.2321   XZ=             -5.3985   YZ=              5.7169

 Summary of Natural Population Analysis:

                                       Natural Population
                Natural  -----------------------------------------------
    Atom  No    Charge         Core      Valence    Rydberg      Total
 -----------------------------------------------------------------------
      C    1   -0.29050      0.99968     2.28534    0.00548     3.29050
      C    2   -0.28713      0.99968     2.28264    0.00481     3.28713
      C    3   -0.17691      0.99963     2.16943    0.00785     3.17691
      N    4   -0.10171      0.99962     2.58962    0.01247     3.60171
      C    5    0.17296      0.99939     1.81111    0.01654     2.82704
      C    6   -0.07325      0.99937     2.06481    0.00907     3.07325
      C    7   -0.19472      0.99962     2.18708    0.00802     3.19472
      C    8   -0.18101      0.99966     2.17467    0.00669     3.18101
      C    9   -0.20174      0.99960     2.19540    0.00673     3.20174
      C   10    0.07908      0.99948     1.90785    0.01360     2.92092
      N   11   -0.15361      0.99968     2.64334    0.01059     3.65361
      N   12   -0.36435      0.99969     2.84792    0.01674     3.86435
      C   13   -0.17804      0.99962     2.16880    0.00962     3.17804
      S   14    1.09129      4.99928     1.81244    0.09699     6.90871
      O   15   -0.45755      0.99991     3.45201    0.00563     4.45755
      O   16   -0.45874      0.99990     3.45334    0.00550     4.45874
      C   17   -0.38574      0.99961     2.37581    0.01032     3.38574
      H   18    0.09175      0.00000     0.40743    0.00082     0.40825
      H   19    0.09457      0.00000     0.40411    0.00132     0.40543
      H   20    0.10270      0.00000     0.39583    0.00146     0.39730
      H   21    0.09420      0.00000     0.40485    0.00095     0.40580
      H   22    0.09513      0.00000     0.40379    0.00109     0.40487
      H   23    0.09720      0.00000     0.40084    0.00196     0.40280
      H   24    0.10514      0.00000     0.39301    0.00185     0.39486
      H   25    0.10444      0.00000     0.39448    0.00107     0.39556
      H   26    0.10477      0.00000     0.39416    0.00107     0.39523
      H   27    0.10105      0.00000     0.39761    0.00134     0.39895
      H   28    0.10567      0.00000     0.39314    0.00119     0.39433
      H   29    0.09538      0.00000     0.40338    0.00124     0.40462
      H   30    0.09669      0.00000     0.40219    0.00113     0.40331
      H   31    0.10323      0.00000     0.39553    0.00124     0.39677
      H   32    0.10109      0.00000     0.39740    0.00151     0.39891
      H   33    0.09661      0.00000     0.40206    0.00134     0.40339
      H   34    0.10594      0.00000     0.39211    0.00195     0.39406
      H   35    0.10534      0.00000     0.39320    0.00147     0.39466
      H   36    0.11978      0.00000     0.37737    0.00284     0.38022
      H   37    0.12163      0.00000     0.37432    0.00405     0.37837
      H   38    0.11937      0.00000     0.37919    0.00144     0.38063
 =======================================================================
   * Total *    0.00000     20.99342    48.72759    0.27899    70.00000

 Normal termination of Gaussian 16 at Sun Dec 13 17:57:28 2020.
