 Gaussian 16, Revision A.03,

 -----------------------------------------------------------
 # opt freq B3LYP/6-31G(d) empiricaldispersion=gd3bj scf=xqc
 -----------------------------------------------------------

 -------------------------------
 CID_136087239_JID_6747_neutraal
 -------------------------------
 Symbolic Z-matrix:
 Charge =  0 Multiplicity = 1

 SCF Done:  E(RB3LYP) =  -1063.52709934     A.U. after   15 cycles
 SCF Done:  E(RB3LYP) =  -1063.53473211     A.U. after   12 cycles
 SCF Done:  E(RB3LYP) =  -1063.53567367     A.U. after   12 cycles
 SCF Done:  E(RB3LYP) =  -1063.53588307     A.U. after   12 cycles
 SCF Done:  E(RB3LYP) =  -1063.53594689     A.U. after   12 cycles
 SCF Done:  E(RB3LYP) =  -1063.53598227     A.U. after   11 cycles
 SCF Done:  E(RB3LYP) =  -1063.53602083     A.U. after   12 cycles
 SCF Done:  E(RB3LYP) =  -1063.53603271     A.U. after   11 cycles
 SCF Done:  E(RB3LYP) =  -1063.53604119     A.U. after   11 cycles
 SCF Done:  E(RB3LYP) =  -1063.53604378     A.U. after   11 cycles
 SCF Done:  E(RB3LYP) =  -1063.53604460     A.U. after   10 cycles
 SCF Done:  E(RB3LYP) =  -1063.53604525     A.U. after   10 cycles
 SCF Done:  E(RB3LYP) =  -1063.53604530     A.U. after    7 cycles
 SCF Done:  E(RB3LYP) =  -1063.53604533     A.U. after    7 cycles
 Optimization completed.
    -- Stationary point found.
 Normal termination of Gaussian 16 at Thu Dec 10 23:20:58 2020.

 --------------------------------------------------------------------
 #N Geom=AllCheck Guess=TCheck SCRF=Check GenChk RB3LYP/6-31G(d) Freq
 --------------------------------------------------------------------

 Structure from the checkpoint file:  "JID_6747.chk"
 -------------------------------
 CID_136087239_JID_6747_neutraal
 -------------------------------
 Charge =  0 Multiplicity = 1

 SCF Done:  E(RB3LYP) =  -1063.53604533     A.U. after    1 cycles

  Exact polarizability: 211.349  22.592 137.326   7.347  -2.930 117.454
 Approx polarizability: 310.928  53.688 223.269  14.600  -5.471 203.892

                      1                      2                      3
                      A                      A                      A
 Frequencies --      9.7018                19.9968                47.3563
 Red. masses --      4.3442                 7.2498                 5.2871
 Frc consts  --      0.0002                 0.0017                 0.0070
 IR Inten    --      0.3081                 0.1242                 0.7984

                      4                      5                      6
                      A                      A                      A
 Frequencies --    124.5729               135.3978               168.8067
 Red. masses --      1.1547                 6.5482                 4.8753
 Frc consts  --      0.0106                 0.0707                 0.0819
 IR Inten    --      0.3461                 1.1054                 1.1898

                      7                      8                      9
                      A                      A                      A
 Frequencies --    177.6181               191.9778               222.5328
 Red. masses --      3.3204                 4.4301                 5.7216
 Frc consts  --      0.0617                 0.0962                 0.1669
 IR Inten    --      5.0259                 3.7267                 2.1499

                     10                     11                     12
                      A                      A                      A
 Frequencies --    227.4200               249.4403               297.1712
 Red. masses --      3.9672                 5.8591                 1.0642
 Frc consts  --      0.1209                 0.2148                 0.0554
 IR Inten    --      1.9751                 0.5823                19.4017

                     13                     14                     15
                      A                      A                      A
 Frequencies --    311.4716               413.6287               425.7815
 Red. masses --      3.5591                 4.6379                 4.0724
 Frc consts  --      0.2034                 0.4675                 0.4350
 IR Inten    --      3.0551                 5.4542                 6.3170

                     16                     17                     18
                      A                      A                      A
 Frequencies --    442.0463               461.4090               507.7541
 Red. masses --     10.1499                 3.6637                 5.9813
 Frc consts  --      1.1685                 0.4596                 0.9086
 IR Inten    --      0.9929                 4.3409                 1.1334

                     19                     20                     21
                      A                      A                      A
 Frequencies --    538.5906               547.2543               565.7660
 Red. masses --      5.7292                 4.0741                 3.3224
 Frc consts  --      0.9792                 0.7189                 0.6266
 IR Inten    --     36.0673                30.3652                 1.0426

                     22                     23                     24
                      A                      A                      A
 Frequencies --    572.1690               589.9296               606.9582
 Red. masses --      5.2207                 2.5474                 2.1539
 Frc consts  --      1.0070                 0.5223                 0.4675
 IR Inten    --     24.1749               147.9543                38.8337

                     25                     26                     27
                      A                      A                      A
 Frequencies --    632.2917               694.6895               707.4078
 Red. masses --      2.3654                 2.2715                 6.5877
 Frc consts  --      0.5572                 0.6459                 1.9423
 IR Inten    --    202.4665                 7.0759                 8.0970

                     28                     29                     30
                      A                      A                      A
 Frequencies --    715.5961               752.2050               786.6732
 Red. masses --      1.8720                 4.3040                 1.4215
 Frc consts  --      0.5648                 1.4348                 0.5183
 IR Inten    --     30.7475                16.0146                41.1809

                     31                     32                     33
                      A                      A                      A
 Frequencies --    857.5983               866.1302               882.0251
 Red. masses --      1.4758                 1.5452                 1.3923
 Frc consts  --      0.6395                 0.6830                 0.6382
 IR Inten    --     23.8846                21.6482                 1.7058

                     34                     35                     36
                      A                      A                      A
 Frequencies --    891.5167               907.4522               963.7631
 Red. masses --      6.6836                 4.6597                 3.5165
 Frc consts  --      3.1298                 2.2608                 1.9244
 IR Inten    --      8.8127                10.2125                32.1400

                     37                     38                     39
                      A                      A                      A
 Frequencies --    965.1898               983.4033              1013.2329
 Red. masses --      1.3168                 3.9483                 5.9186
 Frc consts  --      0.7227                 2.2497                 3.5800
 IR Inten    --      3.7860                30.3765                 7.7204

                     40                     41                     42
                      A                      A                      A
 Frequencies --   1053.9350              1076.6810              1098.9707
 Red. masses --      1.6309                 1.5884                 1.5939
 Frc consts  --      1.0673                 1.0849                 1.1342
 IR Inten    --      5.7179                 4.3848                 0.4721

                     43                     44                     45
                      A                      A                      A
 Frequencies --   1110.5902              1157.7616              1185.8011
 Red. masses --      2.1388                 1.2771                 3.2612
 Frc consts  --      1.5543                 1.0086                 2.7018
 IR Inten    --      2.7464                 2.7204                83.5463

                     46                     47                     48
                      A                      A                      A
 Frequencies --   1204.6776              1218.3764              1239.8823
 Red. masses --      1.1113                 3.1608                 1.8494
 Frc consts  --      0.9502                 2.7645                 1.6751
 IR Inten    --      2.8904                28.0294                 6.5485

                     49                     50                     51
                      A                      A                      A
 Frequencies --   1312.1694              1349.5685              1369.8013
 Red. masses --      2.0471                 1.6998                 5.2622
 Frc consts  --      2.0767                 1.8240                 5.8175
 IR Inten    --     33.4486                19.7898                19.0803

                     52                     53                     54
                      A                      A                      A
 Frequencies --   1410.8265              1445.1347              1473.2777
 Red. masses --      2.1805                 1.6755                 2.4153
 Frc consts  --      2.5571                 2.0616                 3.0888
 IR Inten    --     88.8355                50.4191                41.6652

                     55                     56                     57
                      A                      A                      A
 Frequencies --   1496.0712              1500.7801              1509.9445
 Red. masses --      2.8122                 1.0457                 1.1174
 Frc consts  --      3.7085                 1.3876                 1.5010
 IR Inten    --     14.2373                 8.1966                34.9962

                     58                     59                     60
                      A                      A                      A
 Frequencies --   1535.6176              1582.7366              1635.9342
 Red. masses --      2.5111                 5.6075                 5.8106
 Frc consts  --      3.4888                 8.2763                 9.1622
 IR Inten    --     46.5473               544.2899                 4.9841

                     61                     62                     63
                      A                      A                      A
 Frequencies --   1647.0990              1661.1020              1696.4844
 Red. masses --      7.0662                 4.1323                 1.2378
 Frc consts  --     11.2948                 6.7179                 2.0990
 IR Inten    --     91.2081                71.0331               116.1181

                     64                     65                     66
                      A                      A                      A
 Frequencies --   1809.9797              3056.9943              3113.9171
 Red. masses --      9.0792                 1.0365                 1.1002
 Frc consts  --     17.5244                 5.7072                 6.2854
 IR Inten    --    693.4328                10.3584                10.4976

                     67                     68                     69
                      A                      A                      A
 Frequencies --   3149.9709              3180.7612              3201.1828
 Red. masses --      1.1029                 1.0877                 1.0919
 Frc consts  --      6.4477                 6.4834                 6.5925
 IR Inten    --     18.2678                12.2856                20.6951

                     70                     71                     72
                      A                      A                      A
 Frequencies --   3202.7373              3228.7604              3239.5849
 Red. masses --      1.0913                 1.0941                 1.0923
 Frc consts  --      6.5956                 6.7202                 6.7541
 IR Inten    --      4.8425                 4.3512                 2.5655

                     73                     74                     75
                      A                      A                      A
 Frequencies --   3555.3024              3575.8679              3654.0586
 Red. masses --      1.0479                 1.0777                 1.0984
 Frc consts  --      7.8041                 8.1195                 8.6408
 IR Inten    --     15.8685                42.6027                10.2386

 - Thermochemistry -
 -------------------
 Temperature   298.150 Kelvin.  Pressure   1.00000 Atm.
 Atom     1 has atomic number  6 and mass  12.00000

 Molecular mass:   233.06228 amu.
 Principal axes and moments of inertia in atomic units:
                           1         2         3
     Eigenvalues --  1939.310696766.007367583.86126
           X            1.00000  -0.00160  -0.00228
           Y            0.00159   0.99998  -0.00537
           Z            0.00229   0.00537   0.99998
 This molecule is an asymmetric top.
 Rotational symmetry number  1.
 Warning -- assumption of classical behavior for rotation
           may cause significant error
 Rotational temperatures (Kelvin)      0.04466     0.01280     0.01142
 Rotational constants (GHZ):           0.93061     0.26674     0.23797
 Zero-point vibrational energy     546790.7 (Joules/Mol)
                                  130.68612 (Kcal/Mol)
 Warning -- explicit consideration of  24 degrees of freedom as
           vibrations may cause significant error
 Vibrational temperatures:     13.96    28.77    68.14   179.23   194.81
          (Kelvin)            242.88   255.55   276.21   320.18   327.21
                              358.89   427.56   448.14   595.12   612.60
                              636.01   663.86   730.54   774.91   787.38
                              814.01   823.22   848.78   873.28   909.73
                              999.50  1017.80  1029.58  1082.26  1131.85
                             1233.89  1246.17  1269.04  1282.69  1305.62
                             1386.64  1388.69  1414.90  1457.82  1516.38
                             1549.10  1581.17  1597.89  1665.76  1706.10
                             1733.26  1752.97  1783.91  1887.92  1941.73
                             1970.84  2029.86  2079.23  2119.72  2152.51
                             2159.29  2172.47  2209.41  2277.20  2353.74
                             2369.81  2389.96  2440.86  2604.16  4398.33
                             4480.23  4532.11  4576.41  4605.79  4608.02
                             4645.47  4661.04  5115.29  5144.88  5257.38

 Zero-point correction=                           0.208262 (Hartree/Particle)
 Thermal correction to Energy=                    0.223018
 Thermal correction to Enthalpy=                  0.223962
 Thermal correction to Gibbs Free Energy=         0.163746
 Sum of electronic and zero-point Energies=          -1063.327784
 Sum of electronic and thermal Energies=             -1063.313027
 Sum of electronic and thermal Enthalpies=           -1063.312083
 Sum of electronic and thermal Free Energies=        -1063.372299

                     E (Thermal)             CV                S
                      KCal/Mol        Cal/Mol-Kelvin    Cal/Mol-Kelvin
 Total                  139.946             55.892            126.735
 Electronic               0.000              0.000              0.000
 Translational            0.889              2.981             42.240
 Rotational               0.889              2.981             32.964
 Vibrational            138.169             49.930             51.531
 Vibration     1          0.593              1.987              8.071
 Vibration     2          0.593              1.986              6.635
 Vibration     3          0.595              1.979              4.925
 Vibration     4          0.610              1.928              3.028
 Vibration     5          0.613              1.918              2.868
 Vibration     6          0.625              1.881              2.449
 Vibration     7          0.628              1.870              2.353
 Vibration     8          0.634              1.851              2.209
 Vibration     9          0.648              1.807              1.938
 Vibration    10          0.651              1.799              1.899
 Vibration    11          0.662              1.764              1.735
 Vibration    12          0.691              1.679              1.433
 Vibration    13          0.700              1.652              1.355
 Vibration    14          0.777              1.441              0.914
 Vibration    15          0.788              1.414              0.873
 Vibration    16          0.802              1.378              0.820
 Vibration    17          0.819              1.336              0.762
 Vibration    18          0.863              1.233              0.639
 Vibration    19          0.894              1.165              0.568
 Vibration    20          0.902              1.146              0.550
 Vibration    21          0.922              1.105              0.512
 Vibration    22          0.928              1.091              0.500
 Vibration    23          0.947              1.053              0.467
 Vibration    24          0.966              1.017              0.438

 Optimization completed.
    -- Stationary point found.
 Normal termination of Gaussian 16 at Thu Dec 10 23:28:56 2020.

 ----------------------------------------------------------------------
 # B3LYP/6-311++G(d,p) empiricaldispersion=gd3bj scf=xqc pop=npa geom=c
 heck
 ----------------------------------------------------------------------

 ---------------------------------------
 CID_136087239_JID_6747_Energie_neutraal
 ---------------------------------------
 Structure from the checkpoint file:  "JID_6747.chk"
 Charge =  0 Multiplicity = 1

 SCF Done:  E(RB3LYP) =  -1063.75282324     A.U. after   17 cycles
 Normal termination of Gaussian 16 at Thu Dec 10 23:32:30 2020.

 ----------------------------------------------------------------------
 # B3LYP/6-311++G(d,p) empiricaldispersion=gd3bj scf=xqc pop=npa geom=c
 heck
 ----------------------------------------------------------------------

 -------------------------------------
 CID_136087239_JID_6747_Energie_kation
 -------------------------------------
 Structure from the checkpoint file:  "JID_6747.chk"
 Charge =  1 Multiplicity = 2

 SCF Done:  E(UB3LYP) =  -1063.46535937     A.U. after   28 cycles
 Normal termination of Gaussian 16 at Thu Dec 10 23:40:49 2020.
 Gaussian 16:  ES64L-G16RevA.03 25-Dec-2016

 ----------------------------------------------------------------------
 # B3LYP/6-311++G(d,p) empiricaldispersion=gd3bj scf=xqc pop=npa geom=c
 heck
 ----------------------------------------------------------------------

 ------------------------------------
 CID_136087239_JID_6747_Energie_anion
 ------------------------------------
 Structure from the checkpoint file:  "JID_6747.chk"
 Charge = -1 Multiplicity = 2

                         Standard orientation:
 ---------------------------------------------------------------------
 Center     Atomic      Atomic             Coordinates (Angstroms)
 Number     Number       Type             X           Y           Z
 ---------------------------------------------------------------------
      1          6           0       -1.564295    2.931531    0.525620
      2          6           0       -1.980278    1.516614    0.243505
      3          6           0       -3.288413    1.154870    0.080399
      4          6           0       -3.650967   -0.218161   -0.186066
      5          8           0       -4.765024   -0.692217   -0.353251
      6          7           0       -2.508921   -1.062966   -0.243804
      7          6           0       -1.233977   -0.617390   -0.071632
      8          7           0       -0.931445    0.621592    0.163877
      9         16           0        0.011771   -1.888927   -0.204797
     10          6           0        1.498361   -0.951824    0.135364
     11          6           0        2.008499   -0.924160    1.434790
     12          6           0        3.184701   -0.211754    1.669511
     13          6           0        3.833679    0.457024    0.636395
     14          6           0        3.318114    0.427852   -0.670792
     15          6           0        2.139286   -0.293600   -0.912369
     16          7           0        3.995207    1.050886   -1.719479
     17          1           0       -0.881906    3.283152   -0.256636
     18          1           0       -2.423619    3.604439    0.580007
     19          1           0       -1.012382    2.976020    1.471352
     20          1           0       -4.094093    1.875771    0.146217
     21          1           0       -2.705063   -2.042842   -0.420924
     22          1           0        1.493401   -1.440620    2.236388
     23          1           0        3.600046   -0.173132    2.672468
     24          1           0        4.751832    1.004666    0.834401
     25          1           0        1.720159   -0.334313   -1.912938
     26          1           0        3.418917    1.294215   -2.515335
     27          1           0        4.592413    1.820605   -1.444732
 ---------------------------------------------------------------------

 SCF Done:  E(UB3LYP) =  -1063.74945407     A.U. after   33 cycles
 SCF Done:  E(UB3LYP) =  -1063.74945407     a.u. after    1 cycles

 The electronic state is 2-A.
 Alpha  occ. eigenvalues --  -88.73095 -18.94857 -14.22125 -14.22050 -14.16269
 Alpha  occ. eigenvalues --  -10.13326 -10.12728 -10.10062 -10.07489 -10.06667
 Alpha  occ. eigenvalues --  -10.05174 -10.05017 -10.04822 -10.04571 -10.04462
 Alpha  occ. eigenvalues --  -10.01822  -7.81699  -5.78084  -5.77685  -5.77141
 Alpha  occ. eigenvalues --   -0.90553  -0.84725  -0.81842  -0.75993  -0.73133
 Alpha  occ. eigenvalues --   -0.67642  -0.64289  -0.61770  -0.59654  -0.58190
 Alpha  occ. eigenvalues --   -0.51054  -0.49301  -0.48297  -0.47088  -0.42263
 Alpha  occ. eigenvalues --   -0.40936  -0.39890  -0.38178  -0.36750  -0.32785
 Alpha  occ. eigenvalues --   -0.32511  -0.31883  -0.31214  -0.30297  -0.29120
 Alpha  occ. eigenvalues --   -0.28999  -0.27896  -0.27316  -0.26308  -0.24936
 Alpha  occ. eigenvalues --   -0.24025  -0.23663  -0.21668  -0.20039  -0.17218
 Alpha  occ. eigenvalues --   -0.14304  -0.13553  -0.13294  -0.12630  -0.10300
 Alpha  occ. eigenvalues --   -0.09296   0.05526
 Alpha virt. eigenvalues --    0.06749   0.08206   0.08522   0.08840   0.09787
 Alpha virt. eigenvalues --    0.10522   0.10967   0.11386   0.11650   0.12265
 Alpha virt. eigenvalues --    0.12973   0.13162   0.13447   0.14035   0.14393

  Beta  occ. eigenvalues --  -88.73093 -18.94803 -14.22053 -14.21943 -14.16396
  Beta  occ. eigenvalues --  -10.13285 -10.12355 -10.10107 -10.07342 -10.06295
  Beta  occ. eigenvalues --  -10.05083 -10.05026 -10.04676 -10.04489 -10.04427
  Beta  occ. eigenvalues --  -10.01714  -7.81697  -5.78080  -5.77695  -5.77123
  Beta  occ. eigenvalues --   -0.90380  -0.84417  -0.81825  -0.75724  -0.72909
  Beta  occ. eigenvalues --   -0.67263  -0.63958  -0.61578  -0.59469  -0.57915
  Beta  occ. eigenvalues --   -0.50682  -0.49190  -0.47934  -0.46935  -0.42036
  Beta  occ. eigenvalues --   -0.40860  -0.39760  -0.37953  -0.36624  -0.32431
  Beta  occ. eigenvalues --   -0.32253  -0.31296  -0.31062  -0.30134  -0.28886
  Beta  occ. eigenvalues --   -0.28677  -0.27657  -0.27134  -0.26197  -0.24791
  Beta  occ. eigenvalues --   -0.23850  -0.23045  -0.21461  -0.19734  -0.16151
  Beta  occ. eigenvalues --   -0.13954  -0.13125  -0.12823  -0.12269  -0.09859
  Beta  occ. eigenvalues --   -0.08657
  Beta virt. eigenvalues --    0.06680   0.08446   0.08756   0.09549   0.09713
  Beta virt. eigenvalues --    0.10445   0.10703   0.11250   0.11492   0.11714
  Beta virt. eigenvalues --    0.12276   0.13106   0.13279   0.13938   0.14024

 Mulliken charges and spin densities:
               1          2
     1  C   -0.377507   0.004070
     2  C    0.343411   0.150444
     3  C   -0.335139   0.117679
     4  C   -0.037433   0.021044
     5  O   -0.437317   0.018649
     6  N   -0.149915   0.074780
     7  C   -0.672396   0.103939
     8  N    0.097860  -0.070290
     9  S   -0.139646   0.118880
    10  C    1.680375   0.049028
    11  C   -0.782781  -0.012305
    12  C   -0.433391   0.105351
    13  C   -0.033369   0.097251
    14  C   -0.331260  -0.010084
    15  C   -0.760847   0.146765
    16  N   -0.332635  -0.003763
    17  H    0.081013   0.062858
    18  H    0.122031   0.008224
    19  H    0.141703   0.006983
    20  H    0.141690  -0.005874
    21  H    0.278342   0.019529
    22  H    0.130174   0.008159
    23  H    0.131019  -0.006448
    24  H    0.089605  -0.005912
    25  H    0.140830  -0.009664
    26  H    0.223722   0.005413
    27  H    0.221862   0.005296
 Sum of Mulliken charges =  -1.00000   1.00000

 Dipole moment (field-independent basis, Debye):
    X=              6.0758    Y=              2.0646    Z=             -0.0647  Tot=              6.4173
 Quadrupole moment (field-independent basis, Debye-Ang):
   XX=           -170.3795   YY=           -113.4973   ZZ=           -107.3198
   XY=              5.1319   XZ=             -4.4221   YZ=             -3.8786

 Summary of Natural Population Analysis:

                                       Natural Population
                Natural  -----------------------------------------------
    Atom  No    Charge         Core      Valence    Rydberg      Total
 -----------------------------------------------------------------------
      C    1   -0.29864      0.99964     2.29397    0.00504     3.29864
      C    2    0.17675      0.99953     1.81166    0.01206     2.82325
      C    3   -0.17802      0.99945     2.17015    0.00842     3.17802
      C    4    0.32730      0.99964     1.65140    0.02166     2.67270
      O    5   -0.33807      0.99988     3.33149    0.00671     4.33807
      N    6   -0.29138      0.99962     2.78118    0.01058     3.79138
      C    7    0.22692      0.99957     1.75380    0.01971     2.77308
      N    8   -0.30984      0.99962     2.79759    0.01264     3.80984
      S    9    0.11402      4.99947     2.86605    0.02046     7.88598
      C   10   -0.04700      0.99940     2.03493    0.01267     3.04700
      C   11   -0.12237      0.99949     2.11265    0.01024     3.12237
      C   12   -0.07624      0.99958     2.06772    0.00894     3.07624
      C   13   -0.10337      0.99953     2.09541    0.00843     3.10337
      C   14    0.07491      0.99949     1.91581    0.00979     2.92509
      C   15   -0.09237      0.99944     2.08351    0.00942     3.09237
      N   16   -0.40254      0.99972     2.89362    0.00920     3.90254
      H   17    0.10488      0.00000     0.39340    0.00172     0.39512
      H   18    0.09314      0.00000     0.40605    0.00080     0.40686
      H   19    0.10529      0.00000     0.39365    0.00107     0.39471
      H   20    0.09895      0.00000     0.40003    0.00102     0.40105
      H   21    0.19684      0.00000     0.30161    0.00155     0.30316
      H   22    0.10141      0.00000     0.39756    0.00103     0.39859
      H   23    0.09083      0.00000     0.40750    0.00167     0.40917
      H   24    0.08842      0.00000     0.41004    0.00154     0.41158
      H   25    0.09839      0.00000     0.40019    0.00142     0.40161
      H   26    0.18214      0.00000     0.31648    0.00138     0.31786
      H   27    0.17967      0.00000     0.31891    0.00142     0.32033
 =======================================================================
   * Total *    0.00000     19.99306    40.80635    0.20059    61.00000

 Normal termination of Gaussian 16 at Thu Dec 10 23:50:43 2020.
