 Gaussian 16, Revision A.03,

 -----------------------------------------------------------
 # opt freq B3LYP/6-31G(d) empiricaldispersion=gd3bj scf=xqc
 -----------------------------------------------------------

 -------------------------------
 CID_121527336_JID_8852_neutraal
 -------------------------------
 Symbolic Z-matrix:
 Charge =  0 Multiplicity = 1

 SCF Done:  E(RB3LYP) =  -1269.39258409     A.U. after   15 cycles
 SCF Done:  E(RB3LYP) =  -1269.40041729     A.U. after   12 cycles
 SCF Done:  E(RB3LYP) =  -1269.40234431     A.U. after   12 cycles
 SCF Done:  E(RB3LYP) =  -1269.40397589     A.U. after   14 cycles
 SCF Done:  E(RB3LYP) =  -1269.40495913     A.U. after   15 cycles
 SCF Done:  E(RB3LYP) =  -1269.40620421     A.U. after   12 cycles
 SCF Done:  E(RB3LYP) =  -1269.40623156     A.U. after   12 cycles
 SCF Done:  E(RB3LYP) =  -1269.40659768     A.U. after   11 cycles
 SCF Done:  E(RB3LYP) =  -1269.40661950     A.U. after   12 cycles
 SCF Done:  E(RB3LYP) =  -1269.40667320     A.U. after   11 cycles
 SCF Done:  E(RB3LYP) =  -1269.40864414     A.U. after    9 cycles
 SCF Done:  E(RB3LYP) =  -1269.40864429     A.U. after    9 cycles
 SCF Done:  E(RB3LYP) =  -1269.40864436     A.U. after    8 cycles
 SCF Done:  E(RB3LYP) =  -1269.40864439     A.U. after    7 cycles
 Optimization completed.
    -- Stationary point found.
 Normal termination of Gaussian 16 at Fri Dec 11 22:31:50 2020.

 --------------------------------------------------------------------
 #N Geom=AllCheck Guess=TCheck SCRF=Check GenChk RB3LYP/6-31G(d) Freq
 --------------------------------------------------------------------

 Structure from the checkpoint file:  "JID_8852.chk"
 -------------------------------
 CID_121527336_JID_8852_neutraal
 -------------------------------
 Charge =  0 Multiplicity = 1

 SCF Done:  E(RB3LYP) =  -1269.40864439     A.U. after    1 cycles

  Exact polarizability: 196.480  -1.127 143.984   9.295   1.045  98.961
 Approx polarizability: 235.430   8.125 245.760  13.941   7.799 157.685

                      1                      2                      3
                      A                      A                      A
 Frequencies --      9.3996                21.0084                37.6093
 Red. masses --      6.2388                 5.3878                 5.7312
 Frc consts  --      0.0003                 0.0014                 0.0048
 IR Inten    --      1.1683                 4.8507                 4.9735

                      4                      5                      6
                      A                      A                      A
 Frequencies --     64.0072                67.6578                87.1543
 Red. masses --      5.9716                 4.4138                 4.0077
 Frc consts  --      0.0144                 0.0119                 0.0179
 IR Inten    --      0.4186                 1.2809                 6.5052

                      7                      8                      9
                      A                      A                      A
 Frequencies --    101.7085               111.6318               129.9970
 Red. masses --      3.2661                 3.9984                 1.2179
 Frc consts  --      0.0199                 0.0294                 0.0121
 IR Inten    --      1.4431                 0.9359                 0.2098

                     10                     11                     12
                      A                      A                      A
 Frequencies --    152.4516               163.9338               211.1758
 Red. masses --      3.1748                 4.2178                 4.6470
 Frc consts  --      0.0435                 0.0668                 0.1221
 IR Inten    --      0.9690                 2.4540                 4.8299

                     13                     14                     15
                      A                      A                      A
 Frequencies --    225.5466               239.1549               252.5323
 Red. masses --      5.3152                 4.0885                 5.9119
 Frc consts  --      0.1593                 0.1378                 0.2221
 IR Inten    --      8.9603                 1.7505                 2.3999

                     16                     17                     18
                      A                      A                      A
 Frequencies --    312.4725               335.4687               345.9326
 Red. masses --      4.2790                 5.1903                 3.1596
 Frc consts  --      0.2462                 0.3442                 0.2228
 IR Inten    --      6.4861                 0.9690                 9.7427

                     19                     20                     21
                      A                      A                      A
 Frequencies --    352.1708               386.9114               438.7084
 Red. masses --      3.5155                 5.5381                 4.6264
 Frc consts  --      0.2569                 0.4885                 0.5246
 IR Inten    --      8.8707                 0.7791                19.6422

                     22                     23                     24
                      A                      A                      A
 Frequencies --    458.1473               503.4768               527.2546
 Red. masses --      5.4231                 6.3498                 4.5075
 Frc consts  --      0.6707                 0.9483                 0.7383
 IR Inten    --     12.7346                19.6509                 7.2081

                     25                     26                     27
                      A                      A                      A
 Frequencies --    581.2284               642.4223               678.7475
 Red. masses --      3.9302                 4.6397                 3.8707
 Frc consts  --      0.7823                 1.1282                 1.0507
 IR Inten    --     31.1977                 0.3066                13.1475

                     28                     29                     30
                      A                      A                      A
 Frequencies --    701.7283               710.2108               730.0629
 Red. masses --      4.2178                 6.1316                 3.2467
 Frc consts  --      1.2237                 1.8222                 1.0196
 IR Inten    --     36.9671                20.4561               138.5623

                     31                     32                     33
                      A                      A                      A
 Frequencies --    770.7985               795.7658               818.6776
 Red. masses --      4.0303                 1.0913                 5.2654
 Frc consts  --      1.4108                 0.4071                 2.0793
 IR Inten    --     20.3759                 6.8155                17.1516

                     34                     35                     36
                      A                      A                      A
 Frequencies --    832.3422               843.5501               876.4395
 Red. masses --      1.6764                 1.2376                 1.3529
 Frc consts  --      0.6843                 0.5188                 0.6123
 IR Inten    --      6.9008                23.1803                60.6846

                     37                     38                     39
                      A                      A                      A
 Frequencies --    921.4485               929.7338               944.2410
 Red. masses --      3.7092                 2.7839                 3.7830
 Frc consts  --      1.8556                 1.4178                 1.9873
 IR Inten    --     49.3783                85.1642                 0.4187

                     40                     41                     42
                      A                      A                      A
 Frequencies --    981.1702               995.5851              1041.1401
 Red. masses --      3.6678                 2.9322                 6.8124
 Frc consts  --      2.0804                 1.7124                 4.3508
 IR Inten    --      2.7865                10.3884                12.9003

                     43                     44                     45
                      A                      A                      A
 Frequencies --   1063.1395              1079.6532              1090.3676
 Red. masses --      4.2222                 1.4458                 2.1011
 Frc consts  --      2.8117                 0.9929                 1.4718
 IR Inten    --     66.8546                17.6455                14.2715

                     46                     47                     48
                      A                      A                      A
 Frequencies --   1093.6968              1108.3318              1119.1850
 Red. masses --      1.3221                 1.3701                 3.3169
 Frc consts  --      0.9318                 0.9916                 2.4478
 IR Inten    --      6.7373                 0.2392                75.1970

                     49                     50                     51
                      A                      A                      A
 Frequencies --   1129.3044              1131.8972              1143.9493
 Red. masses --      1.1891                 4.2368                 2.3827
 Frc consts  --      0.8935                 3.1982                 1.8371
 IR Inten    --     12.7200               100.7197                19.4826

                     52                     53                     54
                      A                      A                      A
 Frequencies --   1186.3010              1191.2122              1212.6174
 Red. masses --      1.2725                 2.6967                 1.3370
 Frc consts  --      1.0551                 2.2546                 1.1583
 IR Inten    --      0.8964                86.8078                 0.9351

                     55                     56                     57
                      A                      A                      A
 Frequencies --   1218.8502              1231.8924              1233.3268
 Red. masses --      1.5872                 2.0254                 2.9745
 Frc consts  --      1.3893                 1.8110                 2.6658
 IR Inten    --     41.0588                81.1483               398.4467

                     58                     59                     60
                      A                      A                      A
 Frequencies --   1261.6393              1303.3542              1310.8971
 Red. masses --      1.2367                 4.9891                 3.0766
 Frc consts  --      1.1598                 4.9934                 3.1150
 IR Inten    --      5.4321               123.0018               110.0309

                     61                     62                     63
                      A                      A                      A
 Frequencies --   1346.4582              1352.2720              1393.5893
 Red. masses --      2.8026                 1.8446                 1.3242
 Frc consts  --      2.9936                 1.9873                 1.5153
 IR Inten    --     17.8656                45.0138                 3.4854

                     64                     65                     66
                      A                      A                      A
 Frequencies --   1415.0433              1417.3595              1481.6802
 Red. masses --      2.0589                 2.3272                 1.2514
 Frc consts  --      2.4289                 2.7545                 1.6187
 IR Inten    --     17.3168                66.4700                53.7240

                     67                     68                     69
                      A                      A                      A
 Frequencies --   1483.9250              1491.7479              1501.8487
 Red. masses --      1.1443                 1.2932                 1.5295
 Frc consts  --      1.4847                 1.6956                 2.0326
 IR Inten    --     39.4665                12.9476                58.1853

                     70                     71                     72
                      A                      A                      A
 Frequencies --   1510.3691              1511.8834              1521.6377
 Red. masses --      2.0539                 1.0475                 1.3077
 Frc consts  --      2.7606                 1.4107                 1.7839
 IR Inten    --      9.7045                 6.1877                 0.5076

                     73                     74                     75
                      A                      A                      A
 Frequencies --   1525.5806              1531.8860              1571.6866
 Red. masses --      1.0513                 1.0903                 5.3327
 Frc consts  --      1.4416                 1.5074                 7.7611
 IR Inten    --     10.5833                16.5929                45.3332

                     76                     77                     78
                      A                      A                      A
 Frequencies --   1838.7105              3035.1730              3077.3725
 Red. masses --     12.0039                 1.0707                 1.0294
 Frc consts  --     23.9111                 5.8115                 5.7437
 IR Inten    --    262.8906                31.1201                35.3677

                     79                     80                     81
                      A                      A                      A
 Frequencies --   3093.1903              3140.4021              3148.5052
 Red. masses --      1.0596                 1.0939                 1.1071
 Frc consts  --      5.9734                 6.3565                 6.4661
 IR Inten    --     13.0199                 5.3054                 7.8917

                     82                     83                     84
                      A                      A                      A
 Frequencies --   3152.7329              3164.3798              3168.6673
 Red. masses --      1.1076                 1.0532                 1.0552
 Frc consts  --      6.4867                 6.2138                 6.2424
 IR Inten    --     19.1305                 5.7260                 8.4795

                     85                     86                     87
                      A                      A                      A
 Frequencies --   3184.3427              3217.5786              3247.1253
 Red. masses --      1.1073                 1.0913                 1.1203
 Frc consts  --      6.6155                 6.6568                 6.9594
 IR Inten    --     16.3827                 0.1892                 1.0087

                     88                     89                     90
                      A                      A                      A
 Frequencies --   3259.9134              3315.9770              3453.2260
 Red. masses --      1.1168                 1.1000                 1.0749
 Frc consts  --      6.9925                 7.1261                 7.5522
 IR Inten    --      2.1792                 2.9310               156.2392

 - Thermochemistry -
 -------------------
 Temperature   298.150 Kelvin.  Pressure   1.00000 Atm.
 Atom     1 has atomic number  6 and mass  12.00000

 Molecular mass:   274.07358 amu.
 Principal axes and moments of inertia in atomic units:
                           1         2         3
     Eigenvalues --  1800.20418********************
           X            0.99990  -0.01243   0.00662
           Y            0.01242   0.99992   0.00196
           Z           -0.00665  -0.00188   0.99998
 This molecule is an asymmetric top.
 Rotational symmetry number  1.
 Warning -- assumption of classical behavior for rotation
           may cause significant error
 Rotational temperatures (Kelvin)      0.04811     0.00662     0.00616
 Rotational constants (GHZ):           1.00252     0.13798     0.12842
 Zero-point vibrational energy     657914.3 (Joules/Mol)
                                  157.24530 (Kcal/Mol)
 Warning -- explicit consideration of  25 degrees of freedom as
           vibrations may cause significant error
 Vibrational temperatures:     13.52    30.23    54.11    92.09    97.34
          (Kelvin)            125.40   146.34   160.61   187.04   219.34
                              235.86   303.83   324.51   344.09   363.34
                              449.58   482.66   497.72   506.70   556.68
                              631.20   659.17   724.39   758.60   836.26
                              924.30   976.57  1009.63  1021.83  1050.40
                             1109.01  1144.93  1177.89  1197.55  1213.68
                             1261.00  1325.76  1337.68  1358.55  1411.69
                             1432.42  1497.97  1529.62  1553.38  1568.80
                             1573.59  1594.64  1610.26  1624.82  1628.55
                             1645.89  1706.82  1713.89  1744.69  1753.65
                             1772.42  1774.48  1815.22  1875.24  1886.09
                             1937.25  1945.62  2005.06  2035.93  2039.26
                             2131.81  2135.04  2146.29  2160.83  2173.08
                             2175.26  2189.30  2194.97  2204.04  2261.31
                             2645.49  4366.94  4427.65  4450.41  4518.34
                             4530.00  4536.08  4552.84  4559.01  4581.56
                             4629.38  4671.89  4690.29  4770.95  4968.42

 Zero-point correction=                           0.250586 (Hartree/Particle)
 Thermal correction to Energy=                    0.268559
 Thermal correction to Enthalpy=                  0.269503
 Thermal correction to Gibbs Free Energy=         0.200537
 Sum of electronic and zero-point Energies=          -1269.158058
 Sum of electronic and thermal Energies=             -1269.140085
 Sum of electronic and thermal Enthalpies=           -1269.139141
 Sum of electronic and thermal Free Energies=        -1269.208107

                     E (Thermal)             CV                S
                      KCal/Mol        Cal/Mol-Kelvin    Cal/Mol-Kelvin
 Total                  168.523             64.537            145.151
 Electronic               0.000              0.000              0.000
 Translational            0.889              2.981             42.723
 Rotational               0.889              2.981             34.158
 Vibrational            166.746             58.576             68.269
 Vibration     1          0.593              1.987              8.134
 Vibration     2          0.593              1.986              6.537
 Vibration     3          0.594              1.982              5.381
 Vibration     4          0.597              1.971              4.330
 Vibration     5          0.598              1.970              4.220
 Vibration     6          0.601              1.958              3.723
 Vibration     7          0.604              1.948              3.421
 Vibration     8          0.607              1.940              3.240
 Vibration     9          0.612              1.923              2.946
 Vibration    10          0.619              1.900              2.641
 Vibration    11          0.623              1.887              2.504
 Vibration    12          0.643              1.824              2.033
 Vibration    13          0.650              1.802              1.914
 Vibration    14          0.657              1.781              1.809
 Vibration    15          0.664              1.759              1.713
 Vibration    16          0.701              1.650              1.349
 Vibration    17          0.717              1.605              1.234
 Vibration    18          0.724              1.584              1.185
 Vibration    19          0.729              1.571              1.156
 Vibration    20          0.755              1.498              1.012
 Vibration    21          0.799              1.386              0.831
 Vibration    22          0.816              1.343              0.772
 Vibration    23          0.859              1.242              0.649
 Vibration    24          0.882              1.190              0.593
 Vibration    25          0.938              1.072              0.483

                           ! Non-Optimized Parameters !
 Normal termination of Gaussian 16 at Fri Dec 11 22:43:30 2020.

 ----------------------------------------------------------------------
 # B3LYP/6-311++G(d,p) empiricaldispersion=gd3bj scf=xqc pop=npa geom=c
 heck
 ----------------------------------------------------------------------

 ---------------------------------------
 CID_121527336_JID_8852_Energie_neutraal
 ---------------------------------------
 Structure from the checkpoint file:  "JID_8852.chk"
 Charge =  0 Multiplicity = 1

 SCF Done:  E(RB3LYP) =  -1269.68549429     A.U. after   15 cycles
 Normal termination of Gaussian 16 at Fri Dec 11 22:49:06 2020.

 ----------------------------------------------------------------------
 # B3LYP/6-311++G(d,p) empiricaldispersion=gd3bj scf=xqc pop=npa geom=c
 heck
 ----------------------------------------------------------------------

 -------------------------------------
 CID_121527336_JID_8852_Energie_kation
 -------------------------------------
 Structure from the checkpoint file:  "JID_8852.chk"
 Charge =  1 Multiplicity = 2

 SCF Done:  E(UB3LYP) =  -1269.34396303     A.U. after   33 cycles
 SCF Done:  E(UB3LYP) =  -1269.34396303     a.u. after    1 cycles
 Normal termination of Gaussian 16 at Fri Dec 11 23:06:54 2020.
 Gaussian 16:  ES64L-G16RevA.03 25-Dec-2016

 ----------------------------------------------------------------------
 # B3LYP/6-311++G(d,p) empiricaldispersion=gd3bj scf=xqc pop=npa geom=c
 heck
 ----------------------------------------------------------------------

 ------------------------------------
 CID_121527336_JID_8852_Energie_anion
 ------------------------------------
 Structure from the checkpoint file:  "JID_8852.chk"
 Charge = -1 Multiplicity = 2

                         Standard orientation:
 ---------------------------------------------------------------------
 Center     Atomic      Atomic             Coordinates (Angstroms)
 Number     Number       Type             X           Y           Z
 ---------------------------------------------------------------------
      1          6           0        6.545990    0.001364    0.574894
      2          8           0        5.183612   -0.331822    0.264852
      3          6           0        4.355908    0.734473    0.124159
      4          8           0        4.704241    1.886268    0.241578
      5          6           0        2.990168    0.274678   -0.189003
      6          6           0        2.521192   -1.017878   -0.345388
      7          7           0        1.210221   -0.869362   -0.621425
      8          7           0        0.878002    0.454111   -0.636558
      9          7           0        1.948580    1.138872   -0.373025
     10          6           0        0.195487   -1.889707   -0.886651
     11          6           0       -1.020614   -1.749589    0.024562
     12          7           0       -1.811312   -0.581079   -0.381828
     13         16           0       -3.262380   -0.382439    0.470468
     14          8           0       -3.891724   -1.706964    0.506303
     15          8           0       -3.054106    0.364903    1.720365
     16          6           0       -4.127024    0.684798   -0.655107
     17          6           0       -5.130569    1.646368   -0.071645
     18          6           0       -3.831514    2.164706   -0.619189
     19          1           0        7.069239   -0.951719    0.652918
     20          1           0        6.599919    0.549997    1.518677
     21          1           0        6.979244    0.616241   -0.218134
     22          1           0        3.009909   -1.976610   -0.281486
     23          1           0       -0.111037   -1.815998   -1.934081
     24          1           0        0.674307   -2.858165   -0.724999
     25          1           0       -1.652300   -2.633067   -0.091684
     26          1           0       -0.690414   -1.701149    1.071934
     27          1           0       -1.251297    0.274300   -0.331959
     28          1           0       -4.328910    0.192749   -1.600179
     29          1           0       -6.044499    1.794645   -0.637804
     30          1           0       -5.245580    1.645412    1.007232
     31          1           0       -3.097295    2.510190    0.101798
     32          1           0       -3.821959    2.680061   -1.574434
 ---------------------------------------------------------------------

 SCF Done:  E(UB3LYP) =  -1269.68570680     A.U. after   33 cycles
 SCF Done:  E(UB3LYP) =  -1269.68570680     a.u. after    1 cycles

 The electronic state is 2-A.
 Alpha  occ. eigenvalues --  -88.97337 -19.06594 -19.02838 -19.02823 -18.99387
 Alpha  occ. eigenvalues --  -14.29841 -14.27057 -14.24759 -14.23782 -10.18395
 Alpha  occ. eigenvalues --  -10.13853 -10.13536 -10.13503 -10.12907 -10.11386
 Alpha  occ. eigenvalues --  -10.11336 -10.10623 -10.09517  -8.03552  -5.99818
 Alpha  occ. eigenvalues --   -5.99791  -5.99651  -1.02978  -1.00438  -0.99680
 Alpha  occ. eigenvalues --   -0.91919  -0.91207  -0.84363  -0.81827  -0.80443
 Alpha  occ. eigenvalues --   -0.71479  -0.68412  -0.64135  -0.62051  -0.56419
 Alpha  occ. eigenvalues --   -0.55120  -0.54014  -0.50520  -0.50065  -0.47354
 Alpha  occ. eigenvalues --   -0.46079  -0.44368  -0.42589  -0.42070  -0.41838
 Alpha  occ. eigenvalues --   -0.39804  -0.39177  -0.37650  -0.37184  -0.36095
 Alpha  occ. eigenvalues --   -0.35435  -0.34575  -0.33468  -0.32469  -0.31600
 Alpha  occ. eigenvalues --   -0.31361  -0.30499  -0.29682  -0.27116  -0.26481
 Alpha  occ. eigenvalues --   -0.26090  -0.25040  -0.24057  -0.23688  -0.22104
 Alpha  occ. eigenvalues --   -0.21927  -0.21133  -0.19884  -0.18127  -0.17648
 Alpha  occ. eigenvalues --   -0.17460  -0.16504   0.03719
 Alpha virt. eigenvalues --    0.05198   0.06108   0.06495   0.07607   0.08139
 Alpha virt. eigenvalues --    0.08282   0.08896   0.09663   0.09714   0.10221
 Alpha virt. eigenvalues --    0.10687   0.11312   0.12064   0.12250   0.13218

  Beta  occ. eigenvalues --  -88.97336 -19.06569 -19.02834 -19.02818 -18.99207
  Beta  occ. eigenvalues --  -14.29692 -14.27079 -14.24758 -14.23798 -10.18232
  Beta  occ. eigenvalues --  -10.13852 -10.13509 -10.13493 -10.12897 -10.11376
  Beta  occ. eigenvalues --  -10.11322 -10.10351 -10.09494  -8.03551  -5.99818
  Beta  occ. eigenvalues --   -5.99791  -5.99649  -1.02968  -1.00290  -0.99568
  Beta  occ. eigenvalues --   -0.91909  -0.90950  -0.84327  -0.81689  -0.80418
  Beta  occ. eigenvalues --   -0.71215  -0.68351  -0.64037  -0.62005  -0.56318
  Beta  occ. eigenvalues --   -0.54918  -0.53978  -0.50485  -0.49876  -0.47236
  Beta  occ. eigenvalues --   -0.46013  -0.44227  -0.42515  -0.42013  -0.41806
  Beta  occ. eigenvalues --   -0.39618  -0.38916  -0.37460  -0.36981  -0.35982
  Beta  occ. eigenvalues --   -0.35340  -0.34527  -0.33375  -0.32414  -0.31397
  Beta  occ. eigenvalues --   -0.31276  -0.30474  -0.29212  -0.27056  -0.26458
  Beta  occ. eigenvalues --   -0.26070  -0.25020  -0.24036  -0.23678  -0.22095
  Beta  occ. eigenvalues --   -0.21916  -0.20634  -0.19269  -0.18095  -0.17607
  Beta  occ. eigenvalues --   -0.17315  -0.15780
  Beta virt. eigenvalues --    0.05908   0.06178   0.07099   0.07927   0.08000
  Beta virt. eigenvalues --    0.08386   0.08632   0.09107   0.09877   0.10269
  Beta virt. eigenvalues --    0.10350   0.10612   0.11655   0.12062   0.12246

 Mulliken charges and spin densities:
               1          2
     1  C   -0.146382  -0.073860
     2  O   -0.140766   0.007929
     3  C   -0.092355  -0.098746
     4  O   -0.303284   0.058339
     5  C    0.527471  -0.525653
     6  C   -0.613275   0.717253
     7  N    0.204430   0.123252
     8  N   -0.343066   0.065144
     9  N   -0.048530   0.040033
    10  C    1.343476  -1.765279
    11  C   -0.912370   0.478144
    12  N   -0.246459   0.063882
    13  S    0.374331  -0.300864
    14  O   -0.209814   0.001461
    15  O   -0.156631  -0.003474
    16  C   -0.593437   0.397638
    17  C    0.341466  -0.717578
    18  C    0.002823  -0.264598
    19  H    0.092096   0.039815
    20  H    0.145045   0.022083
    21  H    0.154240   0.012716
    22  H   -0.224634   0.414507
    23  H   -0.291915   0.530342
    24  H   -0.338332   0.509372
    25  H    0.100119   0.116448
    26  H    0.242546  -0.038438
    27  H    0.218201   0.082335
    28  H   -0.256929   0.571874
    29  H   -0.161145   0.324560
    30  H    0.144239   0.027848
    31  H    0.193334   0.017093
    32  H   -0.004491   0.166419
 Sum of Mulliken charges =  -1.00000   1.00000

 Dipole moment (field-independent basis, Debye):
    X=              0.7771    Y=             -0.1942    Z=              2.4179  Tot=              2.5471
 Quadrupole moment (field-independent basis, Debye-Ang):
   XX=           -188.9581   YY=           -154.1362   ZZ=           -141.9166
   XY=            -15.6350   XZ=              2.3491   YZ=             -6.0607

 Summary of Natural Population Analysis:

                                       Natural Population
                Natural  -----------------------------------------------
    Atom  No    Charge         Core      Valence    Rydberg      Total
 -----------------------------------------------------------------------
      C    1   -0.10486      0.99961     2.09688    0.00838     3.10486
      O    2   -0.28154      0.99987     3.27422    0.00745     4.28154
      C    3    0.40674      0.99964     1.56939    0.02423     2.59326
      O    4   -0.28554      0.99987     3.28064    0.00503     4.28554
      C    5   -0.01740      0.99950     2.00266    0.01524     3.01740
      C    6    0.05384      0.99952     1.93555    0.01110     2.94616
      N    7   -0.08922      0.99966     2.57612    0.01345     3.58922
      N    8   -0.07428      0.99977     2.55764    0.01687     3.57428
      N    9   -0.11267      0.99973     2.60008    0.01287     3.61267
      C   10   -0.08715      0.99959     2.07537    0.01219     3.08715
      C   11   -0.09891      0.99961     2.08780    0.01149     3.09891
      N   12   -0.44054      0.99975     2.92892    0.01187     3.94054
      S   13    1.09875      4.99926     1.80286    0.09913     6.90125
      O   14   -0.46396      0.99991     3.45870    0.00535     4.46396
      O   15   -0.46965      0.99991     3.46489    0.00485     4.46965
      C   16   -0.22916      0.99952     2.21311    0.01654     3.22916
      C   17   -0.19453      0.99962     2.18487    0.01004     3.19453
      C   18   -0.19535      0.99962     2.18572    0.01001     3.19535
      H   19    0.08679      0.00000     0.41225    0.00096     0.41321
      H   20    0.08905      0.00000     0.40954    0.00141     0.41095
      H   21    0.08907      0.00000     0.40946    0.00147     0.41093
      H   22    0.11048      0.00000     0.38796    0.00156     0.38952
      H   23    0.11148      0.00000     0.38525    0.00327     0.38852
      H   24    0.10877      0.00000     0.38963    0.00160     0.39123
      H   25    0.11294      0.00000     0.38591    0.00115     0.38706
      H   26    0.09356      0.00000     0.40528    0.00116     0.40644
      H   27    0.20983      0.00000     0.28699    0.00318     0.29017
      H   28    0.12636      0.00000     0.37217    0.00147     0.37364
      H   29    0.10851      0.00000     0.39034    0.00115     0.39149
      H   30    0.11449      0.00000     0.38456    0.00095     0.38551
      H   31    0.11473      0.00000     0.38425    0.00102     0.38527
      H   32    0.10939      0.00000     0.38964    0.00097     0.39061
 =======================================================================
   * Total *    0.00000     21.99394    49.68864    0.31742    72.00000

 Normal termination of Gaussian 16 at Fri Dec 11 23:24:55 2020.
