 Gaussian 16, Revision A.03,

 -----------------------------------------------------------
 # opt freq B3LYP/6-31G(d) empiricaldispersion=gd3bj scf=xqc
 -----------------------------------------------------------

 -------------------------------
 CID_118170696_JID_5573_neutraal
 -------------------------------
 Symbolic Z-matrix:
 Charge =  0 Multiplicity = 1

 SCF Done:  E(RB3LYP) =  -704.811101745     A.U. after   15 cycles
 SCF Done:  E(RB3LYP) =  -704.814299096     A.U. after   12 cycles
 SCF Done:  E(RB3LYP) =  -704.814711449     A.U. after   12 cycles
 SCF Done:  E(RB3LYP) =  -704.814978403     A.U. after   12 cycles
 SCF Done:  E(RB3LYP) =  -704.815235729     A.U. after   12 cycles
 SCF Done:  E(RB3LYP) =  -704.815613410     A.U. after   12 cycles
 SCF Done:  E(RB3LYP) =  -704.816406401     A.U. after   15 cycles
 SCF Done:  E(RB3LYP) =  -704.816937248     A.U. after   12 cycles
 SCF Done:  E(RB3LYP) =  -704.817547518     A.U. after   14 cycles
 SCF Done:  E(RB3LYP) =  -704.817836250     A.U. after   14 cycles
 SCF Done:  E(RB3LYP) =  -704.818163443     A.U. after    8 cycles
 SCF Done:  E(RB3LYP) =  -704.818163564     A.U. after    8 cycles
 SCF Done:  E(RB3LYP) =  -704.818163658     A.U. after    8 cycles
 SCF Done:  E(RB3LYP) =  -704.818163740     A.U. after    8 cycles
 SCF Done:  E(RB3LYP) =  -704.818163836     A.U. after    8 cycles
 SCF Done:  E(RB3LYP) =  -704.818163864     A.U. after    7 cycles
 Optimization completed.
    -- Stationary point found.
 Normal termination of Gaussian 16 at Thu Dec 10 16:32:01 2020.

 --------------------------------------------------------------------
 #N Geom=AllCheck Guess=TCheck SCRF=Check GenChk RB3LYP/6-31G(d) Freq
 --------------------------------------------------------------------

 Structure from the checkpoint file:  "JID_5573.chk"
 -------------------------------
 CID_118170696_JID_5573_neutraal
 -------------------------------
 Charge =  0 Multiplicity = 1

 SCF Done:  E(RB3LYP) =  -704.818163864     A.U. after    1 cycles

  Exact polarizability: 180.897  -0.992 117.684   3.325  13.800  91.306
 Approx polarizability: 252.175   1.745 176.721   8.369  30.914 137.105

                      1                      2                      3
                      A                      A                      A
 Frequencies --     10.0077                29.6127                32.6147
 Red. masses --      4.7751                 6.9345                 3.5468
 Frc consts  --      0.0003                 0.0036                 0.0022
 IR Inten    --      1.1150                 0.2286                 2.7452

                      4                      5                      6
                      A                      A                      A
 Frequencies --     52.9208                61.6463               104.1070
 Red. masses --      6.8771                 3.8335                 4.1769
 Frc consts  --      0.0113                 0.0086                 0.0267
 IR Inten    --      5.5524                 1.6736                 0.7845

                      7                      8                      9
                      A                      A                      A
 Frequencies --    115.5194               145.3701               154.7180
 Red. masses --      2.3690                 2.6085                 3.4856
 Frc consts  --      0.0186                 0.0325                 0.0492
 IR Inten    --      0.9881                 1.2905                 1.0908

                     10                     11                     12
                      A                      A                      A
 Frequencies --    207.4095               238.7707               262.6992
 Red. masses --      2.9891                 1.6686                 2.7989
 Frc consts  --      0.0758                 0.0561                 0.1138
 IR Inten    --      1.2850                 0.4693                 1.0728

                     13                     14                     15
                      A                      A                      A
 Frequencies --    273.5220               339.5538               371.7204
 Red. masses --      2.1834                 2.9558                 2.7731
 Frc consts  --      0.0962                 0.2008                 0.2258
 IR Inten    --      0.1958                 2.4378                 0.8654

                     16                     17                     18
                      A                      A                      A
 Frequencies --    404.5485               433.0355               497.5874
 Red. masses --      2.7453                 2.4196                 3.7725
 Frc consts  --      0.2647                 0.2673                 0.5503
 IR Inten    --      2.9642                 2.0613                 1.7936

                     19                     20                     21
                      A                      A                      A
 Frequencies --    524.8751               592.3943               604.5020
 Red. masses --      3.3956                 1.1937                 3.2789
 Frc consts  --      0.5512                 0.2468                 0.7059
 IR Inten    --      3.7463                80.2993                 9.4913

                     22                     23                     24
                      A                      A                      A
 Frequencies --    626.1445               684.8110               717.2474
 Red. masses --      3.5604                 3.3618                 3.8822
 Frc consts  --      0.8224                 0.9289                 1.1767
 IR Inten    --     42.4862                 0.7943                 3.1418

                     25                     26                     27
                      A                      A                      A
 Frequencies --    722.2086               741.1553               784.4877
 Red. masses --      2.9082                 2.6177                 1.6119
 Frc consts  --      0.8937                 0.8472                 0.5845
 IR Inten    --     25.8131                29.3742                 8.9371

                     28                     29                     30
                      A                      A                      A
 Frequencies --    821.0487               854.0252               878.5896
 Red. masses --      1.4737                 2.1763                 2.4634
 Frc consts  --      0.5853                 0.9352                 1.1204
 IR Inten    --     13.1710                29.3295                 0.9670

                     31                     32                     33
                      A                      A                      A
 Frequencies --    880.7486               905.9640               915.1193
 Red. masses --      2.1148                 3.3137                 1.4201
 Frc consts  --      0.9665                 1.6025                 0.7007
 IR Inten    --     12.8301                 7.3876                 5.0598

                     34                     35                     36
                      A                      A                      A
 Frequencies --    968.6526              1014.2154              1043.0994
 Red. masses --      2.8082                 1.4082                 1.9080
 Frc consts  --      1.5524                 0.8534                 1.2231
 IR Inten    --     10.3025                11.8619                13.7755

                     37                     38                     39
                      A                      A                      A
 Frequencies --   1049.1227              1052.8214              1068.5399
 Red. masses --      1.7517                 3.5689                 3.7306
 Frc consts  --      1.1359                 2.3308                 2.5096
 IR Inten    --      6.4735                 3.6295                40.3031

                     40                     41                     42
                      A                      A                      A
 Frequencies --   1107.6635              1115.0953              1121.1517
 Red. masses --      1.9020                 2.7354                 2.1721
 Frc consts  --      1.3749                 2.0040                 1.6086
 IR Inten    --      1.6165                 8.4374                 1.6229

                     43                     44                     45
                      A                      A                      A
 Frequencies --   1164.1010              1187.9882              1199.1426
 Red. masses --      1.6394                 1.4823                 1.7182
 Frc consts  --      1.3089                 1.2326                 1.4556
 IR Inten    --     10.5059                43.3433               158.2852

                     46                     47                     48
                      A                      A                      A
 Frequencies --   1234.6341              1244.2747              1290.0903
 Red. masses --      1.6695                 1.4101                 4.7163
 Frc consts  --      1.4993                 1.2863                 4.6248
 IR Inten    --     22.0056                23.5128                20.0180

                     49                     50                     51
                      A                      A                      A
 Frequencies --   1315.7989              1323.9286              1341.4859
 Red. masses --      1.2163                 1.3429                 1.3112
 Frc consts  --      1.2407                 1.3868                 1.3903
 IR Inten    --      0.4425                13.4963                 4.2968

                     52                     53                     54
                      A                      A                      A
 Frequencies --   1354.3400              1358.4949              1384.6397
 Red. masses --      1.5948                 1.7163                 1.7136
 Frc consts  --      1.7235                 1.8662                 1.9357
 IR Inten    --     20.1191                 4.2797                28.3175

                     55                     56                     57
                      A                      A                      A
 Frequencies --   1396.8918              1401.6962              1408.6438
 Red. masses --      1.5557                 2.5528                 1.4218
 Frc consts  --      1.7885                 2.9551                 1.6622
 IR Inten    --     12.3673                78.6921                12.7526

                     58                     59                     60
                      A                      A                      A
 Frequencies --   1411.6850              1447.3277              1493.6873
 Red. masses --      1.9620                 1.2672                 2.5351
 Frc consts  --      2.3036                 1.5640                 3.3325
 IR Inten    --      7.4279                 6.7335                25.2624

                     61                     62                     63
                      A                      A                      A
 Frequencies --   1506.0510              1509.0856              1512.9486
 Red. masses --      1.1093                 1.1022                 1.1243
 Frc consts  --      1.4824                 1.4789                 1.5163
 IR Inten    --      6.4760                10.6354                 1.7506

                     64                     65                     66
                      A                      A                      A
 Frequencies --   1515.9034              1530.9453              1537.8402
 Red. masses --      1.2729                 1.0482                 1.0632
 Frc consts  --      1.7234                 1.4474                 1.4815
 IR Inten    --      3.8346                 5.5610                 6.1860

                     67                     68                     69
                      A                      A                      A
 Frequencies --   1598.6447              1721.0392              1822.7687
 Red. masses --      6.1093                 6.1902                 8.8705
 Frc consts  --      9.1991                10.8027                17.3645
 IR Inten    --      5.3545                16.1411               436.4366

                     70                     71                     72
                      A                      A                      A
 Frequencies --   3024.2018              3047.8578              3055.5753
 Red. masses --      1.0653                 1.0393                 1.0629
 Frc consts  --      5.7402                 5.6885                 5.8471
 IR Inten    --     18.9242                17.9769                27.5412

                     73                     74                     75
                      A                      A                      A
 Frequencies --   3060.8843              3081.4327              3084.8400
 Red. masses --      1.0621                 1.0666                 1.0948
 Frc consts  --      5.8628                 5.9672                 6.1384
 IR Inten    --     17.6834                18.4887                41.2214

                     76                     77                     78
                      A                      A                      A
 Frequencies --   3097.9126              3105.3663              3118.6383
 Red. masses --      1.0935                 1.1047                 1.0998
 Frc consts  --      6.1831                 6.2764                 6.3019
 IR Inten    --      6.9074                18.0185                43.0038

                     79                     80                     81
                      A                      A                      A
 Frequencies --   3130.0903              3139.4802              3199.1195
 Red. masses --      1.1026                 1.1059                 1.0942
 Frc consts  --      6.3647                 6.4221                 6.5982
 IR Inten    --     38.2423                12.6718                 5.7513

                     82                     83                     84
                      A                      A                      A
 Frequencies --   3208.7249              3294.5623              3705.0595
 Red. masses --      1.0864                 1.0990                 1.0642
 Frc consts  --      6.5902                 7.0280                 8.6072
 IR Inten    --      2.2863                 0.1554                59.7918

 - Thermochemistry -
 -------------------
 Temperature   298.150 Kelvin.  Pressure   1.00000 Atm.
 Atom     1 has atomic number  6 and mass  12.00000

 Molecular mass:   209.11643 amu.
 Principal axes and moments of inertia in atomic units:
                           1         2         3
     Eigenvalues --  1580.772427864.716408353.63810
           X            0.99986  -0.01384   0.00915
           Y            0.01381   0.99990   0.00388
           Z           -0.00920  -0.00375   0.99995
 This molecule is an asymmetric top.
 Rotational symmetry number  1.
 Warning -- assumption of classical behavior for rotation
           may cause significant error
 Rotational temperatures (Kelvin)      0.05479     0.01101     0.01037
 Rotational constants (GHZ):           1.14168     0.22947     0.21604
 Zero-point vibrational energy     658525.5 (Joules/Mol)
                                  157.39138 (Kcal/Mol)
 Warning -- explicit consideration of  21 degrees of freedom as
           vibrations may cause significant error
 Vibrational temperatures:     14.40    42.61    46.93    76.14    88.70
          (Kelvin)            149.79   166.21   209.16   222.60   298.42
                              343.54   377.97   393.54   488.54   534.82
                              582.06   623.04   715.92   755.18   852.32
                              869.74   900.88   985.29  1031.96  1039.10
                             1066.36  1128.70  1181.31  1228.75  1264.09
                             1267.20  1303.48  1316.65  1393.68  1459.23
                             1500.79  1509.45  1514.78  1537.39  1593.68
                             1604.37  1613.09  1674.88  1709.25  1725.30
                             1776.36  1790.23  1856.15  1893.14  1904.84
                             1930.10  1948.59  1954.57  1992.19  2009.82
                             2016.73  2026.72  2031.10  2082.38  2149.08
                             2166.87  2171.24  2176.80  2181.05  2202.69
                             2212.61  2300.09  2476.19  2622.56  4351.15
                             4385.19  4396.29  4403.93  4433.49  4438.40
                             4457.21  4467.93  4487.02  4503.50  4517.01
                             4602.82  4616.64  4740.14  5330.75

 Zero-point correction=                           0.250819 (Hartree/Particle)
 Thermal correction to Energy=                    0.266208
 Thermal correction to Enthalpy=                  0.267152
 Thermal correction to Gibbs Free Energy=         0.204089
 Sum of electronic and zero-point Energies=           -704.567345
 Sum of electronic and thermal Energies=              -704.551956
 Sum of electronic and thermal Enthalpies=            -704.551012
 Sum of electronic and thermal Free Energies=         -704.614075

                     E (Thermal)             CV                S
                      KCal/Mol        Cal/Mol-Kelvin    Cal/Mol-Kelvin
 Total                  167.048             55.099            132.728
 Electronic               0.000              0.000              0.000
 Translational            0.889              2.981             41.917
 Rotational               0.889              2.981             33.007
 Vibrational            165.271             49.138             57.804
 Vibration     1          0.593              1.987              8.010
 Vibration     2          0.593              1.984              5.855
 Vibration     3          0.594              1.983              5.664
 Vibration     4          0.596              1.976              4.705
 Vibration     5          0.597              1.973              4.404
 Vibration     6          0.605              1.946              3.376
 Vibration     7          0.608              1.937              3.174
 Vibration     8          0.617              1.908              2.732
 Vibration     9          0.620              1.897              2.613
 Vibration    10          0.641              1.829              2.066
 Vibration    11          0.657              1.781              1.812
 Vibration    12          0.670              1.741              1.644
 Vibration    13          0.676              1.722              1.574
 Vibration    14          0.719              1.596              1.214
 Vibration    15          0.743              1.530              1.073
 Vibration    16          0.770              1.460              0.946
 Vibration    17          0.794              1.398              0.849
 Vibration    18          0.853              1.255              0.664
 Vibration    19          0.880              1.195              0.599
 Vibration    20          0.950              1.048              0.463
 Vibration    21          0.963              1.022              0.442

 Optimization completed.
    -- Stationary point found.
 Normal termination of Gaussian 16 at Thu Dec 10 16:39:48 2020.

 ----------------------------------------------------------------------
 # B3LYP/6-311++G(d,p) empiricaldispersion=gd3bj scf=xqc pop=npa geom=c
 heck
 ----------------------------------------------------------------------

 ---------------------------------------
 CID_118170696_JID_5573_Energie_neutraal
 ---------------------------------------
 Structure from the checkpoint file:  "JID_5573.chk"
 Charge =  0 Multiplicity = 1

 SCF Done:  E(RB3LYP) =  -705.023622548     A.U. after   15 cycles
 Normal termination of Gaussian 16 at Thu Dec 10 16:43:58 2020.

 ----------------------------------------------------------------------
 # B3LYP/6-311++G(d,p) empiricaldispersion=gd3bj scf=xqc pop=npa geom=c
 heck
 ----------------------------------------------------------------------

 -------------------------------------
 CID_118170696_JID_5573_Energie_kation
 -------------------------------------
 Structure from the checkpoint file:  "JID_5573.chk"
 Charge =  1 Multiplicity = 2

 SCF Done:  E(UB3LYP) =  -704.699292166     A.U. after   28 cycles
 Normal termination of Gaussian 16 at Thu Dec 10 16:54:56 2020.
 Gaussian 16:  ES64L-G16RevA.03 25-Dec-2016

 ----------------------------------------------------------------------
 # B3LYP/6-311++G(d,p) empiricaldispersion=gd3bj scf=xqc pop=npa geom=c
 heck
 ----------------------------------------------------------------------

 ------------------------------------
 CID_118170696_JID_5573_Energie_anion
 ------------------------------------
 Structure from the checkpoint file:  "JID_5573.chk"
 Charge = -1 Multiplicity = 2

                         Standard orientation:
 ---------------------------------------------------------------------
 Center     Atomic      Atomic             Coordinates (Angstroms)
 Number     Number       Type             X           Y           Z
 ---------------------------------------------------------------------
      1          6           0       -3.762302    1.031553   -1.870814
      2          6           0       -4.105082    1.485932   -0.451227
      3          6           0       -3.999012    0.367562    0.590918
      4          7           0       -2.643107   -0.158402    0.700918
      5          6           0       -2.096873   -1.261661    0.128190
      6          6           0       -0.766578   -1.225766    0.495865
      7          7           0       -0.576519   -0.107122    1.260573
      8          7           0       -1.707814    0.537477    1.380068
      9          6           0        0.348438   -2.160373    0.144190
     10          6           0        1.303623   -1.597937   -0.939301
     11          6           0        2.112180   -0.430223   -0.460516
     12          6           0        3.448499   -0.373685   -0.529173
     13          6           0        4.258799    0.764000   -0.059981
     14          8           0        5.474031    0.800274   -0.098310
     15          8           0        3.521481    1.796728    0.429213
     16          1           0       -2.729062    0.674368   -1.934273
     17          1           0       -3.873086    1.857075   -2.581067
     18          1           0       -4.421718    0.218032   -2.198688
     19          1           0       -3.442234    2.302707   -0.144365
     20          1           0       -5.130791    1.874446   -0.415369
     21          1           0       -4.280507    0.732864    1.581593
     22          1           0       -4.652780   -0.472409    0.335716
     23          1           0       -2.676633   -1.956870   -0.459119
     24          1           0        0.927091   -2.394394    1.044703
     25          1           0       -0.076169   -3.102281   -0.220655
     26          1           0        1.969236   -2.396973   -1.286395
     27          1           0        0.694670   -1.287269   -1.801092
     28          1           0        1.564103    0.396707   -0.015704
     29          1           0        4.035412   -1.188269   -0.944757
     30          1           0        4.170291    2.466173    0.712436
 ---------------------------------------------------------------------

 SCF Done:  E(UB3LYP) =  -705.023994282     A.U. after   32 cycles

 The electronic state is 2-A.
 Alpha  occ. eigenvalues --  -19.05021 -18.98385 -14.30349 -14.26620 -14.22913
 Alpha  occ. eigenvalues --  -10.17173 -10.12937 -10.11326 -10.10075 -10.08921
 Alpha  occ. eigenvalues --  -10.08136 -10.07442 -10.07414 -10.05646 -10.05208
 Alpha  occ. eigenvalues --   -0.99801  -0.98713  -0.89453  -0.82131  -0.72789
 Alpha  occ. eigenvalues --   -0.70484  -0.69122  -0.64527  -0.61960  -0.56985
 Alpha  occ. eigenvalues --   -0.53565  -0.51700  -0.49494  -0.47622  -0.45793
 Alpha  occ. eigenvalues --   -0.42926  -0.39589  -0.38602  -0.37316  -0.36601
 Alpha  occ. eigenvalues --   -0.36474  -0.34393  -0.33816  -0.33220  -0.32822
 Alpha  occ. eigenvalues --   -0.32121  -0.29740  -0.29043  -0.28319  -0.27075
 Alpha  occ. eigenvalues --   -0.26967  -0.26098  -0.25664  -0.24678  -0.22523
 Alpha  occ. eigenvalues --   -0.21028  -0.19213  -0.17288  -0.16279  -0.16085
 Alpha  occ. eigenvalues --   -0.15073   0.03624
 Alpha virt. eigenvalues --    0.05126   0.06782   0.07240   0.08058   0.08527
 Alpha virt. eigenvalues --    0.08862   0.09549   0.09871   0.10122   0.11028
 Alpha virt. eigenvalues --    0.11388   0.11905   0.12200   0.13376   0.14080

  Beta  occ. eigenvalues --  -19.04999 -18.98218 -14.30348 -14.26599 -14.22900
  Beta  occ. eigenvalues --  -10.17024 -10.12911 -10.11294 -10.10079 -10.08909
  Beta  occ. eigenvalues --  -10.08101 -10.07463 -10.07387 -10.05369 -10.05181
  Beta  occ. eigenvalues --   -0.99779  -0.98559  -0.89221  -0.82107  -0.72713
  Beta  occ. eigenvalues --   -0.70427  -0.68879  -0.64373  -0.61900  -0.56780
  Beta  occ. eigenvalues --   -0.53513  -0.51551  -0.49391  -0.47566  -0.45508
  Beta  occ. eigenvalues --   -0.42848  -0.39545  -0.38484  -0.37236  -0.36483
  Beta  occ. eigenvalues --   -0.36373  -0.34328  -0.33731  -0.32916  -0.32378
  Beta  occ. eigenvalues --   -0.32052  -0.29619  -0.28941  -0.28203  -0.27014
  Beta  occ. eigenvalues --   -0.26914  -0.26058  -0.25597  -0.24546  -0.22467
  Beta  occ. eigenvalues --   -0.20455  -0.19155  -0.17221  -0.16100  -0.15694
  Beta  occ. eigenvalues --   -0.14424
  Beta virt. eigenvalues --    0.06180   0.07178   0.07519   0.08080   0.08339
  Beta virt. eigenvalues --    0.08830   0.09089   0.09812   0.09980   0.10397
  Beta virt. eigenvalues --    0.11328   0.11688   0.12091   0.12410   0.13520

 Mulliken charges and spin densities:
               1          2
     1  C    0.212617  -0.741594
     2  C   -0.540315   0.328103
     3  C    0.754265  -1.046930
     4  N    0.256391   0.084894
     5  C   -0.400045  -0.048616
     6  C    0.373774  -0.386164
     7  N   -0.128159   0.050152
     8  N   -0.140520   0.023513
     9  C    0.348002  -0.652608
    10  C   -0.264799   0.066783
    11  C   -0.016957   0.163985
    12  C   -0.186889  -0.070126
    13  C   -0.149459   0.100509
    14  O   -0.378532   0.051925
    15  O   -0.222645   0.004259
    16  H    0.229028  -0.058574
    17  H   -0.121110   0.255129
    18  H   -0.135486   0.287357
    19  H    0.189688  -0.029536
    20  H   -0.199629   0.338497
    21  H    0.004656   0.179068
    22  H   -0.485985   0.669974
    23  H   -0.784362   0.977779
    24  H    0.160048   0.001492
    25  H   -0.162050   0.327786
    26  H    0.135967   0.011081
    27  H    0.005185   0.125596
    28  H    0.226752  -0.008467
    29  H    0.156283  -0.005177
    30  H    0.264286  -0.000090
 Sum of Mulliken charges =  -1.00000   1.00000

 Dipole moment (field-independent basis, Debye):
    X=              0.5008    Y=              1.3562    Z=              0.6559  Tot=              1.5876
 Quadrupole moment (field-independent basis, Debye-Ang):
   XX=           -200.6398   YY=           -113.0153   ZZ=           -114.9942
   XY=             -9.9903   XZ=             -4.7081   YZ=             -2.5381

 Summary of Natural Population Analysis:

                                       Natural Population
                Natural  -----------------------------------------------
    Atom  No    Charge         Core      Valence    Rydberg      Total
 -----------------------------------------------------------------------
      C    1   -0.28946      0.99966     2.28472    0.00507     3.28946
      C    2   -0.19495      0.99963     2.18747    0.00785     3.19495
      C    3   -0.08311      0.99960     2.07132    0.01220     3.08311
      N    4   -0.10617      0.99966     2.59237    0.01414     3.60617
      C    5   -0.02090      0.99947     2.01002    0.01141     3.02090
      C    6    0.04067      0.99956     1.94473    0.01505     2.95933
      N    7   -0.13989      0.99972     2.62738    0.01279     3.63989
      N    8   -0.04665      0.99977     2.53167    0.01521     3.54665
      C    9   -0.19822      0.99959     2.18931    0.00932     3.19822
      C   10   -0.20443      0.99961     2.19537    0.00945     3.20443
      C   11    0.00334      0.99954     1.98823    0.00890     2.99666
      C   12   -0.17029      0.99947     2.16183    0.00899     3.17029
      C   13    0.40167      0.99969     1.57425    0.02438     2.59833
      O   14   -0.31249      0.99987     3.30545    0.00717     4.31249
      O   15   -0.35060      0.99988     3.34479    0.00593     4.35060
      H   16    0.10119      0.00000     0.39768    0.00113     0.39881
      H   17    0.09953      0.00000     0.39978    0.00070     0.40047
      H   18    0.09984      0.00000     0.39865    0.00151     0.40016
      H   19    0.10101      0.00000     0.39784    0.00115     0.39899
      H   20    0.09923      0.00000     0.39956    0.00121     0.40077
      H   21    0.10600      0.00000     0.39272    0.00128     0.39400
      H   22    0.10407      0.00000     0.39344    0.00249     0.39593
      H   23    0.11374      0.00000     0.38386    0.00240     0.38626
      H   24    0.10586      0.00000     0.39302    0.00112     0.39414
      H   25    0.10429      0.00000     0.39450    0.00121     0.39571
      H   26    0.09595      0.00000     0.40300    0.00105     0.40405
      H   27    0.10496      0.00000     0.39379    0.00125     0.39504
      H   28    0.10654      0.00000     0.39174    0.00173     0.39346
      H   29    0.09577      0.00000     0.40323    0.00101     0.40423
      H   30    0.23352      0.00000     0.26365    0.00283     0.26648
 =======================================================================
   * Total *    0.00000     14.99474    40.81535    0.18991    56.00000

 Normal termination of Gaussian 16 at Thu Dec 10 17:13:40 2020.
