 Gaussian 16, Revision A.03,

 -----------------------------------------------------------
 # opt freq B3LYP/6-31G(d) empiricaldispersion=gd3bj scf=xqc
 -----------------------------------------------------------

 ------------------------------
 CID_23765911_JID_7718_neutraal
 ------------------------------
 Symbolic Z-matrix:
 Charge =  0 Multiplicity = 1

 SCF Done:  E(RB3LYP) =  -765.036684912     A.U. after   15 cycles
 SCF Done:  E(RB3LYP) =  -765.041520745     A.U. after   13 cycles
 SCF Done:  E(RB3LYP) =  -765.039847320     A.U. after   14 cycles
 SCF Done:  E(RB3LYP) =  -765.041856982     A.U. after   12 cycles
 SCF Done:  E(RB3LYP) =  -765.043568396     A.U. after   13 cycles
 SCF Done:  E(RB3LYP) =  -765.043966165     A.U. after   13 cycles
 SCF Done:  E(RB3LYP) =  -765.044802850     A.U. after   13 cycles
 SCF Done:  E(RB3LYP) =  -765.044910229     A.U. after   12 cycles
 SCF Done:  E(RB3LYP) =  -765.045339738     A.U. after   13 cycles
 SCF Done:  E(RB3LYP) =  -765.045218251     A.U. after   12 cycles
 SCF Done:  E(RB3LYP) =  -765.045548849     A.U. after   10 cycles
 SCF Done:  E(RB3LYP) =  -765.045551961     A.U. after    9 cycles
 SCF Done:  E(RB3LYP) =  -765.045554412     A.U. after    9 cycles
 SCF Done:  E(RB3LYP) =  -765.045554714     A.U. after    8 cycles
 SCF Done:  E(RB3LYP) =  -765.045554815     A.U. after    7 cycles
 Optimization completed.
    -- Stationary point found.
 Normal termination of Gaussian 16 at Fri Dec 11 13:10:17 2020.

 --------------------------------------------------------------------
 #N Geom=AllCheck Guess=TCheck SCRF=Check GenChk RB3LYP/6-31G(d) Freq
 --------------------------------------------------------------------

 Structure from the checkpoint file:  "JID_7718.chk"
 ------------------------------
 CID_23765911_JID_7718_neutraal
 ------------------------------
 Charge =  0 Multiplicity = 1

 SCF Done:  E(RB3LYP) =  -765.045554815     A.U. after    1 cycles

  Exact polarizability: 174.716  26.778 133.915  -7.510  15.716 124.128
 Approx polarizability: 252.259  52.786 200.403 -14.661  36.794 220.514

                      1                      2                      3
                      A                      A                      A
 Frequencies --     26.4044                48.3708                57.1421
 Red. masses --      4.6157                 3.8619                 5.6475
 Frc consts  --      0.0019                 0.0053                 0.0109
 IR Inten    --      1.9118                 1.4688                 4.5640

                      4                      5                      6
                      A                      A                      A
 Frequencies --     82.1330               105.3815               115.4632
 Red. masses --      4.5434                 3.2268                 4.2640
 Frc consts  --      0.0181                 0.0211                 0.0335
 IR Inten    --      5.1576                 0.6224                 1.6055

                      7                      8                      9
                      A                      A                      A
 Frequencies --    143.8029               168.9182               181.6918
 Red. masses --      3.6082                 2.0108                 3.3721
 Frc consts  --      0.0440                 0.0338                 0.0656
 IR Inten    --      4.3783                 4.6607                 8.2344

                     10                     11                     12
                      A                      A                      A
 Frequencies --    204.2818               263.1454               273.7008
 Red. masses --      4.3853                 4.8182                 5.6696
 Frc consts  --      0.1078                 0.1966                 0.2502
 IR Inten    --      0.1595                 7.3430                 2.1679

                     13                     14                     15
                      A                      A                      A
 Frequencies --    313.7891               375.7808               397.1201
 Red. masses --      2.6195                 4.9566                 4.6200
 Frc consts  --      0.1520                 0.4124                 0.4293
 IR Inten    --      6.2259                12.5491                 1.1343

                     16                     17                     18
                      A                      A                      A
 Frequencies --    423.8413               492.5603               520.8529
 Red. masses --      3.2510                 2.3978                 3.4462
 Frc consts  --      0.3441                 0.3428                 0.5508
 IR Inten    --      0.8625                41.5639                17.1016

                     19                     20                     21
                      A                      A                      A
 Frequencies --    524.4086               532.5784               574.9413
 Red. masses --      3.4043                 3.1070                 2.3537
 Frc consts  --      0.5516                 0.5192                 0.4584
 IR Inten    --      6.7079                 5.5929                 5.9906

                     22                     23                     24
                      A                      A                      A
 Frequencies --    585.5289               627.6166               635.2045
 Red. masses --      3.3079                 2.1622                 6.3413
 Frc consts  --      0.6682                 0.5018                 1.5075
 IR Inten    --     30.0113                56.3731                 0.4622

                     25                     26                     27
                      A                      A                      A
 Frequencies --    649.9762               697.7416               708.7752
 Red. masses --      2.6860                 4.4132                 2.1598
 Frc consts  --      0.6686                 1.2659                 0.6393
 IR Inten    --     16.4738                26.4132                20.8723

                     28                     29                     30
                      A                      A                      A
 Frequencies --    760.5814               772.6584               791.2868
 Red. masses --      1.8210                 2.4509                 2.8035
 Frc consts  --      0.6207                 0.8621                 1.0342
 IR Inten    --     51.0198                17.8922                 2.8155

                     31                     32                     33
                      A                      A                      A
 Frequencies --    833.0504               855.5644               873.9857
 Red. masses --      1.3007                 3.5763                 2.1316
 Frc consts  --      0.5318                 1.5424                 0.9593
 IR Inten    --      3.1573                 7.1471                 6.1209

                     34                     35                     36
                      A                      A                      A
 Frequencies --    882.3445               913.3520               925.5614
 Red. masses --      1.4784                 1.7235                 1.7414
 Frc consts  --      0.6782                 0.8471                 0.8789
 IR Inten    --     16.1661                 3.6003                 3.4981

                     37                     38                     39
                      A                      A                      A
 Frequencies --    945.3185               954.3813               978.6815
 Red. masses --      2.1794                 1.3251                 1.2228
 Frc consts  --      1.1475                 0.7111                 0.6901
 IR Inten    --      2.2135                 0.6870                 2.4816

                     40                     41                     42
                      A                      A                      A
 Frequencies --   1010.8642              1015.2095              1040.0154
 Red. masses --      3.9145                 2.5170                 2.1401
 Frc consts  --      2.3567                 1.5284                 1.3639
 IR Inten    --      1.1803                 5.5022                 2.9119

                     43                     44                     45
                      A                      A                      A
 Frequencies --   1061.9846              1089.1745              1108.9658
 Red. masses --      2.2519                 3.4308                 1.7510
 Frc consts  --      1.4963                 2.3979                 1.2687
 IR Inten    --      2.2819                 3.4040                 0.4622

                     46                     47                     48
                      A                      A                      A
 Frequencies --   1115.1139              1169.0741              1187.7583
 Red. masses --      1.7421                 3.2935                 1.6592
 Frc consts  --      1.2763                 2.6521                 1.3791
 IR Inten    --      3.6502                12.5950                49.0053

                     49                     50                     51
                      A                      A                      A
 Frequencies --   1193.8107              1207.5328              1221.3853
 Red. masses --      1.0978                 1.8604                 1.1721
 Frc consts  --      0.9218                 1.5983                 1.0302
 IR Inten    --      3.0333                20.9237                 5.0581

                     52                     53                     54
                      A                      A                      A
 Frequencies --   1232.7640              1238.2489              1261.2269
 Red. masses --      1.5024                 1.4965                 1.2594
 Frc consts  --      1.3452                 1.3519                 1.1804
 IR Inten    --     31.3559                 3.6489                12.7064

                     55                     56                     57
                      A                      A                      A
 Frequencies --   1283.0638              1303.0221              1313.2336
 Red. masses --      1.4498                 2.2784                 1.8636
 Frc consts  --      1.4062                 2.2792                 1.8936
 IR Inten    --     33.5697                25.1349                65.0513

                     58                     59                     60
                      A                      A                      A
 Frequencies --   1334.2925              1349.0373              1362.3281
 Red. masses --      1.5697                 1.6092                 1.4534
 Frc consts  --      1.6465                 1.7255                 1.5892
 IR Inten    --     32.9299                19.9592                 4.4658

                     61                     62                     63
                      A                      A                      A
 Frequencies --   1365.2923              1376.3415              1381.4578
 Red. masses --      2.2691                 1.3747                 1.4787
 Frc consts  --      2.4921                 1.5344                 1.6627
 IR Inten    --     60.1570                 2.5292                 4.0962

                     64                     65                     66
                      A                      A                      A
 Frequencies --   1384.9058              1467.5956              1477.6063
 Red. masses --      2.3250                 1.4362                 1.6142
 Frc consts  --      2.6274                 1.8226                 2.0765
 IR Inten    --     14.8839                33.7941                57.7060

                     67                     68                     69
                      A                      A                      A
 Frequencies --   1488.9007              1501.8590              1519.8892
 Red. masses --      1.9455                 1.0991                 1.0976
 Frc consts  --      2.5411                 1.4606                 1.4939
 IR Inten    --      4.2835                 1.8450                44.5816

                     70                     71                     72
                      A                      A                      A
 Frequencies --   1528.7254              1553.9924              1559.9275
 Red. masses --      1.1072                 1.9369                 1.1828
 Frc consts  --      1.5245                 2.7558                 1.6958
 IR Inten    --      4.3247                45.0420                15.8353

                     73                     74                     75
                      A                      A                      A
 Frequencies --   1579.0753              1651.2808              1671.4885
 Red. masses --      1.7393                 3.7110                 5.4806
 Frc consts  --      2.5552                 5.9619                 9.0216
 IR Inten    --     62.0834                 6.8951               131.1893

                     76                     77                     78
                      A                      A                      A
 Frequencies --   1776.6694              1816.7104              2975.3997
 Red. masses --     10.8667                11.6900                 1.0696
 Frc consts  --     20.2097                22.7318                 5.5792
 IR Inten    --    276.2509               215.4152                30.7899

                     79                     80                     81
                      A                      A                      A
 Frequencies --   3028.8481              3057.8617              3063.8548
 Red. masses --      1.0670                 1.0591                 1.0897
 Frc consts  --      5.7675                 5.8349                 6.0269
 IR Inten    --     37.7345                18.8050                35.9954

                     82                     83                     84
                      A                      A                      A
 Frequencies --   3075.4599              3078.9911              3091.6274
 Red. masses --      1.0706                 1.0719                 1.0860
 Frc consts  --      5.9665                 5.9870                 6.1157
 IR Inten    --      7.2970                 5.7551                50.6475

                     85                     86                     87
                      A                      A                      A
 Frequencies --   3111.1141              3133.9294              3142.7252
 Red. masses --      1.1037                 1.0987                 1.1030
 Frc consts  --      6.2940                 6.3576                 6.4184
 IR Inten    --      8.0710                 9.8657                16.0478

                     88                     89                     90
                      A                      A                      A
 Frequencies --   3180.1561              3186.6423              3204.8996
 Red. masses --      1.0849                 1.0887                 1.0907
 Frc consts  --      6.4645                 6.5140                 6.6006
 IR Inten    --      5.8850                16.9803                30.6010

                     91                     92                     93
                      A                      A                      A
 Frequencies --   3209.8965              3214.5034              3553.9974
 Red. masses --      1.0925                 1.0970                 1.0775
 Frc consts  --      6.6323                 6.6783                 8.0188
 IR Inten    --     14.3053                 7.6663                86.6385

 - Thermochemistry -
 -------------------
 Temperature   298.150 Kelvin.  Pressure   1.00000 Atm.
 Atom     1 has atomic number  6 and mass  12.00000

 Molecular mass:   232.12118 amu.
 Principal axes and moments of inertia in atomic units:
                           1         2         3
     Eigenvalues --  2730.169864660.104085883.97325
           X            0.99993  -0.01165   0.00232
           Y            0.01168   0.99986  -0.01177
           Z           -0.00218   0.01179   0.99993
 This molecule is an asymmetric top.
 Rotational symmetry number  1.
 Warning -- assumption of classical behavior for rotation
           may cause significant error
 Rotational temperatures (Kelvin)      0.03172     0.01859     0.01472
 Rotational constants (GHZ):           0.66104     0.38727     0.30672
 Zero-point vibrational energy     728093.0 (Joules/Mol)
                                  174.01841 (Kcal/Mol)
 Warning -- explicit consideration of  22 degrees of freedom as
           vibrations may cause significant error
 Vibrational temperatures:     37.99    69.59    82.21   118.17   151.62
          (Kelvin)            166.13   206.90   243.04   261.41   293.92
                              378.61   393.79   451.47   540.66   571.37
                              609.81   708.68   749.39   754.51   766.26
                              827.21   842.45   903.00   913.92   935.17
                             1003.89  1019.77  1094.31  1111.68  1138.49
                             1198.57  1230.97  1257.47  1269.50  1314.11
                             1331.68  1360.10  1373.14  1408.10  1454.41
                             1460.66  1496.35  1527.96  1567.08  1595.55
                             1604.40  1682.04  1708.92  1717.63  1737.37
                             1757.30  1773.67  1781.56  1814.62  1846.04
                             1874.76  1889.45  1919.75  1940.96  1960.09
                             1964.35  1980.25  1987.61  1992.57  2111.54
                             2125.95  2142.20  2160.84  2186.78  2199.49
                             2235.85  2244.39  2271.94  2375.82  2404.90
                             2556.23  2613.84  4280.94  4357.84  4399.58
                             4408.20  4424.90  4429.98  4448.16  4476.20
                             4509.03  4521.68  4575.54  4584.87  4611.14
                             4618.33  4624.95  5113.41

 Zero-point correction=                           0.277316 (Hartree/Particle)
 Thermal correction to Energy=                    0.292605
 Thermal correction to Enthalpy=                  0.293549
 Thermal correction to Gibbs Free Energy=         0.233598
 Sum of electronic and zero-point Energies=           -764.768239
 Sum of electronic and thermal Energies=              -764.752950
 Sum of electronic and thermal Enthalpies=            -764.752006
 Sum of electronic and thermal Free Energies=         -764.811957

                     E (Thermal)             CV                S
                      KCal/Mol        Cal/Mol-Kelvin    Cal/Mol-Kelvin
 Total                  183.612             58.608            126.178
 Electronic               0.000              0.000              0.000
 Translational            0.889              2.981             42.228
 Rotational               0.889              2.981             32.682
 Vibrational            181.835             52.646             51.268
 Vibration     1          0.593              1.985              6.083
 Vibration     2          0.595              1.978              4.883
 Vibration     3          0.596              1.975              4.554
 Vibration     4          0.600              1.961              3.839
 Vibration     5          0.605              1.945              3.352
 Vibration     6          0.608              1.937              3.175
 Vibration     7          0.616              1.909              2.753
 Vibration     8          0.625              1.881              2.447
 Vibration     9          0.630              1.865              2.311
 Vibration    10          0.640              1.834              2.094
 Vibration    11          0.670              1.740              1.641
 Vibration    12          0.676              1.722              1.573
 Vibration    13          0.702              1.647              1.342
 Vibration    14          0.747              1.522              1.056
 Vibration    15          0.764              1.476              0.973
 Vibration    16          0.786              1.418              0.879
 Vibration    17          0.848              1.267              0.677
 Vibration    18          0.876              1.204              0.608
 Vibration    19          0.879              1.196              0.600
 Vibration    20          0.888              1.178              0.581
 Vibration    21          0.931              1.085              0.495
 Vibration    22          0.943              1.063              0.475

                           ! Non-Optimized Parameters !
 Normal termination of Gaussian 16 at Fri Dec 11 13:23:14 2020.

 ----------------------------------------------------------------------
 # B3LYP/6-311++G(d,p) empiricaldispersion=gd3bj scf=xqc pop=npa geom=c
 heck
 ----------------------------------------------------------------------

 --------------------------------------
 CID_23765911_JID_7718_Energie_neutraal
 --------------------------------------
 Structure from the checkpoint file:  "JID_7718.chk"
 Charge =  0 Multiplicity = 1

 SCF Done:  E(RB3LYP) =  -765.259978859     A.U. after   15 cycles
 Normal termination of Gaussian 16 at Fri Dec 11 13:28:27 2020.

 ----------------------------------------------------------------------
 # B3LYP/6-311++G(d,p) empiricaldispersion=gd3bj scf=xqc pop=npa geom=c
 heck
 ----------------------------------------------------------------------

 ------------------------------------
 CID_23765911_JID_7718_Energie_kation
 ------------------------------------
 Structure from the checkpoint file:  "JID_7718.chk"
 Charge =  1 Multiplicity = 2

 SCF Done:  E(UB3LYP) =  -764.986189565     A.U. after   22 cycles
 Normal termination of Gaussian 16 at Fri Dec 11 13:38:57 2020.
 Gaussian 16:  ES64L-G16RevA.03 25-Dec-2016

 ----------------------------------------------------------------------
 # B3LYP/6-311++G(d,p) empiricaldispersion=gd3bj scf=xqc pop=npa geom=c
 heck
 ----------------------------------------------------------------------

 -----------------------------------
 CID_23765911_JID_7718_Energie_anion
 -----------------------------------
 Structure from the checkpoint file:  "JID_7718.chk"
 Charge = -1 Multiplicity = 2

                         Standard orientation:
 ---------------------------------------------------------------------
 Center     Atomic      Atomic             Coordinates (Angstroms)
 Number     Number       Type             X           Y           Z
 ---------------------------------------------------------------------
      1          6           0        1.020414   -2.582541    1.398843
      2          6           0        0.239168   -2.520192    0.076095
      3          6           0        0.990547   -1.490865   -0.753224
      4          8           0        0.857496   -1.243775   -1.948580
      5          7           0        1.831114   -0.809717    0.084921
      6          6           0        1.723643   -1.210294    1.483715
      7          6           0        2.653741    0.277753   -0.384814
      8          6           0        2.201602    1.694565   -0.001351
      9          8           0        3.035287    2.559174    0.173021
     10          6           0        0.717968    1.990271    0.196085
     11          7           0       -0.170654    1.354963   -0.751540
     12          6           0       -1.425264    0.897859   -0.360852
     13          6           0       -2.083203   -0.077446   -1.138588
     14          6           0       -3.337263   -0.547047   -0.765799
     15          6           0       -3.974383   -0.064743    0.382066
     16          6           0       -3.332880    0.908304    1.145486
     17          6           0       -2.074733    1.392235    0.784623
     18          1           0        0.385507   -2.768679    2.267859
     19          1           0        1.773441   -3.375802    1.354408
     20          1           0       -0.782413   -2.144714    0.210151
     21          1           0        0.174997   -3.471645   -0.456825
     22          1           0        1.126126   -0.483740    2.052102
     23          1           0        2.715613   -1.265165    1.945154
     24          1           0        3.684098    0.170139   -0.030121
     25          1           0        2.664784    0.207178   -1.479979
     26          1           0        0.489589    1.641211    1.218368
     27          1           0        0.613916    3.082216    0.208649
     28          1           0        0.259970    0.797981   -1.480994
     29          1           0       -1.584591   -0.476703   -2.016366
     30          1           0       -3.820196   -1.303889   -1.378553
     31          1           0       -4.953412   -0.436300    0.668393
     32          1           0       -3.814840    1.307861    2.034046
     33          1           0       -1.614226    2.172979    1.380805
 ---------------------------------------------------------------------

 SCF Done:  E(UB3LYP) =  -765.255805352     A.U. after   33 cycles
 SCF Done:  E(UB3LYP) =  -765.255805352     a.u. after    1 cycles

 The electronic state is 2-A.
 Alpha  occ. eigenvalues --  -18.99524 -18.98270 -14.24576 -14.21836 -10.17189
 Alpha  occ. eigenvalues --  -10.12324 -10.11477 -10.10841 -10.10328 -10.09868
 Alpha  occ. eigenvalues --  -10.08029 -10.07879 -10.07712 -10.07682 -10.06880
 Alpha  occ. eigenvalues --  -10.06856 -10.06698  -0.94630  -0.92195  -0.85275
 Alpha  occ. eigenvalues --   -0.83474  -0.74578  -0.70814  -0.65330  -0.64706
 Alpha  occ. eigenvalues --   -0.62018  -0.61464  -0.58866  -0.51755  -0.51465
 Alpha  occ. eigenvalues --   -0.49460  -0.46668  -0.43784  -0.42635  -0.41040
 Alpha  occ. eigenvalues --   -0.39738  -0.38687  -0.37455  -0.36557  -0.35124
 Alpha  occ. eigenvalues --   -0.34113  -0.33414  -0.32816  -0.32547  -0.32157
 Alpha  occ. eigenvalues --   -0.31247  -0.30454  -0.29606  -0.29024  -0.27713
 Alpha  occ. eigenvalues --   -0.27024  -0.26495  -0.26298  -0.24580  -0.24319
 Alpha  occ. eigenvalues --   -0.23617  -0.19900  -0.16966  -0.16119  -0.15724
 Alpha  occ. eigenvalues --   -0.13015  -0.10236   0.04381
 Alpha virt. eigenvalues --    0.06478   0.06819   0.07876   0.08325   0.08717
 Alpha virt. eigenvalues --    0.08916   0.09116   0.09725   0.10383   0.10627
 Alpha virt. eigenvalues --    0.10869   0.11521   0.12140   0.12329   0.13230

  Beta  occ. eigenvalues --  -18.99521 -18.97989 -14.24565 -14.21817 -10.17183
  Beta  occ. eigenvalues --  -10.11975 -10.11473 -10.10806 -10.10350 -10.09891
  Beta  occ. eigenvalues --  -10.08022 -10.07843 -10.07689 -10.07651 -10.06887
  Beta  occ. eigenvalues --  -10.06842 -10.06689  -0.94616  -0.91635  -0.85244
  Beta  occ. eigenvalues --   -0.83442  -0.74536  -0.70754  -0.65230  -0.64639
  Beta  occ. eigenvalues --   -0.61965  -0.61291  -0.58783  -0.51664  -0.51396
  Beta  occ. eigenvalues --   -0.49391  -0.46374  -0.43717  -0.42468  -0.40960
  Beta  occ. eigenvalues --   -0.39674  -0.38572  -0.37389  -0.36336  -0.35001
  Beta  occ. eigenvalues --   -0.33982  -0.33340  -0.32689  -0.32456  -0.32093
  Beta  occ. eigenvalues --   -0.31178  -0.30346  -0.29359  -0.28874  -0.27604
  Beta  occ. eigenvalues --   -0.26912  -0.26452  -0.26154  -0.24506  -0.23894
  Beta  occ. eigenvalues --   -0.22850  -0.19786  -0.16895  -0.16062  -0.15599
  Beta  occ. eigenvalues --   -0.12827  -0.10175
  Beta virt. eigenvalues --    0.06572   0.07536   0.07982   0.08243   0.08939
  Beta virt. eigenvalues --    0.09215   0.09583   0.09768   0.10010   0.10703
  Beta virt. eigenvalues --    0.10810   0.11146   0.11647   0.12322   0.12724

 Mulliken charges and spin densities:
               1          2
     1  C    1.136068  -1.562790
     2  C   -0.362047  -0.028210
     3  C   -0.426391   0.439376
     4  O   -0.346309   0.000795
     5  N    0.103177   0.097196
     6  C    0.273459  -0.451518
     7  C   -0.311822  -0.034901
     8  C   -0.081095   0.273496
     9  O   -0.321106   0.097998
    10  C    0.160392  -0.443943
    11  N    0.022023   0.057909
    12  C   -0.009410  -0.261797
    13  C   -0.236531   0.095979
    14  C   -0.429101   0.149959
    15  C   -0.236542  -0.152591
    16  C   -0.290477   0.111349
    17  C    0.308479  -0.134094
    18  H   -0.633986   0.817568
    19  H   -0.139060   0.306820
    20  H    0.550604  -0.383482
    21  H   -0.066990   0.258664
    22  H    0.304245  -0.168849
    23  H   -0.677713   0.856142
    24  H   -0.018782   0.226531
    25  H    0.196967   0.015254
    26  H   -0.286499   0.411684
    27  H    0.230816  -0.027760
    28  H    0.263802  -0.015455
    29  H    0.186429   0.001768
    30  H    0.107888   0.039590
    31  H    0.035462   0.093713
    32  H   -0.072467   0.232153
    33  H    0.066516   0.081446
 Sum of Mulliken charges =  -1.00000   1.00000

 Dipole moment (field-independent basis, Debye):
    X=             -4.8552    Y=              0.2905    Z=             -3.2685  Tot=              5.8601
 Quadrupole moment (field-independent basis, Debye-Ang):
   XX=           -157.5086   YY=           -146.1628   ZZ=           -137.6525
   XY=             -0.4001   XZ=             -7.8593   YZ=              7.3833

 Summary of Natural Population Analysis:

                                       Natural Population
                Natural  -----------------------------------------------
    Atom  No    Charge         Core      Valence    Rydberg      Total
 -----------------------------------------------------------------------
      C    1   -0.19213      0.99964     2.18407    0.00841     3.19213
      C    2   -0.23229      0.99959     2.22450    0.00820     3.23229
      C    3    0.35169      0.99963     1.62466    0.02403     2.64831
      O    4   -0.34220      0.99987     3.33720    0.00513     4.34220
      N    5   -0.25098      0.99963     2.73993    0.01143     3.75098
      C    6   -0.07578      0.99962     2.06603    0.01012     3.07578
      C    7   -0.13816      0.99957     2.12665    0.01194     3.13816
      C    8    0.32237      0.99969     1.65714    0.02080     2.67763
      O    9   -0.26643      0.99987     3.26005    0.00650     4.26643
      C   10   -0.13645      0.99958     2.12553    0.01133     3.13645
      N   11   -0.31703      0.99967     2.80855    0.00880     3.81703
      C   12    0.09319      0.99949     1.89622    0.01110     2.90681
      C   13   -0.12877      0.99953     2.12109    0.00815     3.12877
      C   14   -0.09434      0.99957     2.08529    0.00947     3.09434
      C   15   -0.13456      0.99956     2.12518    0.00981     3.13456
      C   16   -0.09005      0.99957     2.07969    0.01079     3.09005
      C   17   -0.13629      0.99953     2.12727    0.00950     3.13629
      H   18    0.10506      0.00000     0.39352    0.00142     0.39494
      H   19    0.10046      0.00000     0.39742    0.00213     0.39954
      H   20    0.11749      0.00000     0.38109    0.00141     0.38251
      H   21    0.10839      0.00000     0.39060    0.00101     0.39161
      H   22    0.09349      0.00000     0.40441    0.00210     0.40651
      H   23    0.10045      0.00000     0.39695    0.00260     0.39955
      H   24    0.11049      0.00000     0.38823    0.00128     0.38951
      H   25    0.12007      0.00000     0.37882    0.00111     0.37993
      H   26    0.10657      0.00000     0.39150    0.00193     0.39343
      H   27    0.09981      0.00000     0.39901    0.00119     0.40019
      H   28    0.19984      0.00000     0.29768    0.00248     0.30016
      H   29    0.11019      0.00000     0.38845    0.00137     0.38981
      H   30    0.09687      0.00000     0.40234    0.00079     0.40313
      H   31    0.09739      0.00000     0.40186    0.00075     0.40261
      H   32    0.09733      0.00000     0.40190    0.00077     0.40267
      H   33    0.10431      0.00000     0.39480    0.00089     0.39569
 =======================================================================
   * Total *   -0.00000     16.99362    44.79764    0.20874    62.00000

 Normal termination of Gaussian 16 at Fri Dec 11 13:54:10 2020.
