 Gaussian 16, Revision A.03,

 -----------------------------------------------------------
 # opt freq B3LYP/6-31G(d) empiricaldispersion=gd3bj scf=xqc
 -----------------------------------------------------------

 ------------------------------
 CID_91696193_JID_3488_neutraal
 ------------------------------
 Symbolic Z-matrix:
 Charge =  0 Multiplicity = 1

 SCF Done:  E(RB3LYP) =  -595.331453087     A.U. after   15 cycles
 SCF Done:  E(RB3LYP) =  -595.334097096     A.U. after   12 cycles
 SCF Done:  E(RB3LYP) =  -595.334254901     A.U. after   12 cycles
 SCF Done:  E(RB3LYP) =  -595.334686975     A.U. after   11 cycles
 SCF Done:  E(RB3LYP) =  -595.334747141     A.U. after   11 cycles
 SCF Done:  E(RB3LYP) =  -595.334753623     A.U. after    9 cycles
 SCF Done:  E(RB3LYP) =  -595.334754461     A.U. after    8 cycles
 SCF Done:  E(RB3LYP) =  -595.334754954     A.U. after    8 cycles
 SCF Done:  E(RB3LYP) =  -595.334755207     A.U. after    8 cycles
 SCF Done:  E(RB3LYP) =  -595.334755534     A.U. after    9 cycles
 SCF Done:  E(RB3LYP) =  -595.334755735     A.U. after    9 cycles
 SCF Done:  E(RB3LYP) =  -595.334755860     A.U. after    9 cycles
 SCF Done:  E(RB3LYP) =  -595.334755981     A.U. after    9 cycles
 SCF Done:  E(RB3LYP) =  -595.334756066     A.U. after    8 cycles
 SCF Done:  E(RB3LYP) =  -595.334756068     A.U. after    7 cycles
 Optimization completed.
    -- Stationary point found.
 Normal termination of Gaussian 16 at Wed Dec  9 23:28:19 2020.

 --------------------------------------------------------------------
 #N Geom=AllCheck Guess=TCheck SCRF=Check GenChk RB3LYP/6-31G(d) Freq
 --------------------------------------------------------------------

 Structure from the checkpoint file:  "JID_3488.chk"
 ------------------------------
 CID_91696193_JID_3488_neutraal
 ------------------------------
 Charge =  0 Multiplicity = 1

 SCF Done:  E(RB3LYP) =  -595.334756068     A.U. after    1 cycles

  Exact polarizability: 121.617   0.762 114.751  -9.897  -3.573  95.350
 Approx polarizability: 155.274   2.914 184.444 -18.933 -12.873 146.140

                      1                      2                      3
                      A                      A                      A
 Frequencies --     19.9666                46.1511                47.6674
 Red. masses --      4.3012                 3.6431                 4.3316
 Frc consts  --      0.0010                 0.0046                 0.0058
 IR Inten    --      0.5258                 0.6150                 2.7446

                      4                      5                      6
                      A                      A                      A
 Frequencies --     78.7126                86.9932               108.3285
 Red. masses --      2.5817                 2.6905                 4.9599
 Frc consts  --      0.0094                 0.0120                 0.0343
 IR Inten    --      1.0064                 0.5451                 1.2759

                      7                      8                      9
                      A                      A                      A
 Frequencies --    136.8217               220.2368               228.1061
 Red. masses --      4.2270                 1.4592                 1.0686
 Frc consts  --      0.0466                 0.0417                 0.0328
 IR Inten    --      2.5164                 0.0581                 0.2926

                     10                     11                     12
                      A                      A                      A
 Frequencies --    256.5799               308.3646               326.1706
 Red. masses --      2.2746                 4.3811                 2.6893
 Frc consts  --      0.0882                 0.2455                 0.1686
 IR Inten    --      3.6106                 1.4794                 0.3869

                     13                     14                     15
                      A                      A                      A
 Frequencies --    349.9747               427.0762               443.7052
 Red. masses --      2.4532                 2.1571                 2.8687
 Frc consts  --      0.1770                 0.2318                 0.3328
 IR Inten    --      7.8496                 1.8665                 7.8145

                     16                     17                     18
                      A                      A                      A
 Frequencies --    496.5436               590.7877               613.7954
 Red. masses --      2.9459                 4.2174                 3.5077
 Frc consts  --      0.4279                 0.8673                 0.7786
 IR Inten    --      6.7754                 9.0558                 7.2322

                     19                     20                     21
                      A                      A                      A
 Frequencies --    642.8774               651.6639               723.3123
 Red. masses --      5.2119                 4.1513                 1.5621
 Frc consts  --      1.2691                 1.0387                 0.4815
 IR Inten    --     10.5644                 0.7259                16.2766

                     22                     23                     24
                      A                      A                      A
 Frequencies --    732.5929               792.3831               802.8154
 Red. masses --      2.2120                 1.3369                 1.1503
 Frc consts  --      0.6995                 0.4945                 0.4368
 IR Inten    --     21.8458                 1.7431                 7.3719

                     25                     26                     27
                      A                      A                      A
 Frequencies --    807.8861               829.4650               871.6212
 Red. masses --      1.7281                 1.8380                 1.3113
 Frc consts  --      0.6646                 0.7451                 0.5870
 IR Inten    --     29.4417                 3.1627                 0.9499

                     28                     29                     30
                      A                      A                      A
 Frequencies --    905.7174               929.0556               945.0319
 Red. masses --      5.3036                 2.5353                 2.4943
 Frc consts  --      2.5634                 1.2893                 1.3125
 IR Inten    --      8.9725                 3.0467                14.1657

                     31                     32                     33
                      A                      A                      A
 Frequencies --    962.5347               974.5925              1036.7996
 Red. masses --      2.3486                 2.3918                 1.4920
 Frc consts  --      1.2820                 1.3385                 0.9450
 IR Inten    --     10.7506                 1.2229                16.2651

                     34                     35                     36
                      A                      A                      A
 Frequencies --   1043.6833              1102.3262              1110.2622
 Red. masses --      2.3087                 1.9534                 2.7366
 Frc consts  --      1.4817                 1.3985                 1.9875
 IR Inten    --      4.4678                 8.9999                 6.3630

                     37                     38                     39
                      A                      A                      A
 Frequencies --   1116.0747              1129.6899              1133.1121
 Red. masses --      1.7573                 1.6320                 1.6972
 Frc consts  --      1.2897                 1.2271                 1.2839
 IR Inten    --      1.7853                43.2664                14.3001

                     40                     41                     42
                      A                      A                      A
 Frequencies --   1179.5149              1215.0762              1253.5481
 Red. masses --      1.7778                 2.1600                 2.0242
 Frc consts  --      1.4572                 1.8789                 1.8741
 IR Inten    --     16.7903                 5.9603                 9.5130

                     43                     44                     45
                      A                      A                      A
 Frequencies --   1262.5286              1279.8978              1321.5478
 Red. masses --      2.6894                 1.5186                 1.3896
 Frc consts  --      2.5257                 1.4657                 1.4299
 IR Inten    --     23.8483                14.6249                60.4609

                     46                     47                     48
                      A                      A                      A
 Frequencies --   1339.8907              1359.5527              1399.9497
 Red. masses --      1.6519                 1.3793                 1.2845
 Frc consts  --      1.7473                 1.5021                 1.4832
 IR Inten    --     13.7460                30.9244                15.0829

                     49                     50                     51
                      A                      A                      A
 Frequencies --   1420.5414              1435.9429              1437.9625
 Red. masses --      1.2827                 1.4376                 1.8828
 Frc consts  --      1.5250                 1.7465                 2.2938
 IR Inten    --     15.0038                 6.7048                10.0747

                     52                     53                     54
                      A                      A                      A
 Frequencies --   1442.3760              1480.3465              1501.4081
 Red. masses --      1.3745                 2.1140                 1.0889
 Frc consts  --      1.6848                 2.7295                 1.4463
 IR Inten    --     15.6516               120.4520                 6.9063

                     55                     56                     57
                      A                      A                      A
 Frequencies --   1512.9272              1519.9686              1522.4249
 Red. masses --      1.1942                 1.0446                 1.0433
 Frc consts  --      1.6105                 1.4219                 1.4247
 IR Inten    --     40.7576                 1.5884                 6.8758

                     58                     59                     60
                      A                      A                      A
 Frequencies --   1528.6245              1534.7912              1544.4354
 Red. masses --      1.0698                 1.0589                 3.2561
 Frc consts  --      1.4729                 1.4697                 4.5760
 IR Inten    --      6.7535                 7.7232                13.7438

                     61                     62                     63
                      A                      A                      A
 Frequencies --   1553.8474              1647.3099              1755.2904
 Red. masses --      1.2583                 6.0179                 9.5567
 Frc consts  --      1.7900                 9.6215                17.3483
 IR Inten    --      6.1056                 7.3377               290.6385

                     64                     65                     66
                      A                      A                      A
 Frequencies --   3052.3836              3052.9972              3062.9066
 Red. masses --      1.0356                 1.0368                 1.0696
 Frc consts  --      5.6850                 5.6940                 5.9121
 IR Inten    --     14.5478                17.4491                27.7486

                     67                     68                     69
                      A                      A                      A
 Frequencies --   3072.4790              3084.9421              3113.4519
 Red. masses --      1.0688                 1.0601                 1.1019
 Frc consts  --      5.9448                 5.9444                 6.2931
 IR Inten    --     31.6504                10.6565                23.7097

                     70                     71                     72
                      A                      A                      A
 Frequencies --   3119.6458              3124.4672              3132.0900
 Red. masses --      1.1006                 1.1020                 1.1043
 Frc consts  --      6.3109                 6.3386                 6.3825
 IR Inten    --     17.3579                35.6729                 6.5011

                     73                     74                     75
                      A                      A                      A
 Frequencies --   3138.8988              3150.3601              3151.2943
 Red. masses --      1.0971                 1.0998                 1.0987
 Frc consts  --      6.3688                 6.4310                 6.4282
 IR Inten    --     18.5338                20.7369                17.6665

                     76                     77                     78
                      A                      A                      A
 Frequencies --   3266.1320              3279.6212              3304.2810
 Red. masses --      1.0908                 1.0980                 1.1045
 Frc consts  --      6.8558                 6.9581                 7.1051
 IR Inten    --      4.6287                 0.1750                 1.4818

 - Thermochemistry -
 -------------------
 Temperature   298.150 Kelvin.  Pressure   1.00000 Atm.
 Atom     1 has atomic number  6 and mass  12.00000

 Molecular mass:   181.11028 amu.
 Principal axes and moments of inertia in atomic units:
                           1         2         3
     Eigenvalues --  1561.471563390.409513828.65214
           X            0.99981  -0.01520   0.01202
           Y            0.01443   0.99801   0.06134
           Z           -0.01293  -0.06115   0.99804
 This molecule is an asymmetric top.
 Rotational symmetry number  1.
 Warning -- assumption of classical behavior for rotation
           may cause significant error
 Rotational temperatures (Kelvin)      0.05547     0.02555     0.02262
 Rotational constants (GHZ):           1.15580     0.53231     0.47138
 Zero-point vibrational energy     631539.3 (Joules/Mol)
                                  150.94153 (Kcal/Mol)
 Warning -- explicit consideration of  18 degrees of freedom as
           vibrations may cause significant error
 Vibrational temperatures:     28.73    66.40    68.58   113.25   125.16
          (Kelvin)            155.86   196.86   316.87   328.19   369.16
                              443.67   469.29   503.54   614.47   638.39
                              714.42   850.01   883.11   924.96   937.60
                             1040.69  1054.04  1140.06  1155.07  1162.37
                             1193.42  1254.07  1303.13  1336.70  1359.69
                             1384.87  1402.22  1491.72  1501.63  1586.00
                             1597.42  1605.78  1625.37  1630.30  1697.06
                             1748.22  1803.58  1816.50  1841.49  1901.41
                             1927.80  1956.09  2014.22  2043.84  2066.00
                             2068.91  2075.26  2129.89  2160.19  2176.76
                             2186.90  2190.43  2199.35  2208.22  2222.10
                             2235.64  2370.11  2525.47  4391.70  4392.58
                             4406.84  4420.61  4438.54  4479.56  4488.47
                             4495.41  4506.38  4516.18  4532.67  4534.01
                             4699.24  4718.64  4754.12

 Zero-point correction=                           0.240541 (Hartree/Particle)
 Thermal correction to Energy=                    0.254087
 Thermal correction to Enthalpy=                  0.255031
 Thermal correction to Gibbs Free Energy=         0.198243
 Sum of electronic and zero-point Energies=           -595.094215
 Sum of electronic and thermal Energies=              -595.080669
 Sum of electronic and thermal Enthalpies=            -595.079725
 Sum of electronic and thermal Free Energies=         -595.136513

                     E (Thermal)             CV                S
                      KCal/Mol        Cal/Mol-Kelvin    Cal/Mol-Kelvin
 Total                  159.442             49.211            119.522
 Electronic               0.000              0.000              0.000
 Translational            0.889              2.981             41.488
 Rotational               0.889              2.981             31.383
 Vibrational            157.665             43.250             46.650
 Vibration     1          0.593              1.986              6.638
 Vibration     2          0.595              1.979              4.976
 Vibration     3          0.595              1.978              4.912
 Vibration     4          0.600              1.963              3.923
 Vibration     5          0.601              1.958              3.727
 Vibration     6          0.606              1.943              3.299
 Vibration     7          0.614              1.917              2.848
 Vibration     8          0.647              1.810              1.957
 Vibration     9          0.651              1.798              1.894
 Vibration    10          0.666              1.752              1.685
 Vibration    11          0.698              1.658              1.371
 Vibration    12          0.710              1.623              1.279
 Vibration    13          0.727              1.575              1.166
 Vibration    14          0.789              1.411              0.868
 Vibration    15          0.803              1.375              0.815
 Vibration    16          0.852              1.258              0.667
 Vibration    17          0.948              1.051              0.466
 Vibration    18          0.973              1.003              0.427

                           ! Non-Optimized Parameters !
 Normal termination of Gaussian 16 at Wed Dec  9 23:36:08 2020.

 ----------------------------------------------------------------------
 # B3LYP/6-311++G(d,p) empiricaldispersion=gd3bj scf=xqc pop=npa geom=c
 heck
 ----------------------------------------------------------------------

 --------------------------------------
 CID_91696193_JID_3488_Energie_neutraal
 --------------------------------------
 Structure from the checkpoint file:  "JID_3488.chk"
 Charge =  0 Multiplicity = 1

 SCF Done:  E(RB3LYP) =  -595.503681696     A.U. after   15 cycles
 Normal termination of Gaussian 16 at Wed Dec  9 23:39:48 2020.

 ----------------------------------------------------------------------
 # B3LYP/6-311++G(d,p) empiricaldispersion=gd3bj scf=xqc pop=npa geom=c
 heck
 ----------------------------------------------------------------------

 ------------------------------------
 CID_91696193_JID_3488_Energie_kation
 ------------------------------------
 Structure from the checkpoint file:  "JID_3488.chk"
 Charge =  1 Multiplicity = 2

 SCF Done:  E(UB3LYP) =  -595.206404411     A.U. after   25 cycles
 Normal termination of Gaussian 16 at Wed Dec  9 23:48:21 2020.
 Gaussian 16:  ES64L-G16RevA.03 25-Dec-2016

 ----------------------------------------------------------------------
 # B3LYP/6-311++G(d,p) empiricaldispersion=gd3bj scf=xqc pop=npa geom=c
 heck
 ----------------------------------------------------------------------

 -----------------------------------
 CID_91696193_JID_3488_Energie_anion
 -----------------------------------
 Structure from the checkpoint file:  "JID_3488.chk"
 Charge = -1 Multiplicity = 2

                         Standard orientation:
 ---------------------------------------------------------------------
 Center     Atomic      Atomic             Coordinates (Angstroms)
 Number     Number       Type             X           Y           Z
 ---------------------------------------------------------------------
      1          6           0       -2.383613   -1.636481   -1.481065
      2          6           0       -2.712862   -0.618331   -0.388978
      3          7           0       -1.526723    0.113739    0.062228
      4          6           0       -1.194127    1.354525   -0.636206
      5          6           0       -1.888158    2.579463   -0.036675
      6          6           0       -0.760220   -0.462255    1.034954
      7          8           0       -1.039614   -1.549966    1.533388
      8          6           0        0.513081    0.273711    1.473791
      9          6           0        1.639402   -0.031956    0.538774
     10          6           0        2.141915   -1.194651    0.034717
     11          6           0        3.209818   -0.829505   -0.852036
     12          6           0        3.277121    0.528864   -0.828262
     13          8           0        2.324111    1.035280    0.013389
     14          1           0       -1.928676   -1.152604   -2.353074
     15          1           0       -3.291330   -2.152961   -1.813131
     16          1           0       -1.683392   -2.380505   -1.091639
     17          1           0       -3.441653    0.117233   -0.746702
     18          1           0       -3.140208   -1.125044    0.478227
     19          1           0       -0.111985    1.493413   -0.647298
     20          1           0       -1.491891    1.229757   -1.683758
     21          1           0       -1.568182    2.740948    0.998356
     22          1           0       -1.649641    3.479355   -0.614669
     23          1           0       -2.976212    2.453187   -0.034568
     24          1           0        0.379772    1.356835    1.534419
     25          1           0        0.730843   -0.095848    2.480066
     26          1           0        1.783766   -2.186683    0.270294
     27          1           0        3.839564   -1.494420   -1.426331
     28          1           0        3.906168    1.258348   -1.314096
 ---------------------------------------------------------------------

 SCF Done:  E(UB3LYP) =  -595.489342732     A.U. after   33 cycles
 SCF Done:  E(UB3LYP) =  -595.489342732     a.u. after    1 cycles

 The electronic state is 2-A.
 Alpha  occ. eigenvalues --  -19.09924 -18.99077 -14.24552 -10.17739 -10.14027
 Alpha  occ. eigenvalues --  -10.12835 -10.11011 -10.10574 -10.09929 -10.08220
 Alpha  occ. eigenvalues --  -10.07884 -10.06634 -10.06534  -1.02115  -0.94377
 Alpha  occ. eigenvalues --   -0.84177  -0.71590  -0.70296  -0.67471  -0.64851
 Alpha  occ. eigenvalues --   -0.61183  -0.54686  -0.54379  -0.51388  -0.46779
 Alpha  occ. eigenvalues --   -0.44657  -0.43801  -0.40323  -0.39633  -0.37362
 Alpha  occ. eigenvalues --   -0.36037  -0.34854  -0.34302  -0.33342  -0.32184
 Alpha  occ. eigenvalues --   -0.31605  -0.31189  -0.30382  -0.29639  -0.28680
 Alpha  occ. eigenvalues --   -0.28196  -0.27294  -0.26758  -0.25653  -0.25107
 Alpha  occ. eigenvalues --   -0.19372  -0.16786  -0.14922  -0.13409   0.04367
 Alpha virt. eigenvalues --    0.06171   0.06998   0.07826   0.08382   0.08452
 Alpha virt. eigenvalues --    0.08889   0.09979   0.10290   0.10981   0.11154
 Alpha virt. eigenvalues --    0.11650   0.11782   0.12995   0.13521   0.13862

  Beta  occ. eigenvalues --  -19.09920 -18.99070 -14.24554 -10.17734 -10.14028
  Beta  occ. eigenvalues --  -10.12815 -10.10988 -10.10553 -10.09919 -10.08210
  Beta  occ. eigenvalues --  -10.07879 -10.06615 -10.06483  -1.02107  -0.94366
  Beta  occ. eigenvalues --   -0.84165  -0.71577  -0.70275  -0.67431  -0.64813
  Beta  occ. eigenvalues --   -0.61153  -0.54597  -0.54334  -0.51367  -0.46751
  Beta  occ. eigenvalues --   -0.44616  -0.43761  -0.40289  -0.39597  -0.37339
  Beta  occ. eigenvalues --   -0.36007  -0.34826  -0.34268  -0.33310  -0.32155
  Beta  occ. eigenvalues --   -0.31585  -0.31165  -0.30352  -0.29604  -0.28645
  Beta  occ. eigenvalues --   -0.28147  -0.27256  -0.26724  -0.25615  -0.25081
  Beta  occ. eigenvalues --   -0.19362  -0.16775  -0.14905  -0.13397
  Beta virt. eigenvalues --    0.06682   0.07297   0.07451   0.08291   0.08730
  Beta virt. eigenvalues --    0.09051   0.09450   0.10426   0.10567   0.11281
  Beta virt. eigenvalues --    0.11369   0.11968   0.12044   0.13264   0.13650

 Mulliken charges and spin densities:
               1          2
     1  C    0.300338  -0.725894
     2  C   -0.059996  -0.094209
     3  N    0.149310   0.059450
     4  C   -1.257924   0.958080
     5  C    1.992242  -2.457611
     6  C   -0.473129   0.370685
     7  O   -0.309374   0.001939
     8  C    1.373115  -2.157289
     9  C   -0.018747  -0.090937
    10  C   -1.098422   1.406037
    11  C    1.401938  -1.875312
    12  C   -0.243610   0.295232
    13  O    0.026494   0.025226
    14  H   -0.026047   0.159638
    15  H   -0.157259   0.294711
    16  H    0.089238   0.078501
    17  H   -0.376182   0.525200
    18  H    0.121045   0.056049
    19  H    0.363716  -0.184924
    20  H   -0.463719   0.625289
    21  H   -0.193838   0.320314
    22  H   -0.588463   0.744114
    23  H   -0.255698   0.409305
    24  H    0.048887   0.136087
    25  H    0.169917   0.052256
    26  H    0.065627   0.134828
    27  H   -0.374158   0.533971
    28  H   -1.205299   1.399264
 Sum of Mulliken charges =  -1.00000   1.00000

 Dipole moment (field-independent basis, Debye):
    X=              0.3236    Y=             -4.0440    Z=              3.8612  Tot=              5.6006
 Quadrupole moment (field-independent basis, Debye-Ang):
   XX=           -153.2203   YY=           -130.3420   ZZ=           -118.0860
   XY=              1.7571   XZ=              4.0964   YZ=              9.8246

 Summary of Natural Population Analysis:

                                       Natural Population
                Natural  -----------------------------------------------
    Atom  No    Charge         Core      Valence    Rydberg      Total
 -----------------------------------------------------------------------
      C    1   -0.29118      0.99966     2.28646    0.00506     3.29118
      C    2   -0.08624      0.99962     2.07544    0.01119     3.08624
      N    3   -0.25375      0.99963     2.74210    0.01203     3.75375
      C    4   -0.08827      0.99960     2.07783    0.01083     3.08827
      C    5   -0.28819      0.99966     2.28348    0.00505     3.28819
      C    6    0.35234      0.99964     1.62534    0.02268     2.64766
      O    7   -0.33236      0.99988     3.32711    0.00537     4.33236
      C    8   -0.25330      0.99955     2.24486    0.00888     3.25330
      C    9    0.15001      0.99946     1.83489    0.01564     2.84999
      C   10   -0.14897      0.99948     2.14116    0.00832     3.14897
      C   11   -0.14856      0.99957     2.13967    0.00933     3.14856
      C   12    0.05972      0.99950     1.92620    0.01458     2.94028
      O   13   -0.23727      0.99986     3.22882    0.00859     4.23727
      H   14    0.09860      0.00000     0.40033    0.00108     0.40140
      H   15    0.09828      0.00000     0.40088    0.00085     0.40172
      H   16    0.10397      0.00000     0.39505    0.00098     0.39603
      H   17    0.09679      0.00000     0.40170    0.00151     0.40321
      H   18    0.10600      0.00000     0.39286    0.00114     0.39400
      H   19    0.10307      0.00000     0.39450    0.00243     0.39693
      H   20    0.10021      0.00000     0.39788    0.00191     0.39979
      H   21    0.09554      0.00000     0.40323    0.00123     0.40446
      H   22    0.10505      0.00000     0.39280    0.00216     0.39495
      H   23    0.10037      0.00000     0.39789    0.00174     0.39963
      H   24    0.11705      0.00000     0.38135    0.00161     0.38295
      H   25    0.11849      0.00000     0.38043    0.00108     0.38151
      H   26    0.11364      0.00000     0.38555    0.00081     0.38636
      H   27    0.10948      0.00000     0.38952    0.00101     0.39052
      H   28    0.09948      0.00000     0.39765    0.00287     0.40052
 =======================================================================
   * Total *   -0.00000     12.99511    35.84496    0.15994    49.00000

 Normal termination of Gaussian 16 at Wed Dec  9 23:59:42 2020.
