 Gaussian 16, Revision A.03,

 -----------------------------------------------------------
 # opt freq B3LYP/6-31G(d) empiricaldispersion=gd3bj scf=xqc
 -----------------------------------------------------------

 -------------------------------
 CID_152804612_JID_5958_neutraal
 -------------------------------
 Symbolic Z-matrix:
 Charge =  0 Multiplicity = 1

 SCF Done:  E(RB3LYP) =  -675.113803542     A.U. after   13 cycles
 SCF Done:  E(RB3LYP) =  -675.118391608     A.U. after   12 cycles
 SCF Done:  E(RB3LYP) =  -675.119522653     A.U. after   12 cycles
 SCF Done:  E(RB3LYP) =  -675.120125636     A.U. after   11 cycles
 SCF Done:  E(RB3LYP) =  -675.120450600     A.U. after   11 cycles
 SCF Done:  E(RB3LYP) =  -675.120587931     A.U. after   11 cycles
 SCF Done:  E(RB3LYP) =  -675.120620998     A.U. after   10 cycles
 SCF Done:  E(RB3LYP) =  -675.120625021     A.U. after    9 cycles
 SCF Done:  E(RB3LYP) =  -675.120629588     A.U. after    9 cycles
 SCF Done:  E(RB3LYP) =  -675.120630214     A.U. after    7 cycles
 SCF Done:  E(RB3LYP) =  -675.120630422     A.U. after    7 cycles
 SCF Done:  E(RB3LYP) =  -675.120630494     A.U. after    6 cycles
 Optimization completed.
    -- Stationary point found.
 Normal termination of Gaussian 16 at Thu Dec 10 17:37:42 2020.

 --------------------------------------------------------------------
 #N Geom=AllCheck Guess=TCheck SCRF=Check GenChk RB3LYP/6-31G(d) Freq
 --------------------------------------------------------------------

 Structure from the checkpoint file:  "JID_5958.chk"
 -------------------------------
 CID_152804612_JID_5958_neutraal
 -------------------------------
 Charge =  0 Multiplicity = 1

 SCF Done:  E(RB3LYP) =  -675.120630494     A.U. after    1 cycles

  Exact polarizability: 172.955  -4.428 123.548  -3.531 -11.954 117.141
 Approx polarizability: 220.892  -1.140 189.285  -3.443 -23.738 176.095

                      1                      2                      3
                      A                      A                      A
 Frequencies --     30.1486                44.0290                62.1782
 Red. masses --      4.9865                 4.1334                 4.4789
 Frc consts  --      0.0027                 0.0047                 0.0102
 IR Inten    --      0.9797                 0.5275                 0.4334

                      4                      5                      6
                      A                      A                      A
 Frequencies --     66.2854               101.3377               109.6462
 Red. masses --      4.0708                 2.9565                 3.1563
 Frc consts  --      0.0105                 0.0179                 0.0224
 IR Inten    --      1.7599                 0.7214                 1.4507

                      7                      8                      9
                      A                      A                      A
 Frequencies --    156.3869               190.8927               201.2979
 Red. masses --      3.6862                 2.7284                 3.1367
 Frc consts  --      0.0531                 0.0586                 0.0749
 IR Inten    --      0.4822                 3.0477                 1.3399

                     10                     11                     12
                      A                      A                      A
 Frequencies --    216.0659               233.7691               282.7510
 Red. masses --      3.0494                 3.0896                 2.1331
 Frc consts  --      0.0839                 0.0995                 0.1005
 IR Inten    --      4.2794                 5.8742                28.7548

                     13                     14                     15
                      A                      A                      A
 Frequencies --    305.3898               312.9345               325.9951
 Red. masses --      1.3123                 1.2260                 2.6170
 Frc consts  --      0.0721                 0.0707                 0.1639
 IR Inten    --     21.8986                88.0504                 3.3790

                     16                     17                     18
                      A                      A                      A
 Frequencies --    337.9550               369.2390               389.6059
 Red. masses --      1.8177                 1.1544                 2.8749
 Frc consts  --      0.1223                 0.0927                 0.2571
 IR Inten    --     11.0328               140.3386                28.7378

                     19                     20                     21
                      A                      A                      A
 Frequencies --    396.4668               422.6962               450.9337
 Red. masses --      2.5751                 4.0629                 2.2610
 Frc consts  --      0.2385                 0.4277                 0.2709
 IR Inten    --      7.0604                 2.7987                 2.1611

                     22                     23                     24
                      A                      A                      A
 Frequencies --    478.6937               527.6376               589.2963
 Red. masses --      2.3235                 2.5740                 3.1717
 Frc consts  --      0.3137                 0.4222                 0.6489
 IR Inten    --      5.1876                 2.8433                 0.0093

                     25                     26                     27
                      A                      A                      A
 Frequencies --    615.3331               652.7547               741.3329
 Red. masses --      2.2003                 3.6302                 2.6640
 Frc consts  --      0.4908                 0.9113                 0.8626
 IR Inten    --      9.8927                 9.4299                22.6652

                     28                     29                     30
                      A                      A                      A
 Frequencies --    755.9888               782.0682               813.7410
 Red. masses --      1.5946                 1.7587                 2.1767
 Frc consts  --      0.5369                 0.6338                 0.8492
 IR Inten    --      6.2616                 3.6454                13.7661

                     31                     32                     33
                      A                      A                      A
 Frequencies --    840.7220               851.3770               868.5426
 Red. masses --      1.8367                 1.8681                 2.0000
 Frc consts  --      0.7649                 0.7978                 0.8889
 IR Inten    --     20.7653                49.4262                78.5424

                     34                     35                     36
                      A                      A                      A
 Frequencies --    886.1284               902.9443               910.5919
 Red. masses --      1.8024                 1.7473                 2.1508
 Frc consts  --      0.8338                 0.8394                 1.0508
 IR Inten    --     67.5491                16.4932                10.3239

                     37                     38                     39
                      A                      A                      A
 Frequencies --    956.3191               982.6824               989.9211
 Red. masses --      2.2978                 2.0725                 1.8900
 Frc consts  --      1.2381                 1.1791                 1.0912
 IR Inten    --      1.6336                 6.6067                16.6923

                     40                     41                     42
                      A                      A                      A
 Frequencies --    994.9915              1000.1561              1038.4614
 Red. masses --      1.9738                 1.6482                 1.9614
 Frc consts  --      1.1513                 0.9714                 1.2462
 IR Inten    --      2.2184                14.5468                 1.5468

                     43                     44                     45
                      A                      A                      A
 Frequencies --   1057.4139              1082.5031              1086.6913
 Red. masses --      1.8703                 2.4076                 2.2702
 Frc consts  --      1.2321                 1.6623                 1.5795
 IR Inten    --      6.0487                38.5209               111.6873

                     46                     47                     48
                      A                      A                      A
 Frequencies --   1094.6409              1115.4794              1136.8440
 Red. masses --      2.5080                 2.7004                 2.3350
 Frc consts  --      1.7706                 1.9797                 1.7780
 IR Inten    --     20.6102                11.1690                11.2091

                     49                     50                     51
                      A                      A                      A
 Frequencies --   1153.1640              1174.8446              1197.9711
 Red. masses --      1.9669                 1.4111                 1.2737
 Frc consts  --      1.5411                 1.1476                 1.0770
 IR Inten    --      1.2776                 7.7181                 3.8754

                     52                     53                     54
                      A                      A                      A
 Frequencies --   1204.7668              1212.7676              1216.3781
 Red. masses --      1.2921                 1.2158                 1.2411
 Frc consts  --      1.1049                 1.0536                 1.0819
 IR Inten    --      2.9596                11.7332                 1.8879

                     55                     56                     57
                      A                      A                      A
 Frequencies --   1248.5968              1257.2200              1276.7661
 Red. masses --      1.1339                 1.2990                 1.2487
 Frc consts  --      1.0415                 1.2097                 1.1993
 IR Inten    --      7.2670                 2.1757                39.0016

                     58                     59                     60
                      A                      A                      A
 Frequencies --   1298.5364              1330.1090              1344.2510
 Red. masses --      1.2975                 1.4071                 1.1980
 Frc consts  --      1.2891                 1.4668                 1.2755
 IR Inten    --     13.0699                20.1856                 7.3451

                     61                     62                     63
                      A                      A                      A
 Frequencies --   1353.4668              1364.2547              1385.2116
 Red. masses --      1.2755                 1.3542                 1.4464
 Frc consts  --      1.3766                 1.4850                 1.6353
 IR Inten    --      3.5216                 1.9650                18.2183

                     64                     65                     66
                      A                      A                      A
 Frequencies --   1395.7145              1405.0889              1407.2133
 Red. masses --      1.3971                 1.4980                 1.5572
 Frc consts  --      1.6035                 1.7425                 1.8168
 IR Inten    --      4.8913                 1.0687                 2.3097

                     67                     68                     69
                      A                      A                      A
 Frequencies --   1410.0403              1411.4341              1417.1469
 Red. masses --      1.2722                 1.3759                 1.5072
 Frc consts  --      1.4902                 1.6150                 1.7834
 IR Inten    --     19.2717                36.8251                30.8711

                     70                     71                     72
                      A                      A                      A
 Frequencies --   1440.7323              1455.8456              1460.8827
 Red. masses --      1.3089                 1.7184                 1.4364
 Frc consts  --      1.6007                 2.1458                 1.8061
 IR Inten    --     31.8764                 1.5762                 3.7908

                     73                     74                     75
                      A                      A                      A
 Frequencies --   1492.7369              1499.6140              1512.5773
 Red. masses --      1.1018                 1.0921                 1.0863
 Frc consts  --      1.4466                 1.4470                 1.4643
 IR Inten    --      8.6663                 4.3781                 3.3069

                     76                     77                     78
                      A                      A                      A
 Frequencies --   1527.6902              1537.8032              1559.1542
 Red. masses --      1.0918                 1.0866                 1.0824
 Frc consts  --      1.5012                 1.5140                 1.5503
 IR Inten    --      3.1200                 2.5886                 7.0244

                     79                     80                     81
                      A                      A                      A
 Frequencies --   1667.4999              1695.0760              1732.6195
 Red. masses --      7.4575                 1.0858                 6.5105
 Frc consts  --     12.2172                 1.8381                11.5152
 IR Inten    --      2.4579                27.7538                 2.2101

                     82                     83                     84
                      A                      A                      A
 Frequencies --   2938.0548              2968.6411              2974.7738
 Red. masses --      1.0791                 1.0737                 1.0733
 Frc consts  --      5.4884                 5.5749                 5.5958
 IR Inten    --     33.8862                86.8798                37.9237

                     85                     86                     87
                      A                      A                      A
 Frequencies --   2993.6383              3001.6273              3030.1459
 Red. masses --      1.0842                 1.0718                 1.0621
 Frc consts  --      5.7246                 5.6894                 5.7459
 IR Inten    --     41.8945                58.8405                21.3947

                     88                     89                     90
                      A                      A                      A
 Frequencies --   3042.9577              3043.2590              3060.7236
 Red. masses --      1.0820                 1.0651                 1.0660
 Frc consts  --      5.9031                 5.8117                 5.8836
 IR Inten    --     43.5682                10.4887                52.7804

                     91                     92                     93
                      A                      A                      A
 Frequencies --   3068.2763              3083.8148              3089.6936
 Red. masses --      1.0971                 1.0942                 1.0944
 Frc consts  --      6.0852                 6.1310                 6.1555
 IR Inten    --     41.3803                37.0976                41.7512

                     94                     95                     96
                      A                      A                      A
 Frequencies --   3101.2032              3103.2437              3151.0441
 Red. masses --      1.1041                 1.0941                 1.0893
 Frc consts  --      6.2561                 6.2078                 6.3725
 IR Inten    --     31.5507                56.3526                17.1057

                     97                     98                     99
                      A                      A                      A
 Frequencies --   3180.0178              3212.0638              3480.5112
 Red. masses --      1.0874                 1.0946                 1.0492
 Frc consts  --      6.4788                 6.6538                 7.4884
 IR Inten    --     10.8592                15.6593                12.7130

                    100                    101                    102
                      A                      A                      A
 Frequencies --   3575.8345              3737.9566              3753.0955
 Red. masses --      1.0939                 1.0662                 1.0660
 Frc consts  --      8.2414                 8.7773                 8.8472
 IR Inten    --      7.3575                10.8699                 7.7535

 - Thermochemistry -
 -------------------
 Temperature   298.150 Kelvin.  Pressure   1.00000 Atm.
 Atom     1 has atomic number  6 and mass  12.00000

 Molecular mass:   211.15723 amu.
 Principal axes and moments of inertia in atomic units:
                           1         2         3
     Eigenvalues --  1514.706667243.403107475.57637
           X            0.99993  -0.01069  -0.00527
           Y            0.01037   0.99823  -0.05855
           Z            0.00589   0.05850   0.99827
 This molecule is an asymmetric top.
 Rotational symmetry number  1.
 Warning -- assumption of classical behavior for rotation
           may cause significant error
 Rotational temperatures (Kelvin)      0.05718     0.01196     0.01159
 Rotational constants (GHZ):           1.19148     0.24916     0.24142
 Zero-point vibrational energy     845741.9 (Joules/Mol)
                                  202.13718 (Kcal/Mol)
 Warning -- explicit consideration of  25 degrees of freedom as
           vibrations may cause significant error
 Vibrational temperatures:     43.38    63.35    89.46    95.37   145.80
          (Kelvin)            157.76   225.01   274.65   289.62   310.87
                              336.34   406.82   439.39   450.24   469.03
                              486.24   531.25   560.56   570.43   608.17
                              648.79   688.73   759.15   847.87   885.33
                              939.17  1066.61  1087.70  1125.22  1170.79
                             1209.61  1224.94  1249.64  1274.94  1299.14
                             1310.14  1375.93  1413.86  1424.28  1431.57
                             1439.00  1494.11  1521.38  1557.48  1563.51
                             1574.94  1604.93  1635.66  1659.15  1690.34
                             1723.61  1733.39  1744.90  1750.10  1796.45
                             1808.86  1836.98  1868.30  1913.73  1934.08
                             1947.34  1962.86  1993.01  2008.12  2021.61
                             2024.67  2028.73  2030.74  2038.96  2072.89
                             2094.64  2101.88  2147.72  2157.61  2176.26
                             2198.01  2212.56  2243.28  2399.16  2438.84
                             2492.85  4227.21  4271.21  4280.04  4307.18
                             4318.67  4359.70  4378.14  4378.57  4403.70
                             4414.57  4436.92  4445.38  4461.94  4464.88
                             4533.65  4575.34  4621.44  5007.68  5144.83
                             5378.09  5399.87

 Zero-point correction=                           0.322126 (Hartree/Particle)
 Thermal correction to Energy=                    0.338374
 Thermal correction to Enthalpy=                  0.339318
 Thermal correction to Gibbs Free Energy=         0.277877
 Sum of electronic and zero-point Energies=           -674.798504
 Sum of electronic and thermal Energies=              -674.782257
 Sum of electronic and thermal Enthalpies=            -674.781312
 Sum of electronic and thermal Free Energies=         -674.842754

                     E (Thermal)             CV                S
                      KCal/Mol        Cal/Mol-Kelvin    Cal/Mol-Kelvin
 Total                  212.333             61.887            129.314
 Electronic               0.000              0.000              0.000
 Translational            0.889              2.981             41.946
 Rotational               0.889              2.981             32.772
 Vibrational            210.555             55.926             54.596
 Vibration     1          0.594              1.984              5.820
 Vibration     2          0.595              1.980              5.069
 Vibration     3          0.597              1.972              4.387
 Vibration     4          0.598              1.970              4.261
 Vibration     5          0.604              1.948              3.428
 Vibration     6          0.606              1.941              3.275
 Vibration     7          0.620              1.896              2.593
 Vibration     8          0.634              1.852              2.219
 Vibration     9          0.638              1.838              2.121
 Vibration    10          0.645              1.817              1.992
 Vibration    11          0.654              1.789              1.850
 Vibration    12          0.682              1.706              1.517
 Vibration    13          0.696              1.663              1.387
 Vibration    14          0.701              1.649              1.347
 Vibration    15          0.710              1.624              1.280
 Vibration    16          0.718              1.600              1.222
 Vibration    17          0.742              1.535              1.083
 Vibration    18          0.758              1.492              1.002
 Vibration    19          0.763              1.478              0.976
 Vibration    20          0.785              1.421              0.883
 Vibration    21          0.810              1.359              0.793
 Vibration    22          0.835              1.297              0.714
 Vibration    23          0.883              1.189              0.593
 Vibration    24          0.947              1.055              0.468
 Vibration    25          0.975              0.999              0.424

                           ! Non-Optimized Parameters !
 Normal termination of Gaussian 16 at Thu Dec 10 17:49:26 2020.

 ----------------------------------------------------------------------
 # B3LYP/6-311++G(d,p) empiricaldispersion=gd3bj scf=xqc pop=npa geom=c
 heck
 ----------------------------------------------------------------------

 ---------------------------------------
 CID_152804612_JID_5958_Energie_neutraal
 ---------------------------------------
 Structure from the checkpoint file:  "JID_5958.chk"
 Charge =  0 Multiplicity = 1

 SCF Done:  E(RB3LYP) =  -675.338350623     A.U. after   14 cycles
 Normal termination of Gaussian 16 at Thu Dec 10 17:56:56 2020.

 ----------------------------------------------------------------------
 # B3LYP/6-311++G(d,p) empiricaldispersion=gd3bj scf=xqc pop=npa geom=c
 heck
 ----------------------------------------------------------------------

 -------------------------------------
 CID_152804612_JID_5958_Energie_kation
 -------------------------------------
 Structure from the checkpoint file:  "JID_5958.chk"
 Charge =  1 Multiplicity = 2

 SCF Done:  E(UB3LYP) =  -675.047045909     A.U. after   24 cycles
 Normal termination of Gaussian 16 at Thu Dec 10 18:10:22 2020.
 Gaussian 16:  ES64L-G16RevA.03 25-Dec-2016

 ----------------------------------------------------------------------
 # B3LYP/6-311++G(d,p) empiricaldispersion=gd3bj scf=xqc pop=npa geom=c
 heck
 ----------------------------------------------------------------------

 ------------------------------------
 CID_152804612_JID_5958_Energie_anion
 ------------------------------------
 Structure from the checkpoint file:  "JID_5958.chk"
 Charge = -1 Multiplicity = 2

                         Standard orientation:
 ---------------------------------------------------------------------
 Center     Atomic      Atomic             Coordinates (Angstroms)
 Number     Number       Type             X           Y           Z
 ---------------------------------------------------------------------
      1          6           0       -1.295574    1.613671   -0.391297
      2          6           0        0.051544    1.830961   -1.035606
      3          6           0        1.135179    1.166859   -0.606638
      4          6           0        1.033092    0.189624    0.489966
      5          6           0       -0.180376   -0.235499    0.882752
      6          6           0       -1.446501    0.190515    0.173343
      7          6           0       -2.674804    0.046228    1.088542
      8          6           0       -4.026181    0.390214    0.445845
      9          6           0       -4.347790   -0.425398   -0.809143
     10          8           0       -4.346931   -1.830340   -0.576026
     11          6           0        2.300337   -0.319895    1.147186
     12          6           0        2.986343   -1.466455    0.384452
     13          6           0        3.336504   -1.199390   -1.081417
     14          7           0        4.452488   -0.256368   -1.194878
     15          8           0        3.263602    0.733924    1.303960
     16          1           0       -2.098727    1.821511   -1.106125
     17          1           0       -1.421053    2.344311    0.427853
     18          1           0        0.137843    2.583768   -1.815532
     19          1           0        2.114869    1.362196   -1.030556
     20          1           0       -0.270577   -0.958611    1.693226
     21          1           0       -1.570826   -0.491327   -0.689062
     22          1           0       -2.714717   -0.985933    1.463885
     23          1           0       -2.527379    0.679671    1.973124
     24          1           0       -4.816826    0.215808    1.185550
     25          1           0       -4.065512    1.456936    0.188053
     26          1           0       -5.357978   -0.186130   -1.155775
     27          1           0       -3.657389   -0.163448   -1.626744
     28          1           0       -3.428801   -2.100398   -0.424049
     29          1           0        2.030633   -0.714417    2.139343
     30          1           0        3.903117   -1.726631    0.927027
     31          1           0        2.312160   -2.329777    0.435406
     32          1           0        3.645331   -2.149510   -1.537149
     33          1           0        2.421166   -0.886823   -1.613839
     34          1           0        4.540454    0.078229   -2.151854
     35          1           0        4.283862    0.545819   -0.592080
     36          1           0        2.808932    1.482044    1.722059
 ---------------------------------------------------------------------

 SCF Done:  E(UB3LYP) =  -675.330898862     A.U. after   33 cycles
 SCF Done:  E(UB3LYP) =  -675.330898862     a.u. after    1 cycles

 The electronic state is 2-A.
 Alpha  occ. eigenvalues --  -19.02361 -19.02062 -14.18556 -10.11313 -10.11018
 Alpha  occ. eigenvalues --  -10.08564 -10.06201 -10.06006 -10.05971 -10.05712
 Alpha  occ. eigenvalues --  -10.04833 -10.03773 -10.03434 -10.03163 -10.02893
 Alpha  occ. eigenvalues --   -0.92330  -0.92114  -0.77684  -0.72528  -0.68316
 Alpha  occ. eigenvalues --   -0.66076  -0.62254  -0.61733  -0.56558  -0.55389
 Alpha  occ. eigenvalues --   -0.50669  -0.48347  -0.46207  -0.44918  -0.42104
 Alpha  occ. eigenvalues --   -0.40551  -0.38672  -0.37923  -0.36760  -0.35536
 Alpha  occ. eigenvalues --   -0.34624  -0.34391  -0.32533  -0.31999  -0.30984
 Alpha  occ. eigenvalues --   -0.29338  -0.28926  -0.28298  -0.27241  -0.26263
 Alpha  occ. eigenvalues --   -0.25748  -0.25060  -0.23855  -0.23436  -0.23160
 Alpha  occ. eigenvalues --   -0.22341  -0.19908  -0.19592  -0.18639  -0.17461
 Alpha  occ. eigenvalues --   -0.16450  -0.13683  -0.09389   0.04863
 Alpha virt. eigenvalues --    0.07041   0.07167   0.07835   0.08254   0.08794
 Alpha virt. eigenvalues --    0.09025   0.09521   0.10290   0.10796   0.11121
 Alpha virt. eigenvalues --    0.11540   0.11965   0.12361   0.12582   0.13991

  Beta  occ. eigenvalues --  -19.02352 -19.02046 -14.18554 -10.11315 -10.10990
  Beta  occ. eigenvalues --  -10.08548 -10.06189 -10.05993 -10.05982 -10.05696
  Beta  occ. eigenvalues --  -10.04825 -10.03656 -10.03415 -10.02882 -10.02655
  Beta  occ. eigenvalues --   -0.92312  -0.92074  -0.77675  -0.72276  -0.68200
  Beta  occ. eigenvalues --   -0.65970  -0.62057  -0.61436  -0.56459  -0.55292
  Beta  occ. eigenvalues --   -0.50592  -0.48131  -0.45927  -0.44774  -0.42050
  Beta  occ. eigenvalues --   -0.40504  -0.38576  -0.37748  -0.36711  -0.35423
  Beta  occ. eigenvalues --   -0.34534  -0.34292  -0.32403  -0.31949  -0.30911
  Beta  occ. eigenvalues --   -0.29202  -0.28844  -0.28207  -0.27059  -0.26230
  Beta  occ. eigenvalues --   -0.25670  -0.24982  -0.23779  -0.23328  -0.22998
  Beta  occ. eigenvalues --   -0.22278  -0.19727  -0.19466  -0.18195  -0.17410
  Beta  occ. eigenvalues --   -0.16022  -0.13656  -0.08155
  Beta virt. eigenvalues --    0.06940   0.07632   0.07987   0.08325   0.08783
  Beta virt. eigenvalues --    0.09101   0.09485   0.09813   0.10409   0.11024
  Beta virt. eigenvalues --    0.11251   0.11640   0.12167   0.12463   0.12664

 Mulliken charges and spin densities:
               1          2
     1  C    0.393179  -1.459693
     2  C   -0.719818   0.758378
     3  C   -0.668436  -0.413219
     4  C    1.011435   0.361144
     5  C   -0.562351   0.162444
     6  C    0.340181   0.390474
     7  C   -0.444979  -0.101833
     8  C   -0.222375   0.077603
     9  C    0.450101  -0.993432
    10  O   -0.262672   0.015278
    11  C    0.289172  -0.280889
    12  C   -0.307804  -0.173425
    13  C   -0.373163  -0.159910
    14  N   -0.374235   0.020265
    15  O   -0.233714   0.009172
    16  H    0.052223   0.062388
    17  H    0.045129   0.109524
    18  H   -0.141058   0.296281
    19  H    0.177678  -0.072727
    20  H   -0.135266   0.271257
    21  H    0.131507  -0.017336
    22  H    0.089509   0.045254
    23  H   -0.071292   0.214428
    24  H   -0.083611   0.252209
    25  H   -0.122558   0.257582
    26  H   -0.441132   0.615468
    27  H    0.001985   0.179215
    28  H    0.191802   0.057057
    29  H   -0.077568   0.253643
    30  H    0.134321   0.039229
    31  H    0.122535   0.020280
    32  H    0.015655   0.131028
    33  H    0.096506   0.048118
    34  H    0.189415   0.019351
    35  H    0.257614   0.001708
    36  H    0.252085   0.003690
 Sum of Mulliken charges =  -1.00000   1.00000

 Dipole moment (field-independent basis, Debye):
    X=              3.6264    Y=             -0.2741    Z=             -0.1254  Tot=              3.6389
 Quadrupole moment (field-independent basis, Debye-Ang):
   XX=           -189.3402   YY=           -119.7918   ZZ=           -118.1000
   XY=              3.4626   XZ=             -6.5393   YZ=              2.2642

 Summary of Natural Population Analysis:

                                       Natural Population
                Natural  -----------------------------------------------
    Atom  No    Charge         Core      Valence    Rydberg      Total
 -----------------------------------------------------------------------
      C    1   -0.20643      0.99961     2.19702    0.00980     3.20643
      C    2   -0.03003      0.99955     2.01889    0.01159     3.03003
      C    3   -0.12861      0.99949     2.12006    0.00906     3.12861
      C    4   -0.03702      0.99945     2.02550    0.01207     3.03702
      C    5   -0.04004      0.99947     2.03077    0.00980     3.04004
      C    6   -0.12542      0.99959     2.11510    0.01074     3.12542
      C    7   -0.18828      0.99961     2.17791    0.01076     3.18828
      C    8   -0.20330      0.99963     2.19511    0.00857     3.20330
      C    9   -0.01160      0.99960     1.99889    0.01311     3.01160
      O   10   -0.37197      0.99990     3.36550    0.00657     4.37197
      C   11    0.06080      0.99950     1.92448    0.01522     2.93920
      C   12   -0.19741      0.99960     2.18714    0.01067     3.19741
      C   13   -0.09297      0.99964     2.08324    0.01009     3.09297
      N   14   -0.43071      0.99977     2.92201    0.00892     3.93071
      O   15   -0.38067      0.99989     3.37492    0.00586     4.38067
      H   16    0.10116      0.00000     0.39700    0.00184     0.39884
      H   17    0.09880      0.00000     0.40001    0.00120     0.40120
      H   18    0.08730      0.00000     0.41184    0.00086     0.41270
      H   19    0.09438      0.00000     0.40260    0.00302     0.40562
      H   20    0.08851      0.00000     0.41010    0.00139     0.41149
      H   21    0.09047      0.00000     0.40715    0.00238     0.40953
      H   22    0.09262      0.00000     0.40611    0.00126     0.40738
      H   23    0.10087      0.00000     0.39772    0.00141     0.39913
      H   24    0.09670      0.00000     0.40225    0.00105     0.40330
      H   25    0.10000      0.00000     0.39861    0.00140     0.40000
      H   26    0.08611      0.00000     0.41234    0.00155     0.41389
      H   27    0.07780      0.00000     0.42092    0.00128     0.42220
      H   28    0.22703      0.00000     0.27013    0.00284     0.27297
      H   29    0.08129      0.00000     0.41652    0.00220     0.41871
      H   30    0.09970      0.00000     0.39901    0.00129     0.40030
      H   31    0.10220      0.00000     0.39692    0.00088     0.39780
      H   32    0.08384      0.00000     0.41468    0.00149     0.41616
      H   33    0.08794      0.00000     0.41037    0.00169     0.41206
      H   34    0.16828      0.00000     0.33005    0.00167     0.33172
      H   35    0.18712      0.00000     0.31083    0.00205     0.31288
      H   36    0.23154      0.00000     0.26610    0.00236     0.26846
 =======================================================================
   * Total *   -0.00000     14.99430    42.81777    0.18793    58.00000

 Normal termination of Gaussian 16 at Thu Dec 10 18:28:20 2020.
